  64  64   0   0
  0.6050870E+01  0.7288966E-09  0.7288966E-09  0.7288966E-09  0.5000000E-15
  1.000000000000000E-004
  CAR 
 unknown system                          
     21.69868056    -13.38221507  301      9.19380297      1.00000000
    -13.382  0.0000E+00  0.0000E+00
    -13.265  0.0000E+00  0.0000E+00
    -13.148  0.0000E+00  0.0000E+00
    -13.031  0.0000E+00  0.0000E+00
    -12.914  0.0000E+00  0.0000E+00
    -12.798  0.0000E+00  0.0000E+00
    -12.681  0.0000E+00  0.0000E+00
    -12.564  0.0000E+00  0.0000E+00
    -12.447  0.0000E+00  0.0000E+00
    -12.330  0.0000E+00  0.0000E+00
    -12.213  0.0000E+00  0.0000E+00
    -12.096  0.6234E-14  0.7290E-15
    -11.979  0.1186E-06  0.1387E-07
    -11.862  0.2504E-02  0.2928E-03
    -11.745  0.2713E+00  0.3201E-01
    -11.628  0.1148E+01  0.1662E+00
    -11.511  0.1706E+01  0.3657E+00
    -11.394  0.2362E+01  0.6419E+00
    -11.277  0.2538E+01  0.9387E+00
    -11.160  0.2894E+01  0.1277E+01
    -11.043  0.3453E+01  0.1681E+01
    -10.927  0.2809E+01  0.2009E+01
    -10.810  0.4333E+01  0.2516E+01
    -10.693  0.3652E+01  0.2943E+01
    -10.576  0.4283E+01  0.3444E+01
    -10.459  0.4233E+01  0.3939E+01
    -10.342  0.5179E+01  0.4545E+01
    -10.225  0.4788E+01  0.5105E+01
    -10.108  0.3763E+01  0.5545E+01
     -9.991  0.6145E+01  0.6263E+01
     -9.874  0.5869E+01  0.6949E+01
     -9.757  0.4791E+01  0.7510E+01
     -9.640  0.5613E+01  0.8166E+01
     -9.523  0.6292E+01  0.8902E+01
     -9.406  0.6633E+01  0.9677E+01
     -9.289  0.5364E+01  0.1030E+02
     -9.173  0.7488E+01  0.1118E+02
     -9.056  0.5012E+01  0.1177E+02
     -8.939  0.7121E+01  0.1260E+02
     -8.822  0.7192E+01  0.1344E+02
     -8.705  0.8894E+01  0.1448E+02
     -8.588  0.5541E+01  0.1513E+02
     -8.471  0.6378E+01  0.1587E+02
     -8.354  0.8969E+01  0.1692E+02
     -8.237  0.7595E+01  0.1781E+02
     -8.120  0.8558E+01  0.1881E+02
     -8.003  0.7049E+01  0.1964E+02
     -7.886  0.8848E+01  0.2067E+02
     -7.769  0.7890E+01  0.2159E+02
     -7.652  0.8159E+01  0.2255E+02
     -7.535  0.9191E+01  0.2362E+02
     -7.418  0.9815E+01  0.2477E+02
     -7.302  0.9932E+01  0.2593E+02
     -7.185  0.8724E+01  0.2695E+02
     -7.068  0.8290E+01  0.2792E+02
     -6.951  0.8999E+01  0.2897E+02
     -6.834  0.1269E+02  0.3046E+02
     -6.717  0.1055E+02  0.3169E+02
     -6.600  0.1059E+02  0.3293E+02
     -6.483  0.1070E+02  0.3418E+02
     -6.366  0.1325E+02  0.3573E+02
     -6.249  0.1143E+02  0.3707E+02
     -6.132  0.1401E+02  0.3870E+02
     -6.015  0.1122E+02  0.4002E+02
     -5.898  0.1271E+02  0.4150E+02
     -5.781  0.1508E+02  0.4327E+02
     -5.664  0.1062E+02  0.4451E+02
     -5.547  0.9016E+01  0.4556E+02
     -5.431  0.1168E+02  0.4693E+02
     -5.314  0.1032E+02  0.4813E+02
     -5.197  0.9797E+01  0.4928E+02
     -5.080  0.1360E+02  0.5087E+02
     -4.963  0.7083E+01  0.5170E+02
     -4.846  0.1159E+02  0.5305E+02
     -4.729  0.7744E+01  0.5396E+02
     -4.612  0.9113E+01  0.5502E+02
     -4.495  0.8240E+01  0.5599E+02
     -4.378  0.7919E+01  0.5691E+02
     -4.261  0.6532E+01  0.5768E+02
     -4.144  0.9060E+01  0.5874E+02
     -4.027  0.8282E+01  0.5970E+02
     -3.910  0.8245E+01  0.6067E+02
     -3.793  0.6875E+01  0.6147E+02
     -3.677  0.4834E+01  0.6204E+02
     -3.560  0.6238E+01  0.6277E+02
     -3.443  0.8019E+01  0.6370E+02
     -3.326  0.1084E+02  0.6497E+02
     -3.209  0.8331E+01  0.6595E+02
     -3.092  0.8636E+01  0.6696E+02
     -2.975  0.7192E+01  0.6780E+02
     -2.858  0.8609E+01  0.6880E+02
     -2.741  0.1039E+02  0.7002E+02
     -2.624  0.8325E+01  0.7099E+02
     -2.507  0.1083E+02  0.7226E+02
     -2.390  0.1760E+02  0.7432E+02
     -2.273  0.2673E+02  0.7744E+02
     -2.156  0.2752E+02  0.8066E+02
     -2.039  0.1538E+02  0.8246E+02
     -1.922  0.1296E+02  0.8398E+02
     -1.806  0.1559E+02  0.8580E+02
     -1.689  0.1295E+02  0.8731E+02
     -1.572  0.1491E+02  0.8906E+02
     -1.455  0.2073E+02  0.9148E+02
     -1.338  0.9696E+01  0.9262E+02
     -1.221  0.1074E+02  0.9387E+02
     -1.104  0.1091E+02  0.9515E+02
     -0.987  0.7014E+01  0.9597E+02
     -0.870  0.1032E+02  0.9717E+02
     -0.753  0.1044E+02  0.9840E+02
     -0.636  0.9410E+01  0.9950E+02
     -0.519  0.1100E+02  0.1008E+03
     -0.402  0.1260E+02  0.1023E+03
     -0.285  0.6567E+01  0.1030E+03
     -0.168  0.3663E+01  0.1035E+03
     -0.051  0.7335E+01  0.1043E+03
      0.065  0.1262E+02  0.1058E+03
      0.182  0.1047E+02  0.1070E+03
      0.299  0.8976E+01  0.1081E+03
      0.416  0.1520E+02  0.1098E+03
      0.533  0.1903E+02  0.1121E+03
      0.650  0.1562E+02  0.1139E+03
      0.767  0.1314E+02  0.1154E+03
      0.884  0.1621E+02  0.1173E+03
      1.001  0.2310E+02  0.1200E+03
      1.118  0.1921E+02  0.1223E+03
      1.235  0.1334E+02  0.1238E+03
      1.352  0.1563E+02  0.1257E+03
      1.469  0.1559E+02  0.1275E+03
      1.586  0.2293E+02  0.1302E+03
      1.703  0.1886E+02  0.1324E+03
      1.820  0.1477E+02  0.1341E+03
      1.936  0.1723E+02  0.1361E+03
      2.053  0.1660E+02  0.1380E+03
      2.170  0.2111E+02  0.1405E+03
      2.287  0.2144E+02  0.1430E+03
      2.404  0.2180E+02  0.1456E+03
      2.521  0.1352E+02  0.1472E+03
      2.638  0.2340E+02  0.1499E+03
      2.755  0.2754E+02  0.1531E+03
      2.872  0.2066E+02  0.1555E+03
      2.989  0.2526E+02  0.1585E+03
      3.106  0.2418E+02  0.1613E+03
      3.223  0.2669E+02  0.1644E+03
      3.340  0.3055E+02  0.1680E+03
      3.457  0.2683E+02  0.1711E+03
      3.574  0.2655E+02  0.1742E+03
      3.690  0.1906E+02  0.1765E+03
      3.807  0.2777E+02  0.1797E+03
      3.924  0.2161E+02  0.1822E+03
      4.041  0.3291E+02  0.1861E+03
      4.158  0.2564E+02  0.1891E+03
      4.275  0.2021E+02  0.1915E+03
      4.392  0.1800E+02  0.1936E+03
      4.509  0.2847E+02  0.1969E+03
      4.626  0.2980E+02  0.2004E+03
      4.743  0.2259E+02  0.2030E+03
      4.860  0.1786E+02  0.2051E+03
      4.977  0.2210E+02  0.2077E+03
      5.094  0.2474E+02  0.2106E+03
      5.211  0.2827E+02  0.2139E+03
      5.328  0.2086E+02  0.2163E+03
      5.445  0.1707E+02  0.2183E+03
      5.561  0.2276E+02  0.2210E+03
      5.678  0.2322E+02  0.2237E+03
      5.795  0.2583E+02  0.2267E+03
      5.912  0.2097E+02  0.2292E+03
      6.029  0.1677E+02  0.2311E+03
      6.146  0.1891E+02  0.2333E+03
      6.263  0.2745E+02  0.2366E+03
      6.380  0.1619E+02  0.2385E+03
      6.497  0.1029E+02  0.2397E+03
      6.614  0.1600E+02  0.2415E+03
      6.731  0.1311E+02  0.2431E+03
      6.848  0.1237E+02  0.2445E+03
      6.965  0.1061E+02  0.2457E+03
      7.082  0.8490E+01  0.2467E+03
      7.199  0.1000E+02  0.2479E+03
      7.316  0.9683E+01  0.2490E+03
      7.432  0.7876E+01  0.2500E+03
      7.549  0.5626E+01  0.2506E+03
      7.666  0.7629E+01  0.2515E+03
      7.783  0.6347E+01  0.2523E+03
      7.900  0.6531E+01  0.2530E+03
      8.017  0.3643E+01  0.2534E+03
      8.134  0.5130E+01  0.2540E+03
      8.251  0.4263E+01  0.2545E+03
      8.368  0.3748E+01  0.2550E+03
      8.485  0.3066E+01  0.2553E+03
      8.602  0.2106E+01  0.2556E+03
      8.719  0.2343E+01  0.2559E+03
      8.836  0.9821E+00  0.2560E+03
      8.953  0.2215E+00  0.2560E+03
      9.070  0.1726E-02  0.2560E+03
      9.186  0.3846E-07  0.2560E+03
      9.303  0.6676E-15  0.2560E+03
      9.420  0.0000E+00  0.2560E+03
      9.537  0.0000E+00  0.2560E+03
      9.654  0.0000E+00  0.2560E+03
      9.771  0.0000E+00  0.2560E+03
      9.888  0.0000E+00  0.2560E+03
     10.005  0.0000E+00  0.2560E+03
     10.122  0.0000E+00  0.2560E+03
     10.239  0.0000E+00  0.2560E+03
     10.356  0.0000E+00  0.2560E+03
     10.473  0.0000E+00  0.2560E+03
     10.590  0.0000E+00  0.2560E+03
     10.707  0.0000E+00  0.2560E+03
     10.824  0.0000E+00  0.2560E+03
     10.941  0.0000E+00  0.2560E+03
     11.057  0.0000E+00  0.2560E+03
     11.174  0.0000E+00  0.2560E+03
     11.291  0.0000E+00  0.2560E+03
     11.408  0.0000E+00  0.2560E+03
     11.525  0.0000E+00  0.2560E+03
     11.642  0.0000E+00  0.2560E+03
     11.759  0.0000E+00  0.2560E+03
     11.876  0.0000E+00  0.2560E+03
     11.993  0.0000E+00  0.2560E+03
     12.110  0.0000E+00  0.2560E+03
     12.227  0.0000E+00  0.2560E+03
     12.344  0.0000E+00  0.2560E+03
     12.461  0.0000E+00  0.2560E+03
     12.578  0.1603E-09  0.2560E+03
     12.695  0.1403E-03  0.2560E+03
     12.812  0.1149E+00  0.2560E+03
     12.928  0.7360E+00  0.2561E+03
     13.045  0.2632E+01  0.2564E+03
     13.162  0.4105E+01  0.2569E+03
     13.279  0.3379E+01  0.2573E+03
     13.396  0.3100E+01  0.2576E+03
     13.513  0.8258E+01  0.2586E+03
     13.630  0.9062E+01  0.2597E+03
     13.747  0.9144E+01  0.2607E+03
     13.864  0.5378E+01  0.2614E+03
     13.981  0.8510E+01  0.2624E+03
     14.098  0.1477E+02  0.2641E+03
     14.215  0.1548E+02  0.2659E+03
     14.332  0.1264E+02  0.2674E+03
     14.449  0.1407E+02  0.2690E+03
     14.566  0.1463E+02  0.2707E+03
     14.683  0.1260E+02  0.2722E+03
     14.799  0.1565E+02  0.2740E+03
     14.916  0.2218E+02  0.2766E+03
     15.033  0.2078E+02  0.2791E+03
     15.150  0.1509E+02  0.2808E+03
     15.267  0.1647E+02  0.2828E+03
     15.384  0.2125E+02  0.2852E+03
     15.501  0.1867E+02  0.2874E+03
     15.618  0.2080E+02  0.2899E+03
     15.735  0.2418E+02  0.2927E+03
     15.852  0.2376E+02  0.2955E+03
     15.969  0.2098E+02  0.2979E+03
     16.086  0.2475E+02  0.3008E+03
     16.203  0.2541E+02  0.3038E+03
     16.320  0.3046E+02  0.3073E+03
     16.437  0.3049E+02  0.3109E+03
     16.553  0.2548E+02  0.3139E+03
     16.670  0.2899E+02  0.3173E+03
     16.787  0.3892E+02  0.3218E+03
     16.904  0.4257E+02  0.3268E+03
     17.021  0.4500E+02  0.3321E+03
     17.138  0.4601E+02  0.3375E+03
     17.255  0.3270E+02  0.3413E+03
     17.372  0.3336E+02  0.3452E+03
     17.489  0.2896E+02  0.3486E+03
     17.606  0.2023E+02  0.3509E+03
     17.723  0.2859E+02  0.3543E+03
     17.840  0.3999E+02  0.3589E+03
     17.957  0.2514E+02  0.3619E+03
     18.074  0.2909E+02  0.3653E+03
     18.191  0.2125E+02  0.3678E+03
     18.308  0.2682E+02  0.3709E+03
     18.424  0.2919E+02  0.3743E+03
     18.541  0.2003E+02  0.3767E+03
     18.658  0.1532E+02  0.3785E+03
     18.775  0.1039E+02  0.3797E+03
     18.892  0.1089E+02  0.3809E+03
     19.009  0.8757E+01  0.3820E+03
     19.126  0.4281E+01  0.3825E+03
     19.243  0.2071E+01  0.3827E+03
     19.360  0.3480E+01  0.3831E+03
     19.477  0.8536E+00  0.3832E+03
     19.594  0.2655E+01  0.3835E+03
     19.711  0.1920E+01  0.3838E+03
     19.828  0.1202E+01  0.3839E+03
     19.945  0.8874E-01  0.3839E+03
     20.062  0.3980E+00  0.3840E+03
     20.179  0.3908E+00  0.3840E+03
     20.295  0.8654E-02  0.3840E+03
     20.412  0.6511E-06  0.3840E+03
     20.529  0.3701E-13  0.3840E+03
     20.646  0.0000E+00  0.3840E+03
     20.763  0.0000E+00  0.3840E+03
     20.880  0.0000E+00  0.3840E+03
     20.997  0.0000E+00  0.3840E+03
     21.114  0.0000E+00  0.3840E+03
     21.231  0.0000E+00  0.3840E+03
     21.348  0.0000E+00  0.3840E+03
     21.465  0.0000E+00  0.3840E+03
     21.582  0.0000E+00  0.3840E+03
     21.699  0.0000E+00  0.3840E+03
