mesh: [    48,    48,    48 ]
nqpoint: 2600   
reciprocal_lattice:
- [   0.27438734,   0.00000000,   0.00000000 ] # a*
- [   0.00000000,   0.27438734,   0.00000000 ] # b*
- [   0.00000000,   0.00000000,   0.27438734 ] # c*
natom:   8      
lattice:
- [     3.644483000000000,     0.000000000000000,     0.000000000000000 ] # a
- [     0.000000000000000,     3.644483000000000,     0.000000000000000 ] # b
- [     0.000000000000000,     0.000000000000000,     3.644483000000000 ] # c
points:
- symbol: C  # 1
  coordinates: [  0.250000000000000,  0.750000000000000,  0.250000000000000 ]
  mass: 12.010700
- symbol: C  # 2
  coordinates: [  0.000000000000000,  0.000000000000000,  0.500000000000000 ]
  mass: 12.010700
- symbol: C  # 3
  coordinates: [  0.250000000000000,  0.250000000000000,  0.750000000000000 ]
  mass: 12.010700
- symbol: C  # 4
  coordinates: [  0.000000000000000,  0.500000000000000,  0.000000000000000 ]
  mass: 12.010700
- symbol: C  # 5
  coordinates: [  0.750000000000000,  0.750000000000000,  0.750000000000000 ]
  mass: 12.010700
- symbol: C  # 6
  coordinates: [  0.500000000000000,  0.000000000000000,  0.000000000000000 ]
  mass: 12.010700
- symbol: C  # 7
  coordinates: [  0.750000000000000,  0.250000000000000,  0.250000000000000 ]
  mass: 12.010700
- symbol: C  # 8
  coordinates: [  0.500000000000000,  0.500000000000000,  0.500000000000000 ]
  mass: 12.010700

phonon:
- q-position: [    0.0104167,    0.0104167,    0.0104167 ]
  distance_from_gamma:  0.004950550
  weight: 8    
  band:
  - # 1
    frequency:     0.5701938724
  - # 2
    frequency:     0.5701938724
  - # 3
    frequency:     0.8447515346
  - # 4
    frequency:    22.9715164932
  - # 5
    frequency:    22.9715164932
  - # 6
    frequency:    22.9715164932
  - # 7
    frequency:    22.9831420952
  - # 8
    frequency:    22.9831420952
  - # 9
    frequency:    22.9831420952
  - # 10
    frequency:    28.8551320468
  - # 11
    frequency:    28.8551320468
  - # 12
    frequency:    28.8551320468
  - # 13
    frequency:    28.8586605412
  - # 14
    frequency:    28.8586605412
  - # 15
    frequency:    28.8586605412
  - # 16
    frequency:    33.5996034421
  - # 17
    frequency:    33.5996034421
  - # 18
    frequency:    33.5996034421
  - # 19
    frequency:    33.9137269251
  - # 20
    frequency:    33.9137269251
  - # 21
    frequency:    33.9137269251
  - # 22
    frequency:    36.4469020783
  - # 23
    frequency:    36.4469020783
  - # 24
    frequency:    36.4512837849

- q-position: [    0.0312500,    0.0104167,    0.0104167 ]
  distance_from_gamma:  0.009479582
  weight: 24   
  band:
  - # 1
    frequency:     1.0985096845
  - # 2
    frequency:     1.1072530433
  - # 3
    frequency:     1.6015027330
  - # 4
    frequency:    22.9274785604
  - # 5
    frequency:    22.9390759277
  - # 6
    frequency:    22.9785810492
  - # 7
    frequency:    22.9785810492
  - # 8
    frequency:    23.0134041982
  - # 9
    frequency:    23.0134041982
  - # 10
    frequency:    28.8486416340
  - # 11
    frequency:    28.8486416340
  - # 12
    frequency:    28.8592289570
  - # 13
    frequency:    28.8592289570
  - # 14
    frequency:    28.8888620800
  - # 15
    frequency:    28.8924545122
  - # 16
    frequency:    33.2686258349
  - # 17
    frequency:    33.5860923386
  - # 18
    frequency:    33.5860923386
  - # 19
    frequency:    33.9000017783
  - # 20
    frequency:    33.9000017783
  - # 21
    frequency:    34.2108818522
  - # 22
    frequency:    36.4354545104
  - # 23
    frequency:    36.4361131230
  - # 24
    frequency:    36.4553099707

- q-position: [    0.0520833,    0.0104167,    0.0104167 ]
  distance_from_gamma:  0.014851650
  weight: 24   
  band:
  - # 1
    frequency:     1.7329344837
  - # 2
    frequency:     1.7392831093
  - # 3
    frequency:     2.4949421854
  - # 4
    frequency:    22.8406914900
  - # 5
    frequency:    22.8522361158
  - # 6
    frequency:    23.0042372662
  - # 7
    frequency:    23.0042372662
  - # 8
    frequency:    23.0620996435
  - # 9
    frequency:    23.0620996435
  - # 10
    frequency:    28.8391458425
  - # 11
    frequency:    28.8391458425
  - # 12
    frequency:    28.8567974854
  - # 13
    frequency:    28.8567974854
  - # 14
    frequency:    28.9549753403
  - # 15
    frequency:    28.9587122740
  - # 16
    frequency:    32.9204722024
  - # 17
    frequency:    33.5592277475
  - # 18
    frequency:    33.5592277475
  - # 19
    frequency:    33.8726925109
  - # 20
    frequency:    33.8726925109
  - # 21
    frequency:    34.4914315908
  - # 22
    frequency:    36.4125817376
  - # 23
    frequency:    36.4133405698
  - # 24
    frequency:    36.4645168994

- q-position: [    0.0729167,    0.0104167,    0.0104167 ]
  distance_from_gamma:  0.020411641
  weight: 24   
  band:
  - # 1
    frequency:     2.3868178819
  - # 2
    frequency:     2.3910366025
  - # 3
    frequency:     3.4193511080
  - # 4
    frequency:    22.7135008246
  - # 5
    frequency:    22.7249743846
  - # 6
    frequency:    23.0482355310
  - # 7
    frequency:    23.0482355310
  - # 8
    frequency:    23.1288770791
  - # 9
    frequency:    23.1288770791
  - # 10
    frequency:    28.8265602976
  - # 11
    frequency:    28.8265602976
  - # 12
    frequency:    28.8512817846
  - # 13
    frequency:    28.8512817846
  - # 14
    frequency:    29.0510071379
  - # 15
    frequency:    29.0550061674
  - # 16
    frequency:    32.5550465042
  - # 17
    frequency:    33.5193262021
  - # 18
    frequency:    33.5193262021
  - # 19
    frequency:    33.8320822919
  - # 20
    frequency:    33.8320822919
  - # 21
    frequency:    34.7555604064
  - # 22
    frequency:    36.3783285230
  - # 23
    frequency:    36.3791223048
  - # 24
    frequency:    36.4782871462

- q-position: [    0.0937500,    0.0104167,    0.0104167 ]
  distance_from_gamma:  0.026039455
  weight: 24   
  band:
  - # 1
    frequency:     3.0459406958
  - # 2
    frequency:     3.0485805542
  - # 3
    frequency:     4.3530572518
  - # 4
    frequency:    22.5489330903
  - # 5
    frequency:    22.5603240439
  - # 6
    frequency:    23.1101758096
  - # 7
    frequency:    23.1101758096
  - # 8
    frequency:    23.2132406948
  - # 9
    frequency:    23.2132406948
  - # 10
    frequency:    28.8107585114
  - # 11
    frequency:    28.8107585114
  - # 12
    frequency:    28.8425499869
  - # 13
    frequency:    28.8425499869
  - # 14
    frequency:    29.1737395346
  - # 15
    frequency:    29.1781881090
  - # 16
    frequency:    32.1722755861
  - # 17
    frequency:    33.4668657262
  - # 18
    frequency:    33.4668657262
  - # 19
    frequency:    33.7785986570
  - # 20
    frequency:    33.7785986570
  - # 21
    frequency:    35.0034911866
  - # 22
    frequency:    36.3327621000
  - # 23
    frequency:    36.3335772370
  - # 24
    frequency:    36.4963840602

- q-position: [    0.1145833,    0.0104167,    0.0104167 ]
  distance_from_gamma:  0.031698988
  weight: 24   
  band:
  - # 1
    frequency:     3.7059856973
  - # 2
    frequency:     3.7073988764
  - # 3
    frequency:     5.2887190145
  - # 4
    frequency:    22.3502981610
  - # 5
    frequency:    22.3616007568
  - # 6
    frequency:    23.1895095229
  - # 7
    frequency:    23.1895095229
  - # 8
    frequency:    23.3145543497
  - # 9
    frequency:    23.3145543497
  - # 10
    frequency:    28.7915702406
  - # 11
    frequency:    28.7915702406
  - # 12
    frequency:    28.8304185007
  - # 13
    frequency:    28.8304185007
  - # 14
    frequency:    29.3195641827
  - # 15
    frequency:    29.3247891253
  - # 16
    frequency:    31.7721682137
  - # 17
    frequency:    33.4024896011
  - # 18
    frequency:    33.4024896011
  - # 19
    frequency:    33.7128168089
  - # 20
    frequency:    33.7128168089
  - # 21
    frequency:    35.2354654010
  - # 22
    frequency:    36.2759722750
  - # 23
    frequency:    36.2768054083
  - # 24
    frequency:    36.5185534988

- q-position: [    0.1354167,    0.0104167,    0.0104167 ]
  distance_from_gamma:  0.037375834
  weight: 24   
  band:
  - # 1
    frequency:     4.3649871673
  - # 2
    frequency:     4.3653938613
  - # 3
    frequency:     6.2228619658
  - # 4
    frequency:    22.1208636757
  - # 5
    frequency:    22.1320760830
  - # 6
    frequency:    23.2855417931
  - # 7
    frequency:    23.2855417931
  - # 8
    frequency:    23.4320461264
  - # 9
    frequency:    23.4320461264
  - # 10
    frequency:    28.7687794871
  - # 11
    frequency:    28.7687794871
  - # 12
    frequency:    28.8146471734
  - # 13
    frequency:    28.8146471734
  - # 14
    frequency:    29.4846921610
  - # 15
    frequency:    29.4913473941
  - # 16
    frequency:    31.3549364612
  - # 17
    frequency:    33.3270111600
  - # 18
    frequency:    33.3270111600
  - # 19
    frequency:    33.6354639196
  - # 20
    frequency:    33.6354639196
  - # 21
    frequency:    35.4517417085
  - # 22
    frequency:    36.2080715561
  - # 23
    frequency:    36.2089223118
  - # 24
    frequency:    36.5444919096

- q-position: [    0.1562500,    0.0104167,    0.0104167 ]
  distance_from_gamma:  0.043063147
  weight: 24   
  band:
  - # 1
    frequency:     5.0213090253
  - # 2
    frequency:     5.0217644844
  - # 3
    frequency:     7.1533953110
  - # 4
    frequency:    21.8636409547
  - # 5
    frequency:    21.8747632362
  - # 6
    frequency:    23.3974335487
  - # 7
    frequency:    23.3974335487
  - # 8
    frequency:    23.5648127914
  - # 9
    frequency:    23.5648127914
  - # 10
    frequency:    28.7421227360
  - # 11
    frequency:    28.7421227360
  - # 12
    frequency:    28.7949342937
  - # 13
    frequency:    28.7949342937
  - # 14
    frequency:    29.6648764643
  - # 15
    frequency:    29.6746252924
  - # 16
    frequency:    30.9214914994
  - # 17
    frequency:    33.2414192912
  - # 18
    frequency:    33.2414192912
  - # 19
    frequency:    33.5474242798
  - # 20
    frequency:    33.5474242798
  - # 21
    frequency:    35.6525959985
  - # 22
    frequency:    36.1291953016
  - # 23
    frequency:    36.1300643432
  - # 24
    frequency:    36.5738437887

- q-position: [    0.1770833,    0.0104167,    0.0104167 ]
  distance_from_gamma:  0.048757265
  weight: 24   
  band:
  - # 1
    frequency:     5.6742425038
  - # 2
    frequency:     5.6754603491
  - # 3
    frequency:     8.0788270479
  - # 4
    frequency:    21.5812769072
  - # 5
    frequency:    21.5923092915
  - # 6
    frequency:    23.5242027808
  - # 7
    frequency:    23.5242027808
  - # 8
    frequency:    23.7118235413
  - # 9
    frequency:    23.7118235413
  - # 10
    frequency:    28.7112883152
  - # 11
    frequency:    28.7112883152
  - # 12
    frequency:    28.7709122524
  - # 13
    frequency:    28.7709122524
  - # 14
    frequency:    29.8518509582
  - # 15
    frequency:    29.8717208903
  - # 16
    frequency:    30.4771167207
  - # 17
    frequency:    33.1468840872
  - # 18
    frequency:    33.1468840872
  - # 19
    frequency:    33.4497450032
  - # 20
    frequency:    33.4497450032
  - # 21
    frequency:    35.8383217899
  - # 22
    frequency:    36.0395018805
  - # 23
    frequency:    36.0403902351
  - # 24
    frequency:    36.6062036059

- q-position: [    0.1979167,    0.0104167,    0.0104167 ]
  distance_from_gamma:  0.054456052
  weight: 24   
  band:
  - # 1
    frequency:     6.3234634573
  - # 2
    frequency:     6.3253712209
  - # 3
    frequency:     8.9979645029
  - # 4
    frequency:    21.2760247072
  - # 5
    frequency:    21.2869663433
  - # 6
    frequency:    23.6647240456
  - # 7
    frequency:    23.6647240456
  - # 8
    frequency:    23.8719222650
  - # 9
    frequency:    23.8719222650
  - # 10
    frequency:    28.6759182029
  - # 11
    frequency:    28.6759182029
  - # 12
    frequency:    28.7421451578
  - # 13
    frequency:    28.7421451578
  - # 14
    frequency:    29.9129257293
  - # 15
    frequency:    30.0801010376
  - # 16
    frequency:    30.1519058783
  - # 17
    frequency:    33.0447617068
  - # 18
    frequency:    33.0447617068
  - # 19
    frequency:    33.3436417864
  - # 20
    frequency:    33.3436417864
  - # 21
    frequency:    35.9391728374
  - # 22
    frequency:    35.9400816246
  - # 23
    frequency:    36.0092307823
  - # 24
    frequency:    36.6411189864

- q-position: [    0.2187500,    0.0104167,    0.0104167 ]
  distance_from_gamma:  0.060158182
  weight: 24   
  band:
  - # 1
    frequency:     6.9683324659
  - # 2
    frequency:     6.9708750802
  - # 3
    frequency:     9.9097839956
  - # 4
    frequency:    20.9497630555
  - # 5
    frequency:    20.9606112464
  - # 6
    frequency:    23.8177250363
  - # 7
    frequency:    23.8177250363
  - # 8
    frequency:    24.0438273384
  - # 9
    frequency:    24.0438273384
  - # 10
    frequency:    28.6356142453
  - # 11
    frequency:    28.6356142453
  - # 12
    frequency:    28.7081303768
  - # 13
    frequency:    28.7081303768
  - # 14
    frequency:    29.4794081522
  - # 15
    frequency:    30.2975861500
  - # 16
    frequency:    30.3123272518
  - # 17
    frequency:    32.9365970109
  - # 18
    frequency:    32.9365970109
  - # 19
    frequency:    33.2305039273
  - # 20
    frequency:    33.2305039273
  - # 21
    frequency:    35.8284130494
  - # 22
    frequency:    35.8293433668
  - # 23
    frequency:    36.1656534820
  - # 24
    frequency:    36.6780944612

- q-position: [    0.2395833,    0.0104167,    0.0104167 ]
  distance_from_gamma:  0.065862786
  weight: 24   
  band:
  - # 1
    frequency:     7.6082633672
  - # 2
    frequency:     7.6113972322
  - # 3
    frequency:    10.8133684509
  - # 4
    frequency:    20.6040399933
  - # 5
    frequency:    20.6147898222
  - # 6
    frequency:    23.9817786620
  - # 7
    frequency:    23.9817786620
  - # 8
    frequency:    24.2261276449
  - # 9
    frequency:    24.2261276449
  - # 10
    frequency:    28.5899516231
  - # 11
    frequency:    28.5899516231
  - # 12
    frequency:    28.6683068942
  - # 13
    frequency:    28.6683068942
  - # 14
    frequency:    28.9775898489
  - # 15
    frequency:    30.5223106423
  - # 16
    frequency:    30.5301977121
  - # 17
    frequency:    32.8241218751
  - # 18
    frequency:    32.8241218751
  - # 19
    frequency:    33.1118974216
  - # 20
    frequency:    33.1118974216
  - # 21
    frequency:    35.7074508689
  - # 22
    frequency:    35.7084037492
  - # 23
    frequency:    36.3079398617
  - # 24
    frequency:    36.7165955614

- q-position: [    0.2604167,    0.0104167,    0.0104167 ]
  distance_from_gamma:  0.071569273
  weight: 24   
  band:
  - # 1
    frequency:     8.2427035752
  - # 2
    frequency:     8.2463928511
  - # 3
    frequency:    11.7078753803
  - # 4
    frequency:    20.2401253607
  - # 5
    frequency:    20.2507695991
  - # 6
    frequency:    24.1552884801
  - # 7
    frequency:    24.1552884801
  - # 8
    frequency:    24.4172729804
  - # 9
    frequency:    24.4172729804
  - # 10
    frequency:    28.4533323575
  - # 11
    frequency:    28.5385035745
  - # 12
    frequency:    28.5385035745
  - # 13
    frequency:    28.6220745834
  - # 14
    frequency:    28.6220745834
  - # 15
    frequency:    30.7526748385
  - # 16
    frequency:    30.7580497158
  - # 17
    frequency:    32.7092463618
  - # 18
    frequency:    32.7092463618
  - # 19
    frequency:    32.9895645107
  - # 20
    frequency:    32.9895645107
  - # 21
    frequency:    35.5765382383
  - # 22
    frequency:    35.5775146474
  - # 23
    frequency:    36.4364600185
  - # 24
    frequency:    36.7560531378

- q-position: [    0.2812500,    0.0104167,    0.0104167 ]
  distance_from_gamma:  0.077277226
  weight: 24   
  band:
  - # 1
    frequency:     8.8711233974
  - # 2
    frequency:     8.8753376011
  - # 3
    frequency:    12.5925195988
  - # 4
    frequency:    19.8590627675
  - # 5
    frequency:    19.8695919694
  - # 6
    frequency:    24.3364644054
  - # 7
    frequency:    24.3364644054
  - # 8
    frequency:    24.6155560881
  - # 9
    frequency:    24.6155560881
  - # 10
    frequency:    27.9097673314
  - # 11
    frequency:    28.4808828738
  - # 12
    frequency:    28.4808828738
  - # 13
    frequency:    28.5688299757
  - # 14
    frequency:    28.5688299757
  - # 15
    frequency:    30.9872974094
  - # 16
    frequency:    30.9913844412
  - # 17
    frequency:    32.5940392769
  - # 18
    frequency:    32.5940392769
  - # 19
    frequency:    32.8654176374
  - # 20
    frequency:    32.8654176374
  - # 21
    frequency:    35.4359507694
  - # 22
    frequency:    35.4369516317
  - # 23
    frequency:    36.5516048020
  - # 24
    frequency:    36.7958678231

- q-position: [    0.3020833,    0.0104167,    0.0104167 ]
  distance_from_gamma:  0.082986343
  weight: 24   
  band:
  - # 1
    frequency:     9.4930100570
  - # 2
    frequency:     9.4977224527
  - # 3
    frequency:    13.4665635616
  - # 4
    frequency:    19.4617165877
  - # 5
    frequency:    19.4721192938
  - # 6
    frequency:    24.5232841681
  - # 7
    frequency:    24.5232841681
  - # 8
    frequency:    24.8190819798
  - # 9
    frequency:    24.8190819798
  - # 10
    frequency:    27.3476435571
  - # 11
    frequency:    28.4168073945
  - # 12
    frequency:    28.4168073945
  - # 13
    frequency:    28.5080259314
  - # 14
    frequency:    28.5080259314
  - # 15
    frequency:    31.2249727543
  - # 16
    frequency:    31.2282831607
  - # 17
    frequency:    32.4806943468
  - # 18
    frequency:    32.4806943468
  - # 19
    frequency:    32.7415255416
  - # 20
    frequency:    32.7415255416
  - # 21
    frequency:    35.2859877785
  - # 22
    frequency:    35.2870140232
  - # 23
    frequency:    36.6537863840
  - # 24
    frequency:    36.8354145640

- q-position: [    0.3229167,    0.0104167,    0.0104167 ]
  distance_from_gamma:  0.088696398
  weight: 24   
  band:
  - # 1
    frequency:    10.1078643185
  - # 2
    frequency:    10.1130508093
  - # 3
    frequency:    14.3293118369
  - # 4
    frequency:    19.0488122846
  - # 5
    frequency:    19.0590752823
  - # 6
    frequency:    24.7134337511
  - # 7
    frequency:    24.7134337511
  - # 8
    frequency:    25.0257173899
  - # 9
    frequency:    25.0257173899
  - # 10
    frequency:    26.7672694333
  - # 11
    frequency:    28.3461992315
  - # 12
    frequency:    28.3461992315
  - # 13
    frequency:    28.4392649218
  - # 14
    frequency:    28.4392649218
  - # 15
    frequency:    31.4646349510
  - # 16
    frequency:    31.4674297993
  - # 17
    frequency:    32.3714786974
  - # 18
    frequency:    32.3714786974
  - # 19
    frequency:    32.6200894758
  - # 20
    frequency:    32.6200894758
  - # 21
    frequency:    35.1269722690
  - # 22
    frequency:    35.1280248956
  - # 23
    frequency:    36.7434387427
  - # 24
    frequency:    36.8740471588

- q-position: [    0.3437500,    0.0104167,    0.0104167 ]
  distance_from_gamma:  0.094407221
  weight: 24   
  band:
  - # 1
    frequency:    10.7151986196
  - # 2
    frequency:    10.7208369668
  - # 3
    frequency:    15.1801079027
  - # 4
    frequency:    18.6209698905
  - # 5
    frequency:    18.6310784938
  - # 6
    frequency:    24.9042167293
  - # 7
    frequency:    24.9042167293
  - # 8
    frequency:    25.2330082255
  - # 9
    frequency:    25.2330082255
  - # 10
    frequency:    26.1688369523
  - # 11
    frequency:    28.2693292694
  - # 12
    frequency:    28.2693292694
  - # 13
    frequency:    28.3624389977
  - # 14
    frequency:    28.3624389977
  - # 15
    frequency:    31.7053283901
  - # 16
    frequency:    31.7077587201
  - # 17
    frequency:    32.2686618584
  - # 18
    frequency:    32.2686618584
  - # 19
    frequency:    32.5034085572
  - # 20
    frequency:    32.5034085572
  - # 21
    frequency:    34.9592508593
  - # 22
    frequency:    34.9603310211
  - # 23
    frequency:    36.8210180346
  - # 24
    frequency:    36.9111027417

- q-position: [    0.3645833,    0.0104167,    0.0104167 ]
  distance_from_gamma:  0.100118681
  weight: 24   
  band:
  - # 1
    frequency:    11.3145360975
  - # 2
    frequency:    11.3206053592
  - # 3
    frequency:    16.0183322755
  - # 4
    frequency:    18.1787311896
  - # 5
    frequency:    18.1886695146
  - # 6
    frequency:    25.0924181932
  - # 7
    frequency:    25.0924181932
  - # 8
    frequency:    25.4380441597
  - # 9
    frequency:    25.4380441597
  - # 10
    frequency:    25.5525088064
  - # 11
    frequency:    28.1870214631
  - # 12
    frequency:    28.1870214631
  - # 13
    frequency:    28.2779353623
  - # 14
    frequency:    28.2779353623
  - # 15
    frequency:    31.9461844954
  - # 16
    frequency:    31.9483454903
  - # 17
    frequency:    32.1744262307
  - # 18
    frequency:    32.1744262307
  - # 19
    frequency:    32.3938353744
  - # 20
    frequency:    32.3938353744
  - # 21
    frequency:    34.7831936540
  - # 22
    frequency:    34.7843027616
  - # 23
    frequency:    36.8870028276
  - # 24
    frequency:    36.9459061602

- q-position: [    0.3854167,    0.0104167,    0.0104167 ]
  distance_from_gamma:  0.105830675
  weight: 24   
  band:
  - # 1
    frequency:    11.9054101456
  - # 2
    frequency:    11.9118902676
  - # 3
    frequency:    16.8434014051
  - # 4
    frequency:    17.7225814313
  - # 5
    frequency:    17.7323326539
  - # 6
    frequency:    24.9184492163
  - # 7
    frequency:    25.2741055780
  - # 8
    frequency:    25.2741055780
  - # 9
    frequency:    25.6372350937
  - # 10
    frequency:    25.6372350937
  - # 11
    frequency:    28.1009318782
  - # 12
    frequency:    28.1009318782
  - # 13
    frequency:    28.1869370470
  - # 14
    frequency:    28.1869370470
  - # 15
    frequency:    32.0907633817
  - # 16
    frequency:    32.0907633817
  - # 17
    frequency:    32.1864036564
  - # 18
    frequency:    32.1883591346
  - # 19
    frequency:    32.2937260076
  - # 20
    frequency:    32.2937260076
  - # 21
    frequency:    34.5991940641
  - # 22
    frequency:    34.6003339089
  - # 23
    frequency:    36.9418941703
  - # 24
    frequency:    36.9777741971

- q-position: [    0.4062500,    0.0104167,    0.0104167 ]
  distance_from_gamma:  0.111543120
  weight: 24   
  band:
  - # 1
    frequency:    12.4873642629
  - # 2
    frequency:    12.4942357790
  - # 3
    frequency:    17.2529664510
  - # 4
    frequency:    17.2625130376
  - # 5
    frequency:    17.6547669977
  - # 6
    frequency:    24.2668371874
  - # 7
    frequency:    25.4443538686
  - # 8
    frequency:    25.4443538686
  - # 9
    frequency:    25.8259443824
  - # 10
    frequency:    25.8259443824
  - # 11
    frequency:    28.0139100969
  - # 12
    frequency:    28.0139100969
  - # 13
    frequency:    28.0918640592
  - # 14
    frequency:    28.0918640592
  - # 15
    frequency:    32.0193638646
  - # 16
    frequency:    32.0193638646
  - # 17
    frequency:    32.2053915804
  - # 18
    frequency:    32.2053915804
  - # 19
    frequency:    32.4252414692
  - # 20
    frequency:    32.4270362405
  - # 21
    frequency:    34.4076685874
  - # 22
    frequency:    34.4088414889
  - # 23
    frequency:    36.9862154710
  - # 24
    frequency:    37.0060195958

- q-position: [    0.4270833,    0.0104167,    0.0104167 ]
  distance_from_gamma:  0.117255952
  weight: 24   
  band:
  - # 1
    frequency:    13.0599520306
  - # 2
    frequency:    13.0671958422
  - # 3
    frequency:    16.7703060107
  - # 4
    frequency:    16.7796299179
  - # 5
    frequency:    18.4519155619
  - # 6
    frequency:    23.5978731794
  - # 7
    frequency:    25.5969196450
  - # 8
    frequency:    25.5969196450
  - # 9
    frequency:    25.9979146217
  - # 10
    frequency:    25.9979146217
  - # 11
    frequency:    27.9304130175
  - # 12
    frequency:    27.9304130175
  - # 13
    frequency:    27.9970067325
  - # 14
    frequency:    27.9970067325
  - # 15
    frequency:    31.9615117089
  - # 16
    frequency:    31.9615117089
  - # 17
    frequency:    32.1310583537
  - # 18
    frequency:    32.1310583537
  - # 19
    frequency:    32.6619984432
  - # 20
    frequency:    32.6636650778
  - # 21
    frequency:    34.2090565685
  - # 22
    frequency:    34.2102655505
  - # 23
    frequency:    37.0205121642
  - # 24
    frequency:    37.0299548540

- q-position: [    0.4479167,    0.0104167,    0.0104167 ]
  distance_from_gamma:  0.122969115
  weight: 24   
  band:
  - # 1
    frequency:    13.6227370768
  - # 2
    frequency:    13.6303342951
  - # 3
    frequency:    16.2750040732
  - # 4
    frequency:    16.2840869147
  - # 5
    frequency:    19.2343680464
  - # 6
    frequency:    22.9117829404
  - # 7
    frequency:    25.7240107579
  - # 8
    frequency:    25.7240107579
  - # 9
    frequency:    26.1445051837
  - # 10
    frequency:    26.1445051837
  - # 11
    frequency:    27.8568170036
  - # 12
    frequency:    27.8568170036
  - # 13
    frequency:    27.9093233501
  - # 14
    frequency:    27.9093233501
  - # 15
    frequency:    31.9180025709
  - # 16
    frequency:    31.9180025709
  - # 17
    frequency:    32.0728335505
  - # 18
    frequency:    32.0728335505
  - # 19
    frequency:    32.8960124497
  - # 20
    frequency:    32.8975752338
  - # 21
    frequency:    34.0038199709
  - # 22
    frequency:    34.0050689732
  - # 23
    frequency:    37.0453511408
  - # 24
    frequency:    37.0488957557

- q-position: [    0.4687500,    0.0104167,    0.0104167 ]
  distance_from_gamma:  0.128682566
  weight: 24   
  band:
  - # 1
    frequency:    14.1752929100
  - # 2
    frequency:    14.1832247472
  - # 3
    frequency:    15.7674566087
  - # 4
    frequency:    15.7762797889
  - # 5
    frequency:    20.0016794854
  - # 6
    frequency:    22.2088199741
  - # 7
    frequency:    25.8165664913
  - # 8
    frequency:    25.8165664913
  - # 9
    frequency:    26.2541933162
  - # 10
    frequency:    26.2541933162
  - # 11
    frequency:    27.8011623789
  - # 12
    frequency:    27.8011623789
  - # 13
    frequency:    27.8389929327
  - # 14
    frequency:    27.8389929327
  - # 15
    frequency:    31.8891263107
  - # 16
    frequency:    31.8891263107
  - # 17
    frequency:    32.0326447594
  - # 18
    frequency:    32.0326447594
  - # 19
    frequency:    33.1266533042
  - # 20
    frequency:    33.1281306794
  - # 21
    frequency:    33.7924432072
  - # 22
    frequency:    33.7937373433
  - # 23
    frequency:    37.0613199223
  - # 24
    frequency:    37.0621646197

- q-position: [    0.4895833,    0.0104167,    0.0104167 ]
  distance_from_gamma:  0.134396268
  weight: 24   
  band:
  - # 1
    frequency:    14.7172024948
  - # 2
    frequency:    14.7254501962
  - # 3
    frequency:    15.2480574348
  - # 4
    frequency:    15.2566022487
  - # 5
    frequency:    20.7534385936
  - # 6
    frequency:    21.4892672699
  - # 7
    frequency:    25.8657314506
  - # 8
    frequency:    25.8657314506
  - # 9
    frequency:    26.3138724909
  - # 10
    frequency:    26.3138724909
  - # 11
    frequency:    27.7713133759
  - # 12
    frequency:    27.7713133759
  - # 13
    frequency:    27.7985251204
  - # 14
    frequency:    27.7985251204
  - # 15
    frequency:    31.8747856865
  - # 16
    frequency:    31.8747856865
  - # 17
    frequency:    32.0120794199
  - # 18
    frequency:    32.0120794199
  - # 19
    frequency:    33.3533189849
  - # 20
    frequency:    33.3547251260
  - # 21
    frequency:    33.5754330887
  - # 22
    frequency:    33.5767789683
  - # 23
    frequency:    37.0690255608
  - # 24
    frequency:    37.0690932475

- q-position: [    0.0312500,    0.0312500,    0.0104167 ]
  distance_from_gamma:  0.012458611
  weight: 24   
  band:
  - # 1
    frequency:     1.4214813792
  - # 2
    frequency:     1.4567667669
  - # 3
    frequency:     2.1167668792
  - # 4
    frequency:    22.9344970187
  - # 5
    frequency:    22.9344970187
  - # 6
    frequency:    22.9623558853
  - # 7
    frequency:    22.9692636549
  - # 8
    frequency:    22.9692636549
  - # 9
    frequency:    23.0666430419
  - # 10
    frequency:    28.8351241822
  - # 11
    frequency:    28.8668768098
  - # 12
    frequency:    28.8821685552
  - # 13
    frequency:    28.8821685552
  - # 14
    frequency:    28.8929723403
  - # 15
    frequency:    28.8929723403
  - # 16
    frequency:    33.2567481857
  - # 17
    frequency:    33.2567481857
  - # 18
    frequency:    33.5692092724
  - # 19
    frequency:    33.8896899615
  - # 20
    frequency:    34.1960102415
  - # 21
    frequency:    34.1960102415
  - # 22
    frequency:    36.4243008603
  - # 23
    frequency:    36.4284614810
  - # 24
    frequency:    36.4559423268

- q-position: [    0.0520833,    0.0312500,    0.0104167 ]
  distance_from_gamma:  0.016909348
  weight: 48   
  band:
  - # 1
    frequency:     1.9385483890
  - # 2
    frequency:     1.9806828538
  - # 3
    frequency:     2.8604672295
  - # 4
    frequency:    22.8476238599
  - # 5
    frequency:    22.8822872578
  - # 6
    frequency:    22.9599971600
  - # 7
    frequency:    22.9647411297
  - # 8
    frequency:    23.0178734880
  - # 9
    frequency:    23.1379878906
  - # 10
    frequency:    28.8186328486
  - # 11
    frequency:    28.8715464432
  - # 12
    frequency:    28.8722959571
  - # 13
    frequency:    28.8904035462
  - # 14
    frequency:    28.9478115237
  - # 15
    frequency:    28.9591244446
  - # 16
    frequency:    32.9103621598
  - # 17
    frequency:    33.2331701933
  - # 18
    frequency:    33.5358320200
  - # 19
    frequency:    33.8689747567
  - # 20
    frequency:    34.1663948154
  - # 21
    frequency:    34.4758172221
  - # 22
    frequency:    36.4016198818
  - # 23
    frequency:    36.4077065092
  - # 24
    frequency:    36.4630145848

- q-position: [    0.0729167,    0.0312500,    0.0104167 ]
  distance_from_gamma:  0.021954262
  weight: 48   
  band: