       N       E                     dE             d eps       ncg     rms          rms(c)
DAV:   1     0.498781247494E+03    0.49878E+03   -0.11263E+05 13440   0.105E+03
DAV:   2    -0.553927224933E+03   -0.10527E+04   -0.10026E+04 17888   0.227E+02
DAV:   3    -0.596273248512E+03   -0.42346E+02   -0.42088E+02 17920   0.428E+01
DAV:   4    -0.596774727135E+03   -0.50148E+00   -0.50056E+00 18176   0.508E+00
DAV:   5    -0.596784246363E+03   -0.95192E-02   -0.95150E-02 16896   0.664E-01    0.248E+01
DAV:   6    -0.584428845149E+03    0.12355E+02   -0.82868E+00 15776   0.567E+00    0.138E+01
DAV:   7    -0.580248884205E+03    0.41800E+01   -0.96540E+00 16384   0.631E+00    0.190E+00
DAV:   8    -0.580302644969E+03   -0.53761E-01   -0.22219E-01 16864   0.932E-01    0.205E-01
DAV:   9    -0.580304830756E+03   -0.21858E-02   -0.36550E-03 17472   0.143E-01    0.772E-02
DAV:  10    -0.580305304361E+03   -0.47360E-03   -0.44628E-04 16352   0.549E-02    0.783E-03
DAV:  11    -0.580305308104E+03   -0.37431E-05   -0.11774E-05 17632   0.777E-03    0.208E-03
DAV:  12    -0.580305308424E+03   -0.32031E-06   -0.54355E-07 17152   0.176E-03    0.170E-04
DAV:  13    -0.580305308538E+03   -0.11363E-06   -0.78373E-09 13280   0.219E-04    0.452E-05
DAV:  14    -0.580305308551E+03   -0.12495E-07   -0.11660E-09 11712   0.793E-05    0.162E-05
DAV:  15    -0.580305308550E+03    0.10259E-08   -0.28937E-10 10656   0.385E-05
   1 F= -.58030531E+03 E0= -.58030531E+03  d E =-.572565E-11
 Linear response reoptimize wavefunctions
DAV:   1    -0.580305308551E+03   -0.10996E-08   -0.64939E-11 10048   0.190E-05
DAV:   2    -0.580305308551E+03   -0.60936E-10   -0.16820E-11  9952   0.992E-06
 Linear response DOF=           1
 Linear response progress:
  Degree of freedom:   1/  1
       N       E                     dE             d eps       ncg     rms          rms(c)
RMM:   1    -0.141579829344E+00   -0.14158E+00    0.71986E-03112441   0.716E-01
RMM:   2    -0.121632288081E+00    0.19948E-01   -0.70954E-03 68558   0.185E-01    0.165E-01
RMM:   3    -0.121537927681E+00    0.94360E-04   -0.74280E-04 72157   0.457E-02    0.849E-02
RMM:   4    -0.121756634513E+00   -0.21871E-03   -0.20043E-04 72526   0.247E-02    0.262E-02
RMM:   5    -0.121824163318E+00   -0.67529E-04   -0.13894E-05 73299   0.708E-03    0.630E-03
RMM:   6    -0.121806710491E+00    0.17453E-04   -0.99064E-07 74562   0.190E-03    0.133E-03
RMM:   7    -0.121798239557E+00    0.84709E-05   -0.29871E-07 75554   0.634E-04    0.367E-04
RMM:   8    -0.121797799180E+00    0.44038E-06   -0.27643E-07 77901   0.285E-04    0.873E-05
RMM:   9    -0.121797549766E+00    0.24941E-06   -0.13205E-07 80616   0.196E-04    0.382E-05
RMM:  10    -0.121797637647E+00   -0.87881E-07   -0.14094E-07 83644   0.187E-04    0.118E-05
RMM:  11    -0.121797642074E+00   -0.44270E-08   -0.13773E-07 84221   0.184E-04    0.512E-06
 Linear response finished
