# Thermal properties / unit cell (natom)

unit:
  temperature:   K
  free_energy:   kJ/mol
  entropy:       J/K/mol
  heat_capacity: J/K/mol

natom: 8    
cutoff_frequency:    0.000
num_modes: 2654208
num_integrated_modes: 2654208

zero_point_energy:     130.2037965
high_T_entropy:        445.0702012

thermal_properties:
- temperature:         0.0000000
  free_energy:       130.2037965
  entropy:             0.0000000
  heat_capacity:       0.0000000
  energy:            130.2037965

- temperature:         2.0000000
  free_energy:       130.2037965
  entropy:             0.0000000
  heat_capacity:       0.0000000
  energy:            130.2037965

- temperature:         4.0000000
  free_energy:       130.2037965
  entropy:             0.0000105
  heat_capacity:       0.0000639
  energy:            130.2037966

- temperature:         6.0000000
  free_energy:       130.2037965
  entropy:             0.0000819
  heat_capacity:       0.0003475
  energy:            130.2037970

- temperature:         8.0000000
  free_energy:       130.2037962
  entropy:             0.0002493
  heat_capacity:       0.0008900
  energy:            130.2037981

- temperature:        10.0000000
  free_energy:       130.2037954
  entropy:             0.0005347
  heat_capacity:       0.0017627
  energy:            130.2038007

- temperature:        12.0000000
  free_energy:       130.2037939
  entropy:             0.0009633
  heat_capacity:       0.0030559
  energy:            130.2038055

- temperature:        14.0000000
  free_energy:       130.2037914
  entropy:             0.0015627
  heat_capacity:       0.0048602
  energy:            130.2038133

- temperature:        16.0000000
  free_energy:       130.2037875
  entropy:             0.0023615
  heat_capacity:       0.0072647
  energy:            130.2038253

- temperature:        18.0000000
  free_energy:       130.2037818
  entropy:             0.0033886
  heat_capacity:       0.0103591
  energy:            130.2038428

- temperature:        20.0000000
  free_energy:       130.2037738
  entropy:             0.0046733
  heat_capacity:       0.0142335
  energy:            130.2038673

- temperature:        22.0000000
  free_energy:       130.2037629
  entropy:             0.0062452
  heat_capacity:       0.0189797
  energy:            130.2039003

- temperature:        24.0000000
  free_energy:       130.2037486
  entropy:             0.0081342
  heat_capacity:       0.0246910
  energy:            130.2039438

- temperature:        26.0000000
  free_energy:       130.2037302
  entropy:             0.0103705
  heat_capacity:       0.0314627
  energy:            130.2039998

- temperature:        28.0000000
  free_energy:       130.2037069
  entropy:             0.0129849
  heat_capacity:       0.0393922
  energy:            130.2040705

- temperature:        30.0000000
  free_energy:       130.2036780
  entropy:             0.0160085
  heat_capacity:       0.0485797
  energy:            130.2041582

- temperature:        32.0000000
  free_energy:       130.2036426
  entropy:             0.0194729
  heat_capacity:       0.0591279
  energy:            130.2042657

- temperature:        34.0000000
  free_energy:       130.2035998
  entropy:             0.0234103
  heat_capacity:       0.0711431
  energy:            130.2043957

- temperature:        36.0000000
  free_energy:       130.2035486
  entropy:             0.0278537
  heat_capacity:       0.0847354
  energy:            130.2045513

- temperature:        38.0000000
  free_energy:       130.2034880
  entropy:             0.0328367
  heat_capacity:       0.1000192
  energy:            130.2047358

- temperature:        40.0000000
  free_energy:       130.2034168
  entropy:             0.0383937
  heat_capacity:       0.1171140
  energy:            130.2049526

- temperature:        42.0000000
  free_energy:       130.2033340
  entropy:             0.0445600
  heat_capacity:       0.1361453
  energy:            130.2052055

- temperature:        44.0000000
  free_energy:       130.2032382
  entropy:             0.0513722
  heat_capacity:       0.1572454
  energy:            130.2054986

- temperature:        46.0000000
  free_energy:       130.2031281
  entropy:             0.0588678
  heat_capacity:       0.1805542
  energy:            130.2058360

- temperature:        48.0000000
  free_energy:       130.2030022
  entropy:             0.0670858
  heat_capacity:       0.2062205
  energy:            130.2062223

- temperature:        50.0000000
  free_energy:       130.2028592
  entropy:             0.0760666
  heat_capacity:       0.2344026
  energy:            130.2066625

- temperature:        52.0000000
  free_energy:       130.2026974
  entropy:             0.0858523
  heat_capacity:       0.2652688
  energy:            130.2071617

- temperature:        54.0000000
  free_energy:       130.2025152
  entropy:             0.0964869
  heat_capacity:       0.2989988
  energy:            130.2077255

- temperature:        56.0000000
  free_energy:       130.2023109
  entropy:             0.1080160
  heat_capacity:       0.3357832
  energy:            130.2083598

- temperature:        58.0000000
  free_energy:       130.2020825
  entropy:             0.1204877
  heat_capacity:       0.3758245
  energy:            130.2090708

- temperature:        60.0000000
  free_energy:       130.2018283
  entropy:             0.1339520
  heat_capacity:       0.4193362
  energy:            130.2098654

- temperature:        62.0000000
  free_energy:       130.2015460
  entropy:             0.1484613
  heat_capacity:       0.4665426
  energy:            130.2107506

- temperature:        64.0000000
  free_energy:       130.2012337
  entropy:             0.1640701
  heat_capacity:       0.5176786
  energy:            130.2117342

- temperature:        66.0000000
  free_energy:       130.2008890
  entropy:             0.1808356
  heat_capacity:       0.5729879
  energy:            130.2128241

- temperature:        68.0000000
  free_energy:       130.2005095
  entropy:             0.1988168
  heat_capacity:       0.6327227
  energy:            130.2140291

- temperature:        70.0000000
  free_energy:       130.2000929
  entropy:             0.2180754
  heat_capacity:       0.6971417
  energy:            130.2153581

- temperature:        72.0000000
  free_energy:       130.1996363
  entropy:             0.2386751
  heat_capacity:       0.7665090
  energy:            130.2168209

- temperature:        74.0000000
  free_energy:       130.1991372
  entropy:             0.2606815
  heat_capacity:       0.8410923
  energy:            130.2184277

- temperature:        76.0000000
  free_energy:       130.1985926
  entropy:             0.2841624
  heat_capacity:       0.9211613
  energy:            130.2201890

- temperature:        78.0000000
  free_energy:       130.1979995
  entropy:             0.3091871
  heat_capacity:       1.0069862
  energy:            130.2221161

- temperature:        80.0000000
  free_energy:       130.1973548
  entropy:             0.3358266
  heat_capacity:       1.0988360
  energy:            130.2242209

- temperature:        82.0000000
  free_energy:       130.1966551
  entropy:             0.3641532
  heat_capacity:       1.1969769
  energy:            130.2265157

- temperature:        84.0000000
  free_energy:       130.1958970
  entropy:             0.3942403
  heat_capacity:       1.3016707
  energy:            130.2290132

- temperature:        86.0000000
  free_energy:       130.1950769
  entropy:             0.4261624
  heat_capacity:       1.4131738
  energy:            130.2317269

- temperature:        88.0000000
  free_energy:       130.1941911
  entropy:             0.4599945
  heat_capacity:       1.5317355
  energy:            130.2346706

- temperature:        90.0000000
  free_energy:       130.1932356
  entropy:             0.4958120
  heat_capacity:       1.6575974
  energy:            130.2378587

- temperature:        92.0000000
  free_energy:       130.1922065
  entropy:             0.5336907
  heat_capacity:       1.7909919
  energy:            130.2413060

- temperature:        94.0000000
  free_energy:       130.1910994
  entropy:             0.5737064
  heat_capacity:       1.9321417
  energy:            130.2450278

- temperature:        96.0000000
  free_energy:       130.1899102
  entropy:             0.6159346
  heat_capacity:       2.0812589
  energy:            130.2490399

- temperature:        98.0000000
  free_energy:       130.1886342
  entropy:             0.6604505
  heat_capacity:       2.2385448
  energy:            130.2533583

- temperature:       100.0000000
  free_energy:       130.1872668
  entropy:             0.7073285
  heat_capacity:       2.4041891
  energy:            130.2579996

- temperature:       102.0000000
  free_energy:       130.1858032
  entropy:             0.7566425
  heat_capacity:       2.5783695
  energy:            130.2629808

- temperature:       104.0000000
  free_energy:       130.1842386
  entropy:             0.8084652
  heat_capacity:       2.7612519
  energy:            130.2683189

- temperature:       106.0000000
  free_energy:       130.1825677
  entropy:             0.8628682
  heat_capacity:       2.9529901
  energy:            130.2740317

- temperature:       108.0000000
  free_energy:       130.1807853
  entropy:             0.9199220
  heat_capacity:       3.1537257
  energy:            130.2801369

- temperature:       110.0000000
  free_energy:       130.1788862
  entropy:             0.9796956
  heat_capacity:       3.3635881
  energy:            130.2866527

- temperature:       112.0000000
  free_energy:       130.1768647
  entropy:             1.0422565
  heat_capacity:       3.5826947
  energy:            130.2935974

- temperature:       114.0000000
  free_energy:       130.1747152
  entropy:             1.1076707
  heat_capacity:       3.8111510
  energy:            130.3009897

- temperature:       116.0000000
  free_energy:       130.1724320
  entropy:             1.1760022
  heat_capacity:       4.0490511
  energy:            130.3088483

- temperature:       118.0000000
  free_energy:       130.1700092
  entropy:             1.2473136
  heat_capacity:       4.2964774
  energy:            130.3171922

- temperature:       120.0000000
  free_energy:       130.1674408
  entropy:             1.3216654
  heat_capacity:       4.5535012
  energy:            130.3260406

- temperature:       122.0000000
  free_energy:       130.1647205
  entropy:             1.3991162
  heat_capacity:       4.8201830
  energy:            130.3354127

- temperature:       124.0000000
  free_energy:       130.1618422
  entropy:             1.4797228
  heat_capacity:       5.0965726
  energy:            130.3453278

- temperature:       126.0000000
  free_energy:       130.1587995
  entropy:             1.5635397
  heat_capacity:       5.3827096
  energy:            130.3558055

- temperature:       128.0000000
  free_energy:       130.1555859
  entropy:             1.6506196
  heat_capacity:       5.6786234
  energy:            130.3668652

- temperature:       130.0000000
  free_energy:       130.1521948
  entropy:             1.7410132
  heat_capacity:       5.9843339
  energy:            130.3785265

- temperature:       132.0000000
  free_energy:       130.1486196
  entropy:             1.8347688
  heat_capacity:       6.2998518
  energy:            130.3908090

- temperature:       134.0000000
  free_energy:       130.1448534
  entropy:             1.9319329
  heat_capacity:       6.6251782
  energy:            130.4037324

- temperature:       136.0000000
  free_energy:       130.1408895
  entropy:             2.0325497
  heat_capacity:       6.9603059
  energy:            130.4173163

- temperature:       138.0000000
  free_energy:       130.1367209
  entropy:             2.1366615
  heat_capacity:       7.3052188
  energy:            130.4315802

- temperature:       140.0000000
  free_energy:       130.1323405
  entropy:             2.2443082
  heat_capacity:       7.6598930
  energy:            130.4465437

- temperature:       142.0000000
  free_energy:       130.1277413
  entropy:             2.3555278
  heat_capacity:       8.0242963
  energy:            130.4622262

- temperature:       144.0000000
  free_energy:       130.1229160
  entropy:             2.4703563
  heat_capacity:       8.3983889
  energy:            130.4786473

- temperature:       146.0000000
  free_energy:       130.1178574
  entropy:             2.5888273
  heat_capacity:       8.7821237
  energy:            130.4958262

- temperature:       148.0000000
  free_energy:       130.1125583
  entropy:             2.7109727
  heat_capacity:       9.1754461
  energy:            130.5137822

- temperature:       150.0000000
  free_energy:       130.1070111
  entropy:             2.8368219
  heat_capacity:       9.5782949
  energy:            130.5325344

- temperature:       152.0000000
  free_energy:       130.1012085
  entropy:             2.9664027
  heat_capacity:       9.9906021
  energy:            130.5521017

- temperature:       154.0000000
  free_energy:       130.0951430
  entropy:             3.0997407
  heat_capacity:      10.4122931
  energy:            130.5725030

- temperature:       156.0000000
  free_energy:       130.0888070
  entropy:             3.2368594
  heat_capacity:      10.8432872
  energy:            130.5937571

- temperature:       158.0000000
  free_energy:       130.0821930
  entropy:             3.3777806
  heat_capacity:      11.2834976
  energy:            130.6158823

- temperature:       160.0000000
  free_energy:       130.0752933
  entropy:             3.5225238
  heat_capacity:      11.7328316
  energy:            130.6388971

- temperature:       162.0000000
  free_energy:       130.0681003
  entropy:             3.6711070
  heat_capacity:      12.1911913
  energy:            130.6628197

- temperature:       164.0000000
  free_energy:       130.0606063
  entropy:             3.8235459
  heat_capacity:      12.6584729
  energy:            130.6876679

- temperature:       166.0000000
  free_energy:       130.0528036
  entropy:             3.9798546
  heat_capacity:      13.1345680
  energy:            130.7134594

- temperature:       168.0000000
  free_energy:       130.0446843
  entropy:             4.1400453
  heat_capacity:      13.6193627
  energy:            130.7402119

- temperature:       170.0000000
  free_energy:       130.0362408
  entropy:             4.3041283
  heat_capacity:      14.1127388
  energy:            130.7679426

- temperature:       172.0000000
  free_energy:       130.0274652
  entropy:             4.4721123
  heat_capacity:      14.6145735
  energy:            130.7966685

- temperature:       174.0000000
  free_energy:       130.0183497
  entropy:             4.6440041
  heat_capacity:      15.1247394
  energy:            130.8264065

- temperature:       176.0000000
  free_energy:       130.0088866
  entropy:             4.8198089
  heat_capacity:      15.6431054
  energy:            130.8571729

- temperature:       178.0000000
  free_energy:       129.9990679
  entropy:             4.9995301
  heat_capacity:      16.1695363
  energy:            130.8889843

- temperature:       180.0000000
  free_energy:       129.9888858
  entropy:             5.1831696
  heat_capacity:      16.7038932
  energy:            130.9218564

- temperature:       182.0000000
  free_energy:       129.9783326
  entropy:             5.3707275
  heat_capacity:      17.2460337
  energy:            130.9558050

- temperature:       184.0000000
  free_energy:       129.9674003
  entropy:             5.5622026
  heat_capacity:      17.7958124
  energy:            130.9908456

- temperature:       186.0000000
  free_energy:       129.9560812
  entropy:             5.7575918
  heat_capacity:      18.3530804
  energy:            131.0269933

- temperature:       188.0000000
  free_energy:       129.9443674
  entropy:             5.9568908
  heat_capacity:      18.9176863
  energy:            131.0642628

- temperature:       190.0000000
  free_energy:       129.9322510
  entropy:             6.1600935
  heat_capacity:      19.4894758
  energy:            131.1026688

- temperature:       192.0000000
  free_energy:       129.9197244
  entropy:             6.3671928
  heat_capacity:      20.0682924
  energy:            131.1422254

- temperature:       194.0000000
  free_energy:       129.9067797
  entropy:             6.5781798
  heat_capacity:      20.6539772
  energy:            131.1829465

- temperature:       196.0000000
  free_energy:       129.8934091
  entropy:             6.7930444
  heat_capacity:      21.2463691
  energy:            131.2248458

- temperature:       198.0000000
  free_energy:       129.8796049
  entropy:             7.0117752
  heat_capacity:      21.8453055
  energy:            131.2679364

- temperature:       200.0000000
  free_energy:       129.8653594
  entropy:             7.2343593
  heat_capacity:      22.4506217
  energy:            131.3122313

- temperature:       202.0000000
  free_energy:       129.8506649
  entropy:             7.4607827
  heat_capacity:      23.0621520
  energy:            131.3577430

- temperature:       204.0000000
  free_energy:       129.8355137
  entropy:             7.6910302
  heat_capacity:      23.6797291
  energy:            131.4044839

- temperature:       206.0000000
  free_energy:       129.8198982
  entropy:             7.9250854
  heat_capacity:      24.3031846
  energy:            131.4524658

- temperature:       208.0000000
  free_energy:       129.8038109
  entropy:             8.1629307
  heat_capacity:      24.9323494
  energy:            131.5017004

- temperature:       210.0000000
  free_energy:       129.7872440
  entropy:             8.4045473
  heat_capacity:      25.5670535
  energy:            131.5521989

- temperature:       212.0000000
  free_energy:       129.7701902
  entropy:             8.6499154
  heat_capacity:      26.2071264
  energy:            131.6039722

- temperature:       214.0000000
  free_energy:       129.7526419
  entropy:             8.8990142
  heat_capacity:      26.8523972
  energy:            131.6570309

- temperature:       216.0000000
  free_energy:       129.7345916
  entropy:             9.1518219
  heat_capacity:      27.5026947
  energy:            131.7113852

- temperature:       218.0000000
  free_energy:       129.7160321
  entropy:             9.4083156
  heat_capacity:      28.1578477
  energy:            131.7670449

- temperature:       220.0000000
  free_energy:       129.6969559
  entropy:             9.6684716
  heat_capacity:      28.8176852
  energy:            131.8240197

- temperature:       222.0000000
  free_energy:       129.6773558
  entropy:             9.9322652
  heat_capacity:      29.4820363
  energy:            131.8823187

- temperature:       224.0000000
  free_energy:       129.6572245
  entropy:            10.1996708
  heat_capacity:      30.1507305
  energy:            131.9419507

- temperature:       226.0000000
  free_energy:       129.6365547
  entropy:            10.4706622
  heat_capacity:      30.8235980
  energy:            132.0029244

- temperature:       228.0000000
  free_energy:       129.6153394
  entropy:            10.7452120
  heat_capacity:      31.5004694
  energy:            132.0652478

- temperature:       230.0000000
  free_energy:       129.5935715
  entropy:            11.0232925
  heat_capacity:      32.1811764
  energy:            132.1289288

- temperature:       232.0000000
  free_energy:       129.5712439
  entropy:            11.3048750
  heat_capacity:      32.8655514
  energy:            132.1939749

- temperature:       234.0000000
  free_energy:       129.5483497
  entropy:            11.5899301
  heat_capacity:      33.5534279
  energy:            132.2603934

- temperature:       236.0000000
  free_energy:       129.5248819
  entropy:            11.8784278
  heat_capacity:      34.2446407
  energy:            132.3281909

- temperature:       238.0000000
  free_energy:       129.5008337
  entropy:            12.1703374
  heat_capacity:      34.9390258
  energy:            132.3973740

- temperature:       240.0000000
  free_energy:       129.4761983
  entropy:            12.4656278
  heat_capacity:      35.6364204
  energy:            132.4679490

- temperature:       242.0000000
  free_energy:       129.4509690
  entropy:            12.7642671
  heat_capacity:      36.3366636
  energy:            132.5399216

- temperature:       244.0000000
  free_energy:       129.4251390
  entropy:            13.0662229
  heat_capacity:      37.0395956
  energy:            132.6132974

- temperature:       246.0000000
  free_energy:       129.3987019
  entropy:            13.3714625
  heat_capacity:      37.7450587
  energy:            132.6880817

- temperature:       248.0000000
  free_energy:       129.3716510
  entropy:            13.6799525
  heat_capacity:      38.4528966
  energy:            132.7642793

- temperature:       250.0000000
  free_energy:       129.3439799
  entropy:            13.9916592
  heat_capacity:      39.1629550
  energy:            132.8418947

- temperature:       252.0000000
  free_energy:       129.3156823
  entropy:            14.3065483
  heat_capacity:      39.8750815
  energy:            132.9209324

- temperature:       254.0000000
  free_energy:       129.2867517
  entropy:            14.6245854
  heat_capacity:      40.5891256
  energy:            133.0013963

- temperature:       256.0000000
  free_energy:       129.2571818
  entropy:            14.9457355
  heat_capacity:      41.3049389
  energy:            133.0832901

- temperature:       258.0000000
  free_energy:       129.2269667
  entropy:            15.2699633
  heat_capacity:      42.0223752
  energy:            133.1666172

- temperature:       260.0000000
  free_energy:       129.1961000
  entropy:            15.5972333
  heat_capacity:      42.7412902
  energy:            133.2513806

- temperature:       262.0000000
  free_energy:       129.1645757
  entropy:            15.9275096
  heat_capacity:      43.4615419
  energy:            133.3375832

- temperature:       264.0000000
  free_energy:       129.1323879
  entropy:            16.2607562
  heat_capacity:      44.1829905
  energy:            133.4252276

- temperature:       266.0000000
  free_energy:       129.0995307
  entropy:            16.5969367
  heat_capacity:      44.9054988
  energy:            133.5143159

- temperature:       268.0000000
  free_energy:       129.0659983
  entropy:            16.9360146
  heat_capacity:      45.6289314
  energy:            133.6048502

- temperature:       270.0000000
  free_energy:       129.0317848
  entropy:            17.2779533
  heat_capacity:      46.3531557
  energy:            133.6968322

- temperature:       272.0000000
  free_energy:       128.9968846
  entropy:            17.6227157
  heat_capacity:      47.0780412
  energy:            133.7902633

- temperature:       274.0000000
  free_energy:       128.9612921
  entropy:            17.9702651
  heat_capacity:      47.8034599
  energy:            133.8851447

- temperature:       276.0000000
  free_energy:       128.9250017
  entropy:            18.3205641
  heat_capacity:      48.5292863
  energy:            133.9814774

- temperature:       278.0000000
  free_energy:       128.8880080
  entropy:            18.6735756
  heat_capacity:      49.2553972
  energy:            134.0792620

- temperature:       280.0000000
  free_energy:       128.8503056
  entropy:            19.0292624
  heat_capacity:      49.9816720
  energy:            134.1784991

- temperature:       282.0000000
  free_energy:       128.8118892
  entropy:            19.3875871
  heat_capacity:      50.7079926
  energy:            134.2791887

- temperature:       284.0000000
  free_energy:       128.7727535
  entropy:            19.7485122
  heat_capacity:      51.4342431
  energy:            134.3813310

- temperature:       286.0000000
  free_energy:       128.7328934
  entropy:            20.1120006
  heat_capacity:      52.1603104
  energy:            134.4849256

- temperature:       288.0000000
  free_energy:       128.6923038
  entropy:            20.4780146
  heat_capacity:      52.8860837
  energy:            134.5899720

- temperature:       290.0000000
  free_energy:       128.6509797
  entropy:            20.8465170
  heat_capacity:      53.6114547
  energy:            134.6964697

- temperature:       292.0000000
  free_energy:       128.6089161
  entropy:            21.2174705
  heat_capacity:      54.3363178
  energy:            134.8044175

- temperature:       294.0000000
  free_energy:       128.5661082
  entropy:            21.5908378
  heat_capacity:      55.0605696
  energy:            134.9138145

- temperature:       296.0000000
  free_energy:       128.5225512
  entropy:            21.9665815
  heat_capacity:      55.7841093
  energy:            135.0246593

- temperature:       298.0000000
  free_energy:       128.4782403
  entropy:            22.3446647
  heat_capacity:      56.5068385
  energy:            135.1369504

- temperature:       300.0000000
  free_energy:       128.4331710
  entropy:            22.7250502
  heat_capacity:      57.2286613
  energy:            135.2506861

- temperature:       302.0000000
  free_energy:       128.3873386
  entropy:            23.1077012
  heat_capacity:      57.9494842
  energy:            135.3658644

- temperature:       304.0000000
  free_energy:       128.3407387
  entropy:            23.4925808
  heat_capacity:      58.6692162
  energy:            135.4824833

- temperature:       306.0000000
  free_energy:       128.2933668
  entropy:            23.8796524
  heat_capacity:      59.3877685
  energy:            135.6005405

- temperature:       308.0000000
  free_energy:       128.2452187
  entropy:            24.2688794
  heat_capacity:      60.1050549
  energy:            135.7200335

- temperature:       310.0000000
  free_energy:       128.1962899
  entropy:            24.6602254
  heat_capacity:      60.8209915
  energy:            135.8409598

- temperature:       312.0000000
  free_energy:       128.1465764
  entropy:            25.0536543
  heat_capacity:      61.5354966
  energy:            135.9633165

- temperature:       314.0000000
  free_energy:       128.0960739
  entropy:            25.4491301
  heat_capacity:      62.2484910
  energy:            136.0871008

- temperature:       316.0000000
  free_energy:       128.0447785
  entropy:            25.8466168
  heat_capacity:      62.9598977
  energy:            136.2123094

- temperature:       318.0000000
  free_energy:       127.9926861
  entropy:            26.2460790
  heat_capacity:      63.6696420
  energy:            136.3389392

- temperature:       320.0000000
  free_energy:       127.9397929
  entropy:            26.6474811
  heat_capacity:      64.3776512
  energy:            136.4669868

- temperature:       322.0000000
  free_energy:       127.8860949
  entropy:            27.0507879
  heat_capacity:      65.0838553
  energy:            136.5964487

- temperature:       324.0000000
  free_energy:       127.8315885
  entropy:            27.4559645
  heat_capacity:      65.7881859
  energy:            136.7273210

- temperature:       326.0000000
  free_energy:       127.7762699
  entropy:            27.8629762
  heat_capacity:      66.4905773
  energy:            136.8596001

- temperature:       328.0000000
  free_energy:       127.7201354
  entropy:            28.2717884
  heat_capacity:      67.1909654
  energy:            136.9932820

- temperature:       330.0000000
  free_energy:       127.6631815
  entropy:            28.6823668
  heat_capacity:      67.8892887
  energy:            137.1283626

- temperature:       332.0000000
  free_energy:       127.6054048
  entropy:            29.0946776
  heat_capacity:      68.5854872
  energy:            137.2648377

- temperature:       334.0000000
  free_energy:       127.5468017
  entropy:            29.5086868
  heat_capacity:      69.2795035
  energy:            137.4027031

- temperature:       336.0000000
  free_energy:       127.4873689
  entropy:            29.9243611
  heat_capacity:      69.9712817
  energy:            137.5419542

- temperature:       338.0000000
  free_energy:       127.4271032
  entropy:            30.3416672
  heat_capacity:      70.6607681
  energy:            137.6825867

- temperature:       340.0000000
  free_energy:       127.3660012
  entropy:            30.7605723
  heat_capacity:      71.3479110
  energy:            137.8245958

- temperature:       342.0000000
  free_energy:       127.3040598
  entropy:            31.1810436
  heat_capacity:      72.0326604
  energy:            137.9679767

- temperature:       344.0000000
  free_energy:       127.2412760
  entropy:            31.6030488
  heat_capacity:      72.7149682
  energy:            138.1127248

- temperature:       346.0000000
  free_energy:       127.1776466
  entropy:            32.0265558
  heat_capacity:      73.3947882
  energy:            138.2588349

- temperature:       348.0000000
  free_energy:       127.1131688
  entropy:            32.4515329
  heat_capacity:      74.0720760
  energy:            138.4063022

- temperature:       350.0000000
  free_energy:       127.0478395
  entropy:            32.8779486
  heat_capacity:      74.7467889
  energy:            138.5551215

- temperature:       352.0000000
  free_energy:       126.9816560
  entropy:            33.3057716
  heat_capacity:      75.4188858
  energy:            138.7052876

- temperature:       354.0000000
  free_energy:       126.9146155
  entropy:            33.7349711
  heat_capacity:      76.0883275
  energy:            138.8567953

- temperature:       356.0000000
  free_energy:       126.8467153
  entropy:            34.1655166