<?xml version="1.0" encoding="ISO-8859-1"?>
<modeling>
 <generator>
  <i name="program" type="string">vasp </i>
  <i name="version" type="string">5.4.4.18Apr17-6-g9f103f2a35  </i>
  <i name="subversion" type="string">(build Mar 12 2022 03:36:41) complex            parallel </i>
  <i name="platform" type="string">IFC19.0.3.199_CrayMPICH7.7.19 </i>
  <i name="date" type="string">2022 12 01 </i>
  <i name="time" type="string">07:15:55 </i>
 </generator>
 <incar>
  <i type="string" name="PREC">accurate</i>
  <i type="int" name="IALGO">    38</i>
  <i type="logical" name="ADDGRID"> T  </i>
  <i type="int" name="IBRION">     8</i>
  <i name="EDIFF">      0.00000001</i>
  <i type="logical" name="LREAL"> F  </i>
  <i type="int" name="ISMEAR">     0</i>
  <i name="SIGMA">      0.06000000</i>
  <i type="logical" name="LWAVE"> F  </i>
  <i type="logical" name="LCHARG"> F  </i>
  <v type="int" name="KPOINT_BSE">    -1     0     0     0</v>
 </incar>
 <structure name="primitive_cell" >
  <crystal>
   <varray name="basis" >
    <v>       1.82224150       1.82224150       0.00000000 </v>
    <v>       1.82224150       0.00000000      -1.82224150 </v>
    <v>       0.00000000       1.82224150      -1.82224150 </v>
   </varray>
   <i name="volume">     12.10173936 </i>
   <varray name="rec_basis" >
    <v>       0.27438734       0.27438734       0.27438734 </v>
    <v>       0.27438734      -0.27438734      -0.27438734 </v>
    <v>      -0.27438734       0.27438734      -0.27438734 </v>
   </varray>
  </crystal>
  <varray name="positions" >
   <v>       0.25000000       0.25000000       0.25000000 </v>
   <v>      -0.50000000      -0.50000000      -0.50000000 </v>
  </varray>
 </structure>
 <varray name="primitive_index" >
  <v type="int" >        1 </v>
  <v type="int" >       11 </v>
 </varray>
 <kpoints>
  <generation param="Gamma">
   <v type="int" name="divisions">       8        8        8 </v>
   <v name="usershift">      0.00000000       0.00000000       0.00000000 </v>
   <v name="genvec1">      0.12500000       0.00000000       0.00000000 </v>
   <v name="genvec2">      0.00000000       0.12500000       0.00000000 </v>
   <v name="genvec3">      0.00000000       0.00000000       0.12500000 </v>
   <v name="shift">      0.00000000       0.00000000       0.00000000 </v>
  </generation>
  <varray name="kpointlist" >
   <v>       0.00000000       0.00000000       0.00000000 </v>
   <v>       0.12500000       0.00000000       0.00000000 </v>
   <v>       0.25000000       0.00000000       0.00000000 </v>
   <v>       0.37500000       0.00000000       0.00000000 </v>
   <v>       0.50000000       0.00000000       0.00000000 </v>
   <v>       0.12500000       0.12500000       0.00000000 </v>
   <v>       0.25000000       0.12500000       0.00000000 </v>
   <v>       0.37500000       0.12500000       0.00000000 </v>
   <v>       0.50000000       0.12500000       0.00000000 </v>
   <v>       0.25000000       0.25000000       0.00000000 </v>
   <v>       0.37500000       0.25000000       0.00000000 </v>
   <v>       0.50000000       0.25000000       0.00000000 </v>
   <v>       0.37500000       0.37500000       0.00000000 </v>
   <v>       0.50000000       0.37500000       0.00000000 </v>
   <v>       0.50000000       0.50000000       0.00000000 </v>
   <v>       0.12500000       0.12500000       0.12500000 </v>
   <v>       0.25000000       0.12500000       0.12500000 </v>
   <v>       0.37500000       0.12500000       0.12500000 </v>
   <v>       0.50000000       0.12500000       0.12500000 </v>
   <v>       0.25000000       0.25000000       0.12500000 </v>
   <v>       0.37500000       0.25000000       0.12500000 </v>
   <v>       0.50000000       0.25000000       0.12500000 </v>
   <v>       0.37500000       0.37500000       0.12500000 </v>
   <v>       0.50000000       0.37500000       0.12500000 </v>
   <v>       0.50000000       0.50000000       0.12500000 </v>
   <v>       0.25000000       0.25000000       0.25000000 </v>
   <v>       0.37500000       0.25000000       0.25000000 </v>
   <v>       0.50000000       0.25000000       0.25000000 </v>
   <v>       0.37500000       0.37500000       0.25000000 </v>
   <v>       0.50000000       0.37500000       0.25000000 </v>
   <v>       0.50000000       0.50000000       0.25000000 </v>
   <v>       0.37500000       0.37500000       0.37500000 </v>
   <v>       0.50000000       0.37500000       0.37500000 </v>
   <v>       0.50000000       0.50000000       0.37500000 </v>
   <v>       0.50000000       0.50000000       0.50000000 </v>
  </varray>
  <varray name="weights" >
   <v>       0.00195312 </v>
   <v>       0.01171875 </v>
   <v>       0.01171875 </v>
   <v>       0.01171875 </v>
   <v>       0.00585938 </v>
   <v>       0.02343750 </v>
   <v>       0.04687500 </v>
   <v>       0.04687500 </v>
   <v>       0.02343750 </v>
   <v>       0.02343750 </v>
   <v>       0.04687500 </v>
   <v>       0.02343750 </v>
   <v>       0.02343750 </v>
   <v>       0.02343750 </v>
   <v>       0.00585938 </v>
   <v>       0.01562500 </v>
   <v>       0.04687500 </v>
   <v>       0.04687500 </v>
   <v>       0.02343750 </v>
   <v>       0.04687500 </v>
   <v>       0.09375000 </v>
   <v>       0.04687500 </v>
   <v>       0.04687500 </v>
   <v>       0.04687500 </v>
   <v>       0.01171875 </v>
   <v>       0.01562500 </v>
   <v>       0.04687500 </v>
   <v>       0.02343750 </v>
   <v>       0.04687500 </v>
   <v>       0.04687500 </v>
   <v>       0.01171875 </v>
   <v>       0.01562500 </v>
   <v>       0.02343750 </v>
   <v>       0.01171875 </v>
   <v>       0.00195312 </v>
  </varray>
 </kpoints>
 <parameters>
  <separator name="general" >
   <i type="string" name="SYSTEM">unknown system</i>
   <i type="logical" name="LCOMPAT"> F  </i>
  </separator>
  <separator name="electronic" >
   <i type="string" name="PREC">accura</i>
   <i name="ENMAX">    400.00000000</i>
   <i name="ENAUG">    644.87300000</i>
   <i name="EDIFF">      0.00000001</i>
   <i type="int" name="IALGO">    38</i>
   <i type="int" name="IWAVPR">    11</i>
   <i type="int" name="NBANDS">   192</i>
   <i name="NELECT">    256.00000000</i>
   <i type="int" name="TURBO">     0</i>
   <i type="int" name="IRESTART">     0</i>
   <i type="int" name="NREBOOT">     0</i>
   <i type="int" name="NMIN">     0</i>
   <i name="EREF">      0.00000000</i>
   <separator name="electronic smearing" >
    <i type="int" name="ISMEAR">     0</i>
    <i name="SIGMA">      0.06000000</i>
    <i name="KSPACING">      0.50000000</i>
    <i type="logical" name="KGAMMA"> T  </i>
   </separator>
   <separator name="electronic projectors" >
    <i type="logical" name="LREAL"> F  </i>
    <v name="ROPT">      0.00000000</v>
    <i type="int" name="LMAXPAW">  -100</i>
    <i type="int" name="LMAXMIX">     2</i>
    <i type="logical" name="NLSPLINE"> F  </i>
   </separator>
   <separator name="electronic startup" >
    <i type="int" name="ISTART">     0</i>
    <i type="int" name="ICHARG">     2</i>
    <i type="int" name="INIWAV">     1</i>
   </separator>
   <separator name="electronic spin" >
    <i type="int" name="ISPIN">     1</i>
    <i type="logical" name="LNONCOLLINEAR"> F  </i>
    <v name="MAGMOM">      1.00000000      1.00000000      1.00000000      1.00000000      1.00000000      1.00000000      1.00000000      1.00000000      1.00000000      1.00000000      1.00000000      1.00000000      1.00000000      1.00000000      1.00000000      1.00000000      1.00000000      1.00000000      1.00000000      1.00000000
      1.00000000      1.00000000      1.00000000      1.00000000      1.00000000      1.00000000      1.00000000      1.00000000      1.00000000      1.00000000      1.00000000      1.00000000      1.00000000      1.00000000      1.00000000      1.00000000      1.00000000      1.00000000      1.00000000      1.00000000
      1.00000000      1.00000000      1.00000000      1.00000000      1.00000000      1.00000000      1.00000000      1.00000000      1.00000000      1.00000000      1.00000000      1.00000000      1.00000000      1.00000000      1.00000000      1.00000000      1.00000000      1.00000000      1.00000000      1.00000000
      1.00000000      1.00000000      1.00000000      1.00000000</v>
    <i name="NUPDOWN">     -1.00000000</i>
    <i type="logical" name="LSORBIT"> F  </i>
    <v name="SAXIS">      0.00000000      0.00000000      1.00000000</v>
    <i type="logical" name="LSPIRAL"> F  </i>
    <v name="QSPIRAL">      0.00000000      0.00000000      0.00000000</v>
    <i type="logical" name="LZEROZ"> F  </i>
   </separator>
   <separator name="electronic exchange-correlation" >
    <i type="logical" name="LASPH"> F  </i>
    <i type="logical" name="LMETAGGA"> F  </i>
   </separator>
   <separator name="electronic convergence" >
    <i type="int" name="NELM">    60</i>
    <i type="int" name="NELMDL">    -5</i>
    <i type="int" name="NELMIN">     2</i>
    <i name="ENINI">    400.00000000</i>
    <separator name="electronic convergence detail" >
     <i type="logical" name="LDIAG"> T  </i>
     <i type="logical" name="LSUBROT"> F  </i>
     <i name="WEIMIN">      0.00100000</i>
     <i name="EBREAK">      0.00000000</i>
     <i name="DEPER">      0.30000000</i>
     <i type="int" name="NRMM">     4</i>
     <i name="TIME">      0.40000000</i>
    </separator>
   </separator>
   <separator name="electronic mixer" >
    <i name="AMIX">      0.40000000</i>
    <i name="BMIX">      1.00000000</i>
    <i name="AMIN">      0.10000000</i>
    <i name="AMIX_MAG">      1.60000000</i>
    <i name="BMIX_MAG">      1.00000000</i>
    <separator name="electronic mixer details" >
     <i type="int" name="IMIX">     4</i>
     <i type="logical" name="MIXFIRST"> F  </i>
     <i type="int" name="MAXMIX">   -45</i>
     <i name="WC">    100.00000000</i>
     <i type="int" name="INIMIX">     1</i>
     <i type="int" name="MIXPRE">     1</i>
     <i type="int" name="MREMOVE">     5</i>
    </separator>
   </separator>
   <separator name="electronic dipolcorrection" >
    <i type="logical" name="LDIPOL"> F  </i>
    <i type="logical" name="LMONO"> F  </i>
    <i type="int" name="IDIPOL">     0</i>
    <i name="EPSILON">      1.00000000</i>
    <v name="DIPOL">   -100.00000000   -100.00000000   -100.00000000</v>
    <i name="EFIELD">      0.00000000</i>
   </separator>
  </separator>
  <separator name="grids" >
   <i type="int" name="NGX">    48</i>
   <i type="int" name="NGY">    48</i>
   <i type="int" name="NGZ">    48</i>
   <i type="int" name="NGXF">    96</i>
   <i type="int" name="NGYF">    96</i>
   <i type="int" name="NGZF">    96</i>
   <i type="logical" name="ADDGRID"> T  </i>
  </separator>
  <separator name="ionic" >
   <i type="int" name="NSW">     1</i>
   <i type="int" name="IBRION">     8</i>
   <i type="int" name="MDALGO">     0</i>
   <i type="int" name="ISIF">     2</i>
   <i name="PSTRESS">      0.00000000</i>
   <i name="EDIFFG">      0.00000010</i>
   <i type="int" name="NFREE">     0</i>
   <i name="POTIM">      0.50000000</i>
   <i name="SMASS">     -3.00000000</i>
   <i name="SCALEE">      1.00000000</i>
  </separator>
  <separator name="ionic md" >
   <i name="TEBEG">      0.00010000</i>
   <i name="TEEND">      0.00010000</i>
   <i type="int" name="NBLOCK">     1</i>
   <i type="int" name="KBLOCK">     1</i>
   <i type="int" name="NPACO">   256</i>
   <i name="APACO">     16.00000000</i>
  </separator>
  <separator name="symmetry" >
   <i type="int" name="ISYM">     2</i>
   <i name="SYMPREC">      0.00001000</i>
  </separator>
  <separator name="dos" >
   <i type="int" name="LORBIT">     0</i>
   <v name="RWIGS">     -1.00000000</v>
   <i type="int" name="NEDOS">   301</i>
   <i name="EMIN">     10.00000000</i>
   <i name="EMAX">    -10.00000000</i>
   <i name="EFERMI">      0.00000000</i>
  </separator>
  <separator name="writing" >
   <i type="int" name="NWRITE">     2</i>
   <i type="logical" name="LWAVE"> F  </i>
   <i type="logical" name="LDOWNSAMPLE"> F  </i>
   <i type="logical" name="LCHARG"> F  </i>
   <i type="logical" name="LPARD"> F  </i>
   <i type="logical" name="LVTOT"> F  </i>
   <i type="logical" name="LVHAR"> F  </i>
   <i type="logical" name="LELF"> F  </i>
   <i type="logical" name="LOPTICS"> F  </i>
   <v name="STM">      0.00000000      0.00000000      0.00000000      0.00000000      0.00000000      0.00000000      0.00000000</v>
  </separator>
  <separator name="performance" >
   <i type="int" name="NPAR">    32</i>
   <i type="int" name="NSIM">     4</i>
   <i type="int" name="NBLK">    -1</i>
   <i type="logical" name="LPLANE"> T  </i>
   <i type="logical" name="LSCALAPACK"> T  </i>
   <i type="logical" name="LSCAAWARE"> F  </i>
   <i type="logical" name="LSCALU"> F  </i>
   <i type="logical" name="LASYNC"> F  </i>
   <i type="logical" name="LORBITALREAL"> F  </i>
  </separator>
  <separator name="miscellaneous" >
   <i type="int" name="IDIOT">     3</i>
   <i type="int" name="ISPECIAL">     0</i>
   <i type="logical" name="LMUSIC"> F  </i>
   <v name="POMASS">     12.01100000</v>
   <v name="DARWINR">      0.00000000</v>
   <v name="DARWINV">      1.00000000</v>
   <i type="logical" name="LCORR"> T  </i>
  </separator>
  <i type="logical" name="GGA_COMPAT"> T  </i>
  <i type="logical" name="LBERRY"> F  </i>
  <i type="int" name="ICORELEVEL">     0</i>
  <i type="logical" name="LDAU"> F  </i>
  <i type="int" name="I_CONSTRAINED_M">     0</i>
  <separator name="electronic exchange-correlation" >
   <i type="string" name="GGA">--</i>
   <i type="int" name="VOSKOWN">     0</i>
   <i type="logical" name="LHFCALC"> F  </i>
   <i type="string" name="PRECFOCK"></i>
   <i type="logical" name="LSYMGRAD"> F  </i>
   <i type="logical" name="LHFONE"> F  </i>
   <i type="logical" name="LRHFCALC"> F  </i>
   <i type="logical" name="LTHOMAS"> F  </i>
   <i type="logical" name="LMODELHF"> F  </i>
   <i name="ENCUT4O">     -1.00000000</i>
   <i type="int" name="EXXOEP">     0</i>
   <i type="int" name="FOURORBIT">     0</i>
   <i name="AEXX">      0.00000000</i>
   <i name="HFALPHA">      0.00000000</i>
   <i name="MCALPHA">      0.00000000</i>
   <i name="ALDAX">      1.00000000</i>
   <i name="AGGAX">      1.00000000</i>
   <i name="ALDAC">      1.00000000</i>
   <i name="AGGAC">      1.00000000</i>
   <i type="int" name="NKREDX">     1</i>
   <i type="int" name="NKREDY">     1</i>
   <i type="int" name="NKREDZ">     1</i>
   <i type="logical" name="SHIFTRED"> F  </i>
   <i type="logical" name="ODDONLY"> F  </i>
   <i type="logical" name="EVENONLY"> F  </i>
   <i type="int" name="LMAXFOCK">     0</i>
   <i type="int" name="NMAXFOCKAE">     0</i>
   <i type="logical" name="LFOCKAEDFT"> F  </i>
   <i name="HFSCREEN">      0.00000000</i>
   <i name="HFSCREENC">      0.00000000</i>
   <i type="int" name="NBANDSGWLOW">     0</i>
  </separator>
  <separator name="vdW DFT" >
   <i type="logical" name="LUSE_VDW"> F  </i>
   <i name="Zab_VDW">     -0.84910000</i>
   <i name="PARAM1">      0.12340000</i>
   <i name="PARAM2">      1.00000000</i>
   <i name="PARAM3">      0.00000000</i>
  </separator>
  <separator name="model GW" >
   <i type="int" name="MODEL_GW">     0</i>
   <i name="MODEL_EPS0">      3.63052181</i>
   <i name="MODEL_ALPHA">      1.00000000</i>
  </separator>
  <separator name="linear response parameters" >
   <i type="logical" name="LEPSILON"> F  </i>
   <i type="logical" name="LRPA"> F  </i>
   <i type="logical" name="LNABLA"> F  </i>
   <i type="logical" name="LVEL"> F  </i>
   <i type="int" name="KINTER">     0</i>
   <i name="CSHIFT">      0.10000000</i>
   <i name="OMEGAMAX">     -1.00000000</i>
   <i name="DEG_THRESHOLD">      0.00200000</i>
   <i name="RTIME">     -0.10000000</i>
   <i name="WPLASMAI">      0.00000000</i>
   <v name="DFIELD">      0.00000000      0.00000000      0.00000000</v>
   <v name="WPLASMA">      0.00000000      0.00000000      0.00000000      0.00000000      0.00000000      0.00000000      0.00000000      0.00000000      0.00000000</v>
  </separator>
  <separator name="orbital magnetization" >
   <i type="logical" name="NUCIND"> F  </i>
   <v name="MAGPOS">      0.00000000      0.00000000      0.00000000</v>
   <i type="logical" name="LNICSALL"> T  </i>
   <i type="logical" name="ORBITALMAG"> F  </i>
   <i type="logical" name="LMAGBLOCH"> F  </i>
   <i type="logical" name="LCHIMAG"> F  </i>
   <i type="logical" name="LGAUGE"> T  </i>
   <i type="int" name="MAGATOM">     0</i>
   <v name="MAGDIPOL">      0.00000000      0.00000000      0.00000000</v>
   <v name="AVECCONST">      0.00000000      0.00000000      0.00000000</v>
  </separator>
  <separator name="response functions" >
   <i type="logical" name="LADDER"> F  </i>
   <i type="logical" name="LRPAFORCE"> F  </i>
   <i type="logical" name="LFXC"> F  </i>
   <i type="logical" name="LHARTREE"> T  </i>
   <i type="int" name="IBSE">     0</i>
   <v type="int" name="KPOINT">    -1     0     0     0</v>
   <i type="logical" name="LTCTE"> F  </i>
   <i type="logical" name="LTETE"> F  </i>
   <i type="logical" name="LTRIPLET"> F  </i>
   <i type="logical" name="LFXCEPS"> F  </i>
   <i type="logical" name="LFXHEG"> F  </i>
   <i type="int" name="NATURALO">     2</i>
   <i type="logical" name="L2ORDER"> F  </i>
   <i type="logical" name="LMP2LT"> F  </i>
   <i type="logical" name="LUSEW"> F  </i>
   <i name="ENCUTGW">     -2.00000000</i>
   <i name="ENCUTGWSOFT">     -2.00000000</i>
   <i name="ENCUTLF">     -1.00000000</i>
   <i type="int" name="LMAXMP2">    -1</i>
   <i name="SCISSOR">      0.00000000</i>
   <i type="int" name="NOMEGA">     0</i>
   <i type="int" name="NOMEGAR">     0</i>
   <i type="int" name="NBANDSGW">    -1</i>
   <i type="int" name="NBANDSO">    -1</i>
   <i type="int" name="NBANDSV">    -1</i>
   <i type="int" name="NELM">     1</i>
   <i type="int" name="NELMHF">     1</i>
   <i type="int" name="DIM">     3</i>
   <i type="int" name="ANTIRES">     0</i>
   <i name="OMEGAMAX">    -30.00000000</i>
   <i name="OMEGAMIN">    -30.00000000</i>
   <i name="OMEGATL">   -200.00000000</i>
   <i type="int" name="OMEGAGRID">   140</i>
   <i name="CSHIFT">     -0.10000000</i>
   <i type="logical" name="SELFENERGY"> F  </i>
   <i type="logical" name="LSPECTRAL"> F  </i>
   <i type="logical" name="LSPECTRALGW"> F  </i>
   <i type="logical" name="LSINGLES"> F  </i>
   <i type="logical" name="LFERMIGW"> F  </i>
   <i type="logical" name="ODDONLYGW"> F  </i>
   <i type="logical" name="EVENONLYGW"> F  </i>
   <i type="int" name="NKREDLFX">     1</i>
   <i type="int" name="NKREDLFY">     1</i>
   <i type="int" name="NKREDLFZ">     1</i>
   <i type="int" name="MAXMEM">  2800</i>
   <i type="int" name="TELESCOPE">     0</i>
   <i type="int" name="TAUPAR">     1</i>
   <i type="int" name="OMEGAPAR">    -1</i>
   <i name="LAMBDA">      1.00000000</i>
  </separator>
  <separator name="External order field" >
   <i name="OFIELD_KAPPA">      0.00000000</i>
   <v name="OFIELD_K">      0.00000000      0.00000000      0.00000000</v>
   <i name="OFIELD_Q6_NEAR">      0.00000000</i>
   <i name="OFIELD_Q6_FAR">      0.00000000</i>
   <i name="OFIELD_A">      0.00000000</i>
  </separator>
 </parameters>
 <atominfo>
  <atoms>      64 </atoms>
  <types>       1 </types>
  <array name="atoms" >
   <dimension dim="1">ion</dimension>
   <field type="string">element</field>
   <field type="int">atomtype</field>
   <set>
    <rc><c>C </c><c>   1</c></rc>
    <rc><c>C </c><c>   1</c></rc>
    <rc><c>C </c><c>   1</c></rc>
    <rc><c>C </c><c>   1</c></rc>
    <rc><c>C </c><c>   1</c></rc>
    <rc><c>C </c><c>   1</c></rc>
    <rc><c>C </c><c>   1</c></rc>
    <rc><c>C </c><c>   1</c></rc>
    <rc><c>C </c><c>   1</c></rc>
    <rc><c>C </c><c>   1</c></rc>
    <rc><c>C </c><c>   1</c></rc>
    <rc><c>C </c><c>   1</c></rc>
    <rc><c>C </c><c>   1</c></rc>
    <rc><c>C </c><c>   1</c></rc>
    <rc><c>C </c><c>   1</c></rc>
    <rc><c>C </c><c>   1</c></rc>
    <rc><c>C </c><c>   1</c></rc>
    <rc><c>C </c><c>   1</c></rc>
    <rc><c>C </c><c>   1</c></rc>
    <rc><c>C </c><c>   1</c></rc>
    <rc><c>C </c><c>   1</c></rc>
    <rc><c>C </c><c>   1</c></rc>
    <rc><c>C </c><c>   1</c></rc>
    <rc><c>C </c><c>   1</c></rc>
    <rc><c>C </c><c>   1</c></rc>
    <rc><c>C </c><c>   1</c></rc>
    <rc><c>C </c><c>   1</c></rc>
    <rc><c>C </c><c>   1</c></rc>
    <rc><c>C </c><c>   1</c></rc>
    <rc><c>C </c><c>   1</c></rc>
    <rc><c>C </c><c>   1</c></rc>
    <rc><c>C </c><c>   1</c></rc>
    <rc><c>C </c><c>   1</c></rc>
    <rc><c>C </c><c>   1</c></rc>
    <rc><c>C </c><c>   1</c></rc>
    <rc><c>C </c><c>   1</c></rc>
    <rc><c>C </c><c>   1</c></rc>
    <rc><c>C </c><c>   1</c></rc>
    <rc><c>C </c><c>   1</c></rc>
    <rc><c>C </c><c>   1</c></rc>
    <rc><c>C </c><c>   1</c></rc>
    <rc><c>C </c><c>   1</c></rc>
    <rc><c>C </c><c>   1</c></rc>
    <rc><c>C </c><c>   1</c></rc>
    <rc><c>C </c><c>   1</c></rc>
    <rc><c>C </c><c>   1</c></rc>
    <rc><c>C </c><c>   1</c></rc>
    <rc><c>C </c><c>   1</c></rc>
    <rc><c>C </c><c>   1</c></rc>
    <rc><c>C </c><c>   1</c></rc>
    <rc><c>C </c><c>   1</c></rc>
    <rc><c>C </c><c>   1</c></rc>
    <rc><c>C </c><c>   1</c></rc>
    <rc><c>C </c><c>   1</c></rc>
    <rc><c>C </c><c>   1</c></rc>
    <rc><c>C </c><c>   1</c></rc>
    <rc><c>C </c><c>   1</c></rc>
    <rc><c>C </c><c>   1</c></rc>
    <rc><c>C </c><c>   1</c></rc>
    <rc><c>C </c><c>   1</c></rc>
    <rc><c>C </c><c>   1</c></rc>
    <rc><c>C </c><c>   1</c></rc>
    <rc><c>C </c><c>   1</c></rc>
    <rc><c>C </c><c>   1</c></rc>
   </set>
  </array>
  <array name="atomtypes" >
   <dimension dim="1">type</dimension>
   <field type="int">atomspertype</field>
   <field type="string">element</field>
   <field>mass</field>
   <field>valence</field>
   <field type="string">pseudopotential</field>
   <set>
    <rc><c>  64</c><c>C </c><c>     12.01100000</c><c>      4.00000000</c><c> PAW_PBE C 08Apr2002                    </c></rc>
   </set>
  </array>
 </atominfo>
 <structure name="initialpos" >
  <crystal>
   <varray name="basis" >
    <v>       7.28896600       0.00000000       0.00000000 </v>
    <v>       0.00000000       7.28896600       0.00000000 </v>
    <v>       0.00000000       0.00000000       7.28896600 </v>
   </varray>
   <i name="volume">    387.25565938 </i>
   <varray name="rec_basis" >
    <v>       0.13719367       0.00000000       0.00000000 </v>
    <v>       0.00000000       0.13719367       0.00000000 </v>
    <v>       0.00000000       0.00000000       0.13719367 </v>
   </varray>
  </crystal>
  <varray name="positions" >
   <v>       0.12500000       0.37500000       0.12500000 </v>
   <v>       0.62500000       0.37500000       0.12500000 </v>
   <v>       0.12500000       0.87500000       0.12500000 </v>
   <v>       0.62500000       0.87500000       0.12500000 </v>
   <v>       0.12500000       0.37500000       0.62500000 </v>
   <v>       0.62500000       0.37500000       0.62500000 </v>
   <v>       0.12500000       0.87500000       0.62500000 </v>
   <v>       0.62500000       0.87500000       0.62500000 </v>
   <v>       0.00000000       0.00000000       0.25000000 </v>
   <v>       0.50000000       0.00000000       0.25000000 </v>
   <v>       0.00000000       0.50000000       0.25000000 </v>
   <v>       0.50000000       0.50000000       0.25000000 </v>
   <v>       0.00000000       0.00000000       0.75000000 </v>
   <v>       0.50000000       0.00000000       0.75000000 </v>
   <v>       0.00000000       0.50000000       0.75000000 </v>
   <v>       0.50000000       0.50000000       0.75000000 </v>
   <v>       0.12500000       0.12500000       0.37500000 </v>
   <v>       0.62500000       0.12500000       0.37500000 </v>
   <v>       0.12500000       0.62500000       0.37500000 </v>
   <v>       0.62500000       0.62500000       0.37500000 </v>
   <v>       0.12500000       0.12500000       0.87500000 </v>
   <v>       0.62500000       0.12500000       0.87500000 </v>
   <v>       0.12500000       0.62500000       0.87500000 </v>
   <v>       0.62500000       0.62500000       0.87500000 </v>
   <v>       0.00000000       0.25000000       0.00000000 </v>
   <v>       0.50000000       0.25000000       0.00000000 </v>
   <v>       0.00000000       0.75000000       0.00000000 </v>
   <v>       0.50000000       0.75000000       0.00000000 </v>
   <v>       0.00000000       0.25000000       0.50000000 </v>
   <v>       0.50000000       0.25000000       0.50000000 </v>
   <v>       0.00000000       0.75000000       0.50000000 </v>
   <v>       0.50000000       0.75000000       0.50000000 </v>
   <v>       0.37500000       0.37500000       0.37500000 </v>
   <v>       0.87500000       0.37500000       0.37500000 </v>
   <v>       0.37500000       0.87500000       0.37500000 </v>
   <v>       0.87500000       0.87500000       0.37500000 </v>
   <v>       0.37500000       0.37500000       0.87500000 </v>
   <v>       0.87500000       0.37500000       0.87500000 </v>
   <v>       0.37500000       0.87500000       0.87500000 </v>
   <v>       0.87500000       0.87500000       0.87500000 </v>
   <v>       0.25000000       0.00000000       0.00000000 </v>
   <v>       0.75000000       0.00000000       0.00000000 </v>
   <v>       0.25000000       0.50000000       0.00000000 </v>
   <v>       0.75000000       0.50000000       0.00000000 </v>
   <v>       0.25000000       0.00000000       0.50000000 </v>
   <v>       0.75000000       0.00000000       0.50000000 </v>
   <v>       0.25000000       0.50000000       0.50000000 </v>
   <v>       0.75000000       0.50000000       0.50000000 </v>
   <v>       0.37500000       0.12500000       0.12500000 </v>
   <v>       0.87500000       0.12500000       0.12500000 </v>
   <v>       0.37500000       0.62500000       0.12500000 </v>
   <v>       0.87500000       0.62500000       0.12500000 </v>
   <v>       0.37500000       0.12500000       0.62500000 </v>
   <v>       0.87500000       0.12500000       0.62500000 </v>
   <v>       0.37500000       0.62500000       0.62500000 </v>
   <v>       0.87500000       0.62500000       0.62500000 </v>
   <v>       0.25000000       0.25000000       0.25000000 </v>
   <v>       0.75000000       0.25000000       0.25000000 </v>
   <v>       0.25000000       0.75000000       0.25000000 </v>
   <v>       0.75000000       0.75000000       0.25000000 </v>
   <v>       0.25000000       0.25000000       0.75000000 </v>
   <v>       0.75000000       0.25000000       0.75000000 </v>
   <v>       0.25000000       0.75000000       0.75000000 </v>
   <v>       0.75000000       0.75000000       0.75000000 </v>
  </varray>
 </structure>
 <calculation>
  <scstep>
   <time name="dav">   24.79   24.80</time>
   <time name="total">   24.91   24.95</time>
   <energy>
    <i name="alphaZ">    861.81504042 </i>
    <i name="ewald"> -10897.34941243 </i>
    <i name="hartreedc">   -610.00736911 </i>
    <i name="XCdc">    902.19694646 </i>
    <i name="pawpsdc">   2421.21235816 </i>
    <i name="pawaedc">  -2494.84305711 </i>
    <i name="eentropy">     -0.00716497 </i>
    <i name="bandstr">    899.62157831 </i>
    <i name="atom">   9416.14232778 </i>
    <i name="e_fr_energy">    498.78124749 </i>
    <i name="e_wo_entrp">    498.78841247 </i>
    <i name="e_0_energy">    498.78482998 </i>
   </energy>
  </scstep>
  <scstep>
   <time name="dav">   30.93   30.94</time>
   <time name="total">   30.94   30.94</time>
   <energy>
    <i name="e_fr_energy">   -553.92722493 </i>
    <i name="e_wo_entrp">   -553.92722493 </i>
    <i name="e_0_energy">   -553.92722493 </i>
   </energy>
  </scstep>
  <scstep>
   <time name="dav">   30.27   30.27</time>
   <time name="total">   30.27   30.27</time>
   <energy>
    <i name="e_fr_energy">   -596.27324851 </i>
    <i name="e_wo_entrp">   -596.27324851 </i>
    <i name="e_0_energy">   -596.27324851 </i>
   </energy>
  </scstep>
  <scstep>
   <time name="dav">   31.58   31.58</time>
   <time name="total">   31.58   31.58</time>
   <energy>
    <i name="e_fr_energy">   -596.77472714 </i>
    <i name="e_wo_entrp">   -596.77472714 </i>
    <i name="e_0_energy">   -596.77472714 </i>
   </energy>
  </scstep>
  <scstep>
   <time name="dav">   29.04   29.04</time>
   <time name="total">   29.77   29.77</time>
   <energy>
    <i name="e_fr_energy">   -596.78424636 </i>
    <i name="e_wo_entrp">   -596.78424636 </i>
    <i name="e_0_energy">   -596.78424636 </i>
   </energy>
  </scstep>
  <scstep>
   <time name="dav">   28.14   28.14</time>
   <time name="total">   28.97   28.97</time>
   <energy>
    <i name="e_fr_energy">   -584.42884515 </i>
    <i name="e_wo_entrp">   -584.42884515 </i>
    <i name="e_0_energy">   -584.42884515 </i>
   </energy>
  </scstep>
  <scstep>
   <time name="dav">   29.06   29.06</time>
   <time name="total">   29.89   29.89</time>
   <energy>
    <i name="e_fr_energy">   -580.24888421 </i>
    <i name="e_wo_entrp">   -580.24888420 </i>
    <i name="e_0_energy">   -580.24888421 </i>
   </energy>
  </scstep>
  <scstep>
   <time name="dav">   29.61   29.61</time>
   <time name="total">   30.43   30.44</time>
   <energy>
    <i name="e_fr_energy">   -580.30264497 </i>
    <i name="e_wo_entrp">   -580.30264497 </i>
    <i name="e_0_energy">   -580.30264497 </i>
   </energy>
  </scstep>
  <scstep>
   <time name="dav">   30.53   30.53</time>
   <time name="total">   31.35   31.35</time>
   <energy>
    <i name="e_fr_energy">   -580.30483076 </i>
    <i name="e_wo_entrp">   -580.30483076 </i>
    <i name="e_0_energy">   -580.30483076 </i>
   </energy>
  </scstep>
  <scstep>
   <time name="dav">   29.14   29.14</time>
   <time name="total">   29.97   29.97</time>
   <energy>
    <i name="e_fr_energy">   -580.30530436 </i>
    <i name="e_wo_entrp">   -580.30530436 </i>
    <i name="e_0_energy">   -580.30530436 </i>
   </energy>
  </scstep>
  <scstep>
   <time name="dav">   30.99   30.99</time>
   <time name="total">   31.82   31.82</time>
   <energy>
    <i name="e_fr_energy">   -580.30530810 </i>
    <i name="e_wo_entrp">   -580.30530810 </i>
    <i name="e_0_energy">   -580.30530810 </i>
   </energy>
  </scstep>
  <scstep>
   <time name="dav">   29.77   29.77</time>
   <time name="total">   30.59   30.59</time>
   <energy>
    <i name="e_fr_energy">   -580.30530842 </i>
    <i name="e_wo_entrp">   -580.30530842 </i>
    <i name="e_0_energy">   -580.30530842 </i>
   </energy>
  </scstep>
  <scstep>
   <time name="dav">   25.08   25.09</time>
   <time name="total">   25.91   25.92</time>
   <energy>
    <i name="e_fr_energy">   -580.30530854 </i>
    <i name="e_wo_entrp">   -580.30530854 </i>
    <i name="e_0_energy">   -580.30530854 </i>
   </energy>
  </scstep>
  <scstep>
   <time name="dav">   23.41   23.41</time>
   <time name="total">   24.24   24.24</time>
   <energy>
    <i name="e_fr_energy">   -580.30530855 </i>
    <i name="e_wo_entrp">   -580.30530855 </i>
    <i name="e_0_energy">   -580.30530855 </i>
   </energy>
  </scstep>
  <scstep>
   <time name="dav">   22.77   22.78</time>
   <time name="total">   22.88   22.88</time>
   <energy>
    <i name="alphaZ">    861.81504042 </i>
    <i name="ewald"> -10897.34941243 </i>
    <i name="hartreedc">   -873.47700127 </i>
    <i name="XCdc">    926.92011554 </i>
    <i name="pawpsdc">   3961.04456986 </i>
    <i name="pawaedc">  -4040.74077461 </i>
    <i name="eentropy">     -0.00000000 </i>
    <i name="bandstr">     65.33982616 </i>
    <i name="atom">   9416.14232778 </i>
    <i name="e_fr_energy">   -580.30530855 </i>
    <i name="e_wo_entrp">   -580.30530855 </i>
    <i name="e_0_energy">   -580.30530855 </i>
   </energy>
  </scstep>
  <structure>
   <crystal>
    <varray name="basis" >
     <v>       7.28896600       0.00000000       0.00000000 </v>
     <v>       0.00000000       7.28896600       0.00000000 </v>
     <v>       0.00000000       0.00000000       7.28896600 </v>
    </varray>
    <i name="volume">    387.25565938 </i>
    <varray name="rec_basis" >
     <v>       0.13719367       0.00000000       0.00000000 </v>
     <v>       0.00000000       0.13719367       0.00000000 </v>
     <v>       0.00000000       0.00000000       0.13719367 </v>
    </varray>
   </crystal>
   <varray name="positions" >
    <v>       0.12500000       0.37500000       0.12500000 </v>
    <v>       0.62500000       0.37500000       0.12500000 </v>
    <v>       0.12500000       0.87500000       0.12500000 </v>
    <v>       0.62500000       0.87500000       0.12500000 </v>
    <v>       0.12500000       0.37500000       0.62500000 </v>
    <v>       0.62500000       0.37500000       0.62500000 </v>
    <v>       0.12500000       0.87500000       0.62500000 </v>
    <v>       0.62500000       0.87500000       0.62500000 </v>
    <v>       0.00000000       0.00000000       0.25000000 </v>
    <v>       0.50000000       0.00000000       0.25000000 </v>
    <v>       0.00000000       0.50000000       0.25000000 </v>
    <v>       0.50000000       0.50000000       0.25000000 </v>
    <v>       0.00000000       0.00000000       0.75000000 </v>
    <v>       0.50000000       0.00000000       0.75000000 </v>
    <v>       0.00000000       0.50000000       0.75000000 </v>
    <v>       0.50000000       0.50000000       0.75000000 </v>
    <v>       0.12500000       0.12500000       0.37500000 </v>
    <v>       0.62500000       0.12500000       0.37500000 </v>
    <v>       0.12500000       0.62500000       0.37500000 </v>
    <v>       0.62500000       0.62500000       0.37500000 </v>
    <v>       0.12500000       0.12500000       0.87500000 </v>
    <v>       0.62500000       0.12500000       0.87500000 </v>
    <v>       0.12500000       0.62500000       0.87500000 </v>
    <v>       0.62500000       0.62500000       0.87500000 </v>
    <v>       0.00000000       0.25000000       0.00000000 </v>
    <v>       0.50000000       0.25000000       0.00000000 </v>
    <v>       0.00000000       0.75000000       0.00000000 </v>
    <v>       0.50000000       0.75000000       0.00000000 </v>
    <v>       0.00000000       0.25000000       0.50000000 </v>
    <v>       0.50000000       0.25000000       0.50000000 </v>
    <v>       0.00000000       0.75000000       0.50000000 </v>
    <v>       0.50000000       0.75000000       0.50000000 </v>
    <v>       0.37500000       0.37500000       0.37500000 </v>
    <v>       0.87500000       0.37500000       0.37500000 </v>
    <v>       0.37500000       0.87500000       0.37500000 </v>
    <v>       0.87500000       0.87500000       0.37500000 </v>
    <v>       0.37500000       0.37500000       0.87500000 </v>
    <v>       0.87500000       0.37500000       0.87500000 </v>
    <v>       0.37500000       0.87500000       0.87500000 </v>
    <v>       0.87500000       0.87500000       0.87500000 </v>
    <v>       0.25000000       0.00000000       0.00000000 </v>
    <v>       0.75000000       0.00000000       0.00000000 </v>
    <v>       0.25000000       0.50000000       0.00000000 </v>
    <v>       0.75000000       0.50000000       0.00000000 </v>
    <v>       0.25000000       0.00000000       0.50000000 </v>
    <v>       0.75000000       0.00000000       0.50000000 </v>
    <v>       0.25000000       0.50000000       0.50000000 </v>
    <v>       0.75000000       0.50000000       0.50000000 </v>
    <v>       0.37500000       0.12500000       0.12500000 </v>
    <v>       0.87500000       0.12500000       0.12500000 </v>
    <v>       0.37500000       0.62500000       0.12500000 </v>
    <v>       0.87500000       0.62500000       0.12500000 </v>
    <v>       0.37500000       0.12500000       0.62500000 </v>
    <v>       0.87500000       0.12500000       0.62500000 </v>
    <v>       0.37500000       0.62500000       0.62500000 </v>
    <v>       0.87500000       0.62500000       0.62500000 </v>
    <v>       0.25000000       0.25000000       0.25000000 </v>
    <v>       0.75000000       0.25000000       0.25000000 </v>
    <v>       0.25000000       0.75000000       0.25000000 </v>
    <v>       0.75000000       0.75000000       0.25000000 </v>
    <v>       0.25000000       0.25000000       0.75000000 </v>
    <v>       0.75000000       0.25000000       0.75000000 </v>
    <v>       0.25000000       0.75000000       0.75000000 </v>
    <v>       0.75000000       0.75000000       0.75000000 </v>
   </varray>
  </structure>
  <varray name="forces" >
   <v>       0.00000000       0.00000000       0.00000000 </v>
   <v>       0.00000000       0.00000000       0.00000000 </v>
   <v>       0.00000000       0.00000000       0.00000000 </v>
   <v>       0.00000000      -0.00000000       0.00000000 </v>
   <v>       0.00000000       0.00000000       0.00000000 </v>
   <v>       0.00000000      -0.00000000      -0.00000000 </v>
   <v>      -0.00000000      -0.00000000      -0.00000000 </v>
   <v>       0.00000000      -0.00000000       0.00000000 </v>
   <v>      -0.00000000      -0.00000000      -0.00000000 </v>
   <v>      -0.00000000      -0.00000000      -0.00000000 </v>
   <v>      -0.00000000       0.00000000      -0.00000000 </v>
   <v>       0.00000000       0.00000000       0.00000000 </v>
   <v>      -0.00000000       0.00000000      -0.00000000 </v>
   <v>      -0.00000000       0.00000000       0.00000000 </v>
   <v>      -0.00000000       0.00000000       0.00000000 </v>
   <v>      -0.00000000       0.00000000      -0.00000000 </v>
   <v>      -0.00000000       0.00000000       0.00000000 </v>
   <v>       0.00000000       0.00000000       0.00000000 </v>
   <v>       0.00000000      -0.00000000       0.00000000 </v>
   <v>       0.00000000       0.00000000       0.00000000 </v>
   <v>       0.00000000      -0.00000000       0.00000000 </v>
   <v>       0.00000000      -0.00000000       0.00000000 </v>
   <v>       0.00000000      -0.00000000      -0.00000000 </v>
   <v>       0.00000000       0.00000000       0.00000000 </v>
   <v>      -0.00000000       0.00000000      -0.00000000 </v>
   <v>      -0.00000000      -0.00000000      -0.00000000 </v>
   <v>       0.00000000      -0.00000000      -0.00000000 </v>
   <v>      -0.00000000       0.00000000      -0.00000000 </v>
   <v>      -0.00000000       0.00000000      -0.00000000 </v>
   <v>      -0.00000000       0.00000000      -0.00000000 </v>
   <v>      -0.00000000       0.00000000      -0.00000000 </v>
   <v>      -0.00000000       0.00000000      -0.00000000 </v>
   <v>       0.00000000       0.00000000       0.00000000 </v>
   <v>       0.00000000      -0.00000000       0.00000000 </v>
   <v>       0.00000000      -0.00000000      -0.00000000 </v>
   <v>       0.00000000       0.00000000       0.00000000 </v>
   <v>       0.00000000       0.00000000       0.00000000 </v>
   <v>      -0.00000000      -0.00000000      -0.00000000 </v>
   <v>      -0.00000000      -0.00000000      -0.00000000 </v>
   <v>       0.00000000      -0.00000000       0.00000000 </v>
   <v>      -0.00000000      -0.00000000      -0.00000000 </v>
   <v>      -0.00000000       0.00000000      -0.00000000 </v>
   <v>      -0.00000000       0.00000000      -0.00000000 </v>
   <v>      -0.00000000       0.00000000      -0.00000000 </v>
   <v>       0.00000000       0.00000000      -0.00000000 </v>
   <v>      -0.00000000       0.00000000      -0.00000000 </v>
   <v>       0.00000000      -0.00000000      -0.00000000 </v>
   <v>      -0.00000000       0.00000000       0.00000000 </v>
   <v>       0.00000000       0.00000000       0.00000000 </v>
   <v>       0.00000000       0.00000000       0.00000000 </v>
   <v>       0.00000000       0.00000000       0.00000000 </v>
   <v>       0.00000000       0.00000000       0.00000000 </v>
   <v>       0.00000000      -0.00000000      -0.00000000 </v>
   <v>       0.00000000      -0.00000000       0.00000000 </v>
   <v>      -0.00000000      -0.00000000      -0.00000000 </v>
   <v>       0.00000000      -0.00000000       0.00000000 </v>
   <v>       0.00000000      -0.00000000      -0.00000000 </v>
   <v>      -0.00000000      -0.00000000       0.00000000 </v>
   <v>      -0.00000000      -0.00000000      -0.00000000 </v>
   <v>      -0.00000000      -0.00000000      -0.00000000 </v>
   <v>      -0.00000000       0.00000000      -0.00000000 </v>
   <v>      -0.00000000       0.00000000      -0.00000000 </v>
   <v>      -0.00000000       0.00000000       0.00000000 </v>
   <v>       0.00000000       0.00000000      -0.00000000 </v>
  </varray>
  <varray name="stress" >
   <v>    -271.38932914      -0.00000000       0.00000000 </v>
   <v>      -0.00000000    -271.38932914      -0.00000000 </v>
   <v>      -0.00000000      -0.00000000    -271.38932914 </v>
  </varray>
  <energy>
   <i name="e_fr_energy">   -580.30530855 </i>
   <i name="e_wo_entrp">   -580.30530855 </i>
   <i name="e_0_energy">     -0.00000000 </i>
  </energy>
  <kpoints>
   <generation param="Gamma">
    <v type="int" name="divisions">       8        8        8 </v>
    <v name="usershift">      0.00000000       0.00000000       0.00000000 </v>
    <v name="genvec1">      0.12500000       0.00000000       0.00000000 </v>
    <v name="genvec2">      0.00000000       0.12500000       0.00000000 </v>
    <v name="genvec3">      0.00000000       0.00000000       0.12500000 </v>
    <v name="shift">      0.00000000       0.00000000       0.00000000 </v>
   </generation>
   <varray name="kpointlist" >
    <v>       0.00000000       0.00000000       0.00000000 </v>
    <v>       0.12500000       0.00000000       0.00000000 </v>
    <v>       0.25000000       0.00000000       0.00000000 </v>
    <v>       0.37500000       0.00000000       0.00000000 </v>
    <v>       0.50000000       0.00000000       0.00000000 </v>
    <v>       0.00000000       0.12500000       0.00000000 </v>
    <v>       0.12500000       0.12500000       0.00000000 </v>
    <v>       0.25000000       0.12500000       0.00000000 </v>
    <v>       0.37500000       0.12500000       0.00000000 </v>
    <v>       0.50000000       0.12500000       0.00000000 </v>
    <v>       0.00000000       0.25000000       0.00000000 </v>
    <v>       0.12500000       0.25000000       0.00000000 </v>
    <v>       0.25000000       0.25000000       0.00000000 </v>
    <v>       0.37500000       0.25000000       0.00000000 </v>
    <v>       0.50000000       0.25000000       0.00000000 </v>
    <v>       0.00000000       0.37500000       0.00000000 </v>
    <v>       0.12500000       0.37500000       0.00000000 </v>
    <v>       0.25000000       0.37500000       0.00000000 </v>
    <v>       0.37500000       0.37500000       0.00000000 </v>
    <v>       0.50000000       0.37500000       0.00000000 </v>
    <v>       0.00000000       0.50000000       0.00000000 </v>
    <v>       0.12500000       0.50000000       0.00000000 </v>
    <v>       0.25000000       0.50000000       0.00000000 </v>
    <v>       0.37500000       0.50000000       0.00000000 </v>
    <v>       0.50000000       0.50000000       0.00000000 </v>
    <v>       0.00000000       0.12500000       0.12500000 </v>
    <v>       0.12500000       0.12500000       0.12500000 </v>
    <v>       0.25000000       0.12500000       0.12500000 </v>
    <v>       0.37500000       0.12500000       0.12500000 </v>
    <v>       0.50000000       0.12500000       0.12500000 </v>
    <v>       0.00000000       0.25000000       0.12500000 </v>
    <v>       0.12500000       0.25000000       0.12500000 </v>
    <v>       0.25000000       0.25000000       0.12500000 </v>
    <v>       0.37500000       0.25000000       0.12500000 </v>
    <v>       0.50000000       0.25000000       0.12500000 </v>
    <v>       0.00000000       0.37500000       0.12500000 </v>
    <v>       0.12500000       0.37500000       0.12500000 </v>
    <v>       0.25000000       0.37500000       0.12500000 </v>
    <v>       0.37500000       0.37500000       0.12500000 </v>
    <v>       0.50000000       0.37500000       0.12500000 </v>
    <v>       0.00000000       0.50000000       0.12500000 </v>
    <v>       0.12500000       0.50000000       0.12500000 </v>
    <v>       0.25000000       0.50000000       0.12500000 </v>
    <v>       0.37500000       0.50000000       0.12500000 </v>
    <v>       0.50000000       0.50000000       0.12500000 </v>
    <v>       0.00000000      -0.37500000       0.12500000 </v>
    <v>       0.12500000      -0.37500000       0.12500000 </v>
    <v>       0.25000000      -0.37500000       0.12500000 </v>
    <v>       0.37500000      -0.37500000       0.12500000 </v>
    <v>       0.50000000      -0.37500000       0.12500000 </v>
    <v>       0.00000000      -0.25000000       0.12500000 </v>
    <v>       0.12500000      -0.25000000       0.12500000 </v>
    <v>       0.25000000      -0.25000000       0.12500000 </v>
    <v>       0.37500000      -0.25000000       0.12500000 </v>
    <v>       0.50000000      -0.25000000       0.12500000 </v>
    <v>       0.00000000      -0.12500000       0.12500000 </v>
    <v>       0.12500000      -0.12500000       0.12500000 </v>
    <v>       0.25000000      -0.12500000       0.12500000 </v>
    <v>       0.37500000      -0.12500000       0.12500000 </v>
    <v>       0.50000000      -0.12500000       0.12500000 </v>
    <v>       0.00000000       0.25000000       0.25000000 </v>
    <v>       0.12500000       0.25000000       0.25000000 </v>
    <v>       0.25000000       0.25000000       0.25000000 </v>
    <v>       0.37500000       0.25000000       0.25000000 </v>
    <v>       0.50000000       0.25000000       0.25000000 </v>
    <v>       0.00000000       0.37500000       0.25000000 </v>
    <v>       0.12500000       0.37500000       0.25000000 </v>
    <v>       0.25000000       0.37500000       0.25000000 </v>
    <v>       0.37500000       0.37500000       0.25000000 </v>
    <v>       0.50000000       0.37500000       0.25000000 </v>
    <v>       0.00000000       0.50000000       0.25000000 </v>
    <v>       0.12500000       0.50000000       0.25000000 </v>
    <v>       0.25000000       0.50000000       0.25000000 </v>
    <v>       0.37500000       0.50000000       0.25000000 </v>
    <v>       0.50000000       0.50000000       0.25000000 </v>
    <v>       0.00000000      -0.37500000       0.25000000 </v>
    <v>       0.12500000      -0.37500000       0.25000000 </v>
    <v>       0.25000000      -0.37500000       0.25000000 </v>
    <v>       0.37500000      -0.37500000       0.25000000 </v>
    <v>       0.50000000      -0.37500000       0.25000000 </v>
    <v>       0.00000000      -0.25000000       0.25000000 </v>
    <v>       0.12500000      -0.25000000       0.25000000 </v>
    <v>       0.25000000      -0.25000000       0.25000000 </v>
    <v>       0.37500000      -0.25000000       0.25000000 </v>
    <v>       0.50000000      -0.25000000       0.25000000 </v>
    <v>       0.00000000       0.37500000       0.37500000 </v>
    <v>       0.12500000       0.37500000       0.37500000 </v>
    <v>       0.25000000       0.37500000       0.37500000 </v>
    <v>       0.37500000       0.37500000       0.37500000 </v>
    <v>       0.50000000       0.37500000       0.37500000 </v>
    <v>       0.00000000       0.50000000       0.37500000 </v>
    <v>       0.12500000       0.50000000       0.37500000 </v>
    <v>       0.25000000       0.50000000       0.37500000 </v>
    <v>       0.37500000       0.50000000       0.37500000 </v>
    <v>       0.50000000       0.50000000       0.37500000 </v>
    <v>       0.00000000      -0.37500000       0.37500000 </v>
    <v>       0.12500000      -0.37500000       0.37500000 </v>
    <v>       0.25000000      -0.37500000       0.37500000 </v>
    <v>       0.37500000      -0.37500000       0.37500000 </v>
    <v>       0.50000000      -0.37500000       0.37500000 </v>
    <v>       0.00000000       0.50000000       0.50000000 </v>
    <v>       0.12500000       0.50000000       0.50000000 </v>
    <v>       0.25000000       0.50000000       0.50000000 </v>
    <v>       0.37500000       0.50000000       0.50000000 </v>
    <v>       0.50000000       0.50000000       0.50000000 </v>
   </varray>
   <varray name="weights" >
    <v>       0.00195312 </v>
    <v>       0.00390625 </v>
    <v>       0.00390625 </v>
    <v>       0.00390625 </v>
    <v>       0.00195312 </v>
    <v>       0.00781250 </v>
    <v>       0.01562500 </v>
    <v>       0.01562500 </v>
    <v>       0.01562500 </v>
    <v>       0.00781250 </v>
    <v>       0.00781250 </v>
    <v>       0.01562500 </v>
    <v>       0.01562500 </v>
    <v>       0.01562500 </v>
    <v>       0.00781250 </v>
    <v>       0.00781250 </v>
    <v>       0.01562500 </v>
    <v>       0.01562500 </v>
    <v>       0.01562500 </v>
    <v>       0.00781250 </v>
    <v>       0.00390625 </v>
    <v>       0.00781250 </v>
    <v>       0.00781250 </v>
    <v>       0.00781250 </v>
    <v>       0.00390625 </v>
    <v>       0.00390625 </v>
    <v>       0.00781250 </v>
    <v>       0.00781250 </v>
    <v>       0.00781250 </v>
    <v>       0.00390625 </v>
    <v>       0.00781250 </v>
    <v>       0.01562500 </v>
    <v>       0.01562500 </v>
    <v>       0.01562500 </v>
    <v>       0.00781250 </v>
    <v>       0.00781250 </v>
    <v>       0.01562500 </v>
    <v>       0.01562500 </v>
    <v>       0.01562500 </v>
    <v>       0.00781250 </v>
    <v>       0.00781250 </v>
    <v>       0.01562500 </v>
    <v>       0.01562500 </v>
    <v>       0.01562500 </v>
    <v>       0.00781250 </v>
    <v>       0.00781250 </v>
    <v>       0.01562500 </v>
    <v>       0.01562500 </v>
    <v>       0.01562500 </v>
    <v>       0.00781250 </v>
    <v>       0.00781250 </v>
    <v>       0.01562500 </v>
    <v>       0.01562500 </v>
    <v>       0.01562500 </v>
    <v>       0.00781250 </v>
    <v>       0.00390625 </v>
    <v>       0.00781250 </v>
    <v>       0.00781250 </v>
    <v>       0.00781250 </v>
    <v>       0.00390625 </v>
    <v>       0.00390625 </v>
    <v>       0.00781250 </v>
    <v>       0.00781250 </v>
    <v>       0.00781250 </v>
    <v>       0.00390625 </v>
    <v>       0.00781250 </v>
    <v>       0.01562500 </v>
    <v>       0.01562500 </v>
    <v>       0.01562500 </v>
    <v>       0.00781250 </v>
    <v>       0.00781250 </v>
    <v>       0.01562500 </v>
    <v>       0.01562500 </v>
    <v>       0.01562500 </v>
    <v>       0.00781250 </v>
    <v>       0.00781250 </v>
    <v>       0.01562500 </v>
    <v>       0.01562500 </v>
    <v>       0.01562500 </v>
    <v>       0.00781250 </v>
    <v>       0.00390625 </v>
    <v>       0.00781250 </v>
    <v>       0.00781250 </v>
    <v>       0.00781250 </v>
    <v>       0.00390625 </v>
    <v>       0.00390625 </v>
    <v>       0.00781250 </v>
    <v>       0.00781250 </v>
    <v>       0.00781250 </v>
    <v>       0.00390625 </v>
    <v>       0.00781250 </v>
    <v>       0.01562500 </v>
    <v>       0.01562500 </v>
    <v>       0.01562500 </v>
    <v>       0.00781250 </v>
    <v>       0.00390625 </v>
    <v>       0.00781250 </v>
    <v>       0.00781250 </v>
    <v>       0.00781250 </v>
    <v>       0.00390625 </v>
    <v>       0.00195312 </v>
    <v>       0.00390625 </v>
    <v>       0.00390625 </v>
    <v>       0.00390625 </v>
    <v>       0.00195312 </v>
   </varray>
  </kpoints>
  <scstep>
   <time name="total">   87.35   87.35</time>
   <energy>
    <i name="e_fr_energy">   -353.94957336 </i>
    <i name="e_wo_entrp">   -353.94957336 </i>
    <i name="e_0_energy">   -353.94957336 </i>
   </energy>
  </scstep>
  <scstep>
   <time name="total">   67.60   67.61</time>
   <energy>
    <i name="e_fr_energy">   -304.08072020 </i>
    <i name="e_wo_entrp">   -304.08072020 </i>
    <i name="e_0_energy">   -304.08072020 </i>
   </energy>
  </scstep>
  <scstep>
   <time name="total">   69.16   69.17</time>
   <energy>
    <i name="e_fr_energy">   -303.84481920 </i>
    <i name="e_wo_entrp">   -303.84481920 </i>
    <i name="e_0_energy">   -303.84481920 </i>
   </energy>
  </scstep>
  <scstep>
   <time name="total">   67.94   67.94</time>
   <energy>
    <i name="e_fr_energy">   -304.39158628 </i>
    <i name="e_wo_entrp">   -304.39158628 </i>
    <i name="e_0_energy">   -304.39158628 </i>
   </energy>
  </scstep>
  <scstep>
   <time name="total">   67.68   67.68</time>
   <energy>
    <i name="e_fr_energy">   -304.56040830 </i>
    <i name="e_wo_entrp">   -304.56040830 </i>
    <i name="e_0_energy">   -304.56040830 </i>
   </energy>
  </scstep>
  <scstep>
   <time name="total">   69.38   69.38</time>
   <energy>
    <i name="e_fr_energy">   -304.51677623 </i>
    <i name="e_wo_entrp">   -304.51677623 </i>
    <i name="e_0_energy">   -304.51677623 </i>
   </energy>
  </scstep>
  <scstep>
   <time name="total">   70.66   70.66</time>
   <energy>
    <i name="e_fr_energy">   -304.49559889 </i>
    <i name="e_wo_entrp">   -304.49559889 </i>
    <i name="e_0_energy">   -304.49559889 </i>
   </energy>
  </scstep>
  <scstep>
   <time name="total">   71.24   71.24</time>
   <energy>
    <i name="e_fr_energy">   -304.49449795 </i>
    <i name="e_wo_entrp">   -304.49449795 </i>
    <i name="e_0_energy">   -304.49449795 </i>
   </energy>
  </scstep>
  <scstep>
   <time name="total">   74.09   74.10</time>
   <energy>
    <i name="e_fr_energy">   -304.49387441 </i>
    <i name="e_wo_entrp">   -304.49387441 </i>
    <i name="e_0_energy">   -304.49387441 </i>
   </energy>
  </scstep>
  <scstep>
   <time name="total">   76.63   76.63</time>
   <energy>
    <i name="e_fr_energy">   -304.49409412 </i>
    <i name="e_wo_entrp">   -304.49409412 </i>
    <i name="e_0_energy">   -304.49409412 </i>
   </energy>
  </scstep>
  <scstep>
   <time name="total">   76.23   76.23</time>
   <energy>
    <i name="e_fr_energy">   -304.49410518 </i>
    <i name="e_wo_entrp">   -304.49410518 </i>
    <i name="e_0_energy">   -304.49410518 </i>
   </energy>
  </scstep>
  <kpoints>
   <generation param="Gamma">
    <v type="int" name="divisions">       8        8        8 </v>
    <v name="usershift">      0.00000000       0.00000000       0.00000000 </v>
    <v name="genvec1">      0.12500000       0.00000000       0.00000000 </v>
    <v name="genvec2">      0.00000000       0.12500000       0.00000000 </v>
    <v name="genvec3">      0.00000000       0.00000000       0.12500000 </v>
    <v name="shift">      0.00000000       0.00000000       0.00000000 </v>
   </generation>
   <varray name="kpointlist" >
    <v>       0.00000000       0.00000000       0.00000000 </v>
    <v>       0.12500000       0.00000000       0.00000000 </v>
    <v>       0.25000000       0.00000000       0.00000000 </v>
    <v>       0.37500000       0.00000000       0.00000000 </v>
    <v>       0.50000000       0.00000000       0.00000000 </v>
    <v>       0.12500000       0.12500000       0.00000000 </v>
    <v>       0.25000000       0.12500000       0.00000000 </v>
    <v>       0.37500000       0.12500000       0.00000000 </v>
    <v>       0.50000000       0.12500000       0.00000000 </v>
    <v>       0.25000000       0.25000000       0.00000000 </v>
    <v>       0.37500000       0.25000000       0.00000000 </v>
    <v>       0.50000000       0.25000000       0.00000000 </v>
    <v>       0.37500000       0.37500000       0.00000000 </v>
    <v>       0.50000000       0.37500000       0.00000000 </v>
    <v>       0.50000000       0.50000000       0.00000000 </v>
    <v>       0.12500000       0.12500000       0.12500000 </v>
    <v>       0.25000000       0.12500000       0.12500000 </v>
    <v>       0.37500000       0.12500000       0.12500000 </v>
    <v>       0.50000000       0.12500000       0.12500000 </v>
    <v>       0.25000000       0.25000000       0.12500000 </v>
    <v>       0.37500000       0.25000000       0.12500000 </v>
    <v>       0.50000000       0.25000000       0.12500000 </v>
    <v>       0.37500000       0.37500000       0.12500000 </v>
    <v>       0.50000000       0.37500000       0.12500000 </v>
    <v>       0.50000000       0.50000000       0.12500000 </v>
    <v>       0.25000000       0.25000000       0.25000000 </v>
    <v>       0.37500000       0.25000000       0.25000000 </v>
    <v>       0.50000000       0.25000000       0.25000000 </v>
    <v>       0.37500000       0.37500000       0.25000000 </v>
    <v>       0.50000000       0.37500000       0.25000000 </v>
    <v>       0.50000000       0.50000000       0.25000000 </v>
    <v>       0.37500000       0.37500000       0.37500000 </v>
    <v>       0.50000000       0.37500000       0.37500000 </v>
    <v>       0.50000000       0.50000000       0.37500000 </v>
    <v>       0.50000000       0.50000000       0.50000000 </v>
   </varray>
   <varray name="weights" >
    <v>       0.00195312 </v>
    <v>       0.01171875 </v>
    <v>       0.01171875 </v>
    <v>       0.01171875 </v>
    <v>       0.00585938 </v>
    <v>       0.02343750 </v>
    <v>       0.04687500 </v>
    <v>       0.04687500 </v>
    <v>       0.02343750 </v>
    <v>       0.02343750 </v>
    <v>       0.04687500 </v>
    <v>       0.02343750 </v>
    <v>       0.02343750 </v>
    <v>       0.02343750 </v>
    <v>       0.00585938 </v>
    <v>       0.01562500 </v>
    <v>       0.04687500 </v>
    <v>       0.04687500 </v>
    <v>       0.02343750 </v>
    <v>       0.04687500 </v>
    <v>       0.09375000 </v>
    <v>       0.04687500 </v>
    <v>       0.04687500 </v>
    <v>       0.04687500 </v>
    <v>       0.01171875 </v>
    <v>       0.01562500 </v>
    <v>       0.04687500 </v>
    <v>       0.02343750 </v>
    <v>       0.04687500 </v>
    <v>       0.04687500 </v>
    <v>       0.01171875 </v>
    <v>       0.01562500 </v>
    <v>       0.02343750 </v>
    <v>       0.01171875 </v>
    <v>       0.00195312 </v>
   </varray>
  </kpoints>
  <dynmat>
   <varray name="hessian" >
    <v>      -3.23902064       0.00000000       0.00000000       0.01229321      -0.00000000      -0.00000000       0.00758077      -0.00000000       0.00000000       0.00841671       0.00000000       0.00000000       0.00758077       0.00000000      -0.00000000       0.00841671       0.00000000      -0.00000000      -0.04646701       0.00000000      -0.00000000       0.00404276      -0.00000000       0.00000000      -0.01246878      -0.00752631       0.00112764       0.00602201      -0.00748385      -0.01649860       0.67243314      -0.09874717      -0.09874717      -0.00530844      -0.00752631      -0.00752631       0.02798033      -0.01649860      -0.01649860      -0.00268247      -0.00259171      -0.00259171      -0.01246878       0.00112764      -0.00752631       0.00602201      -0.01649860      -0.00748385      -0.10934237       0.05462729      -0.05462729      -0.00412035       0.00285987      -0.00285987      -0.10934237       0.05462729       0.05462729      -0.00412035       0.00285987       0.00285987      -0.10934237      -0.05462729      -0.05462729      -0.00412035      -0.00285987      -0.00285987      -0.10934237      -0.05462729       0.05462729      -0.00412035      -0.00285987       0.00285987       0.67243314       0.09874717       0.09874717      -0.00530844       0.00752631       0.00752631      -0.01246878       0.00752631      -0.00112764       0.00602201       0.00748385       0.01649860      -0.01246878      -0.00112764       0.00752631       0.00602201       0.01649860       0.00748385       0.02798033       0.01649860       0.01649860      -0.00268247       0.00259171       0.00259171       0.11505323      -0.05462729       0.11915773       0.11505323      -0.05462729      -0.11915773       0.00655821      -0.00285987      -0.00643939       0.00655821      -0.00285987       0.00643939       0.11505323       0.05462729      -0.11915773       0.11505323       0.05462729       0.11915773       0.00655821       0.00285987       0.00643939       0.00655821       0.00285987      -0.00643939      -0.01246878       0.00752631       0.00112764       0.00602201       0.00748385      -0.01649860       0.67243314       0.09874717      -0.09874717      -0.00530844       0.00752631      -0.00752631       0.02798033       0.01649860      -0.01649860      -0.00268247       0.00259171      -0.00259171      -0.01246878      -0.00112764      -0.00752631       0.00602201       0.01649860      -0.00748385       0.11505323      -0.11915773       0.05462729       0.11505323       0.11915773       0.05462729       0.11505323       0.11915773      -0.05462729       0.11505323      -0.11915773      -0.05462729       0.00655821       0.00643939       0.00285987       0.00655821      -0.00643939       0.00285987       0.00655821      -0.00643939      -0.00285987       0.00655821       0.00643939      -0.00285987       0.67243314      -0.09874717       0.09874717      -0.00530844      -0.00752631       0.00752631      -0.01246878      -0.00752631      -0.00112764       0.00602201      -0.00748385       0.01649860      -0.01246878       0.00112764       0.00752631       0.00602201      -0.01649860       0.00748385       0.02798033      -0.01649860       0.01649860      -0.00268247      -0.00259171       0.00259171 </v>
    <v>       0.00000000      -3.23902064       0.00000000      -0.00000000       0.00758077       0.00000000      -0.00000000       0.01229321      -0.00000000       0.00000000       0.00841671       0.00000000       0.00000000       0.00758077      -0.00000000       0.00000000      -0.04646701      -0.00000000       0.00000000       0.00841671      -0.00000000      -0.00000000       0.00404276       0.00000000      -0.00752631      -0.00530844       0.00752631      -0.00748385       0.00602201       0.01649860      -0.09874717       0.67243314       0.09874717      -0.00752631      -0.01246878      -0.00112764      -0.01649860       0.00602201       0.00748385      -0.00259171      -0.00268247       0.00259171       0.00112764      -0.01246878       0.00752631      -0.01649860       0.02798033       0.01649860      -0.05462729       0.11505323      -0.11915773      -0.00285987       0.00655821       0.00643939      -0.05462729       0.11505323       0.11915773      -0.00285987       0.00655821      -0.00643939       0.05462729       0.11505323       0.11915773       0.00285987       0.00655821      -0.00643939       0.05462729       0.11505323      -0.11915773       0.00285987       0.00655821       0.00643939       0.09874717       0.67243314       0.09874717       0.00752631      -0.01246878      -0.00112764       0.00752631      -0.00530844       0.00752631       0.00748385       0.00602201       0.01649860      -0.00112764      -0.01246878       0.00752631       0.01649860       0.02798033       0.01649860       0.01649860       0.00602201       0.00748385       0.00259171      -0.00268247       0.00259171       0.05462729      -0.10934237       0.05462729       0.05462729      -0.10934237      -0.05462729       0.00285987      -0.00412035       0.00285987       0.00285987      -0.00412035      -0.00285987      -0.05462729      -0.10934237       0.05462729      -0.05462729      -0.10934237      -0.05462729      -0.00285987      -0.00412035       0.00285987      -0.00285987      -0.00412035      -0.00285987       0.00752631      -0.00530844      -0.00752631       0.00748385       0.00602201      -0.01649860       0.09874717       0.67243314      -0.09874717       0.00752631      -0.01246878       0.00112764       0.01649860       0.00602201      -0.00748385       0.00259171      -0.00268247      -0.00259171      -0.00112764      -0.01246878      -0.00752631       0.01649860       0.02798033      -0.01649860      -0.11915773       0.11505323      -0.05462729       0.11915773       0.11505323       0.05462729       0.11915773       0.11505323      -0.05462729      -0.11915773       0.11505323       0.05462729       0.00643939       0.00655821      -0.00285987      -0.00643939       0.00655821       0.00285987      -0.00643939       0.00655821      -0.00285987       0.00643939       0.00655821       0.00285987      -0.09874717       0.67243314      -0.09874717      -0.00752631      -0.01246878       0.00112764      -0.00752631      -0.00530844      -0.00752631      -0.00748385       0.00602201      -0.01649860       0.00112764      -0.01246878      -0.00752631      -0.01649860       0.02798033      -0.01649860      -0.01649860       0.00602201      -0.00748385      -0.00259171      -0.00268247      -0.00259171 </v>
    <v>       0.00000000       0.00000000      -3.23902064      -0.00000000       0.00000000       0.00758077       0.00000000      -0.00000000       0.00758077       0.00000000       0.00000000      -0.04646701      -0.00000000      -0.00000000       0.01229321      -0.00000000      -0.00000000       0.00841671      -0.00000000      -0.00000000       0.00841671       0.00000000       0.00000000       0.00404276       0.00112764       0.00752631      -0.01246878      -0.01649860       0.01649860       0.02798033      -0.09874717       0.09874717       0.67243314      -0.00752631      -0.00112764      -0.01246878      -0.01649860       0.00748385       0.00602201      -0.00259171       0.00259171      -0.00268247      -0.00752631       0.00752631      -0.00530844      -0.00748385       0.01649860       0.00602201       0.05462729      -0.11915773       0.11505323       0.00285987       0.00643939       0.00655821      -0.05462729       0.11915773       0.11505323      -0.00285987      -0.00643939       0.00655821       0.05462729       0.11915773       0.11505323       0.00285987      -0.00643939       0.00655821      -0.05462729      -0.11915773       0.11505323      -0.00285987       0.00643939       0.00655821       0.09874717       0.09874717       0.67243314       0.00752631      -0.00112764      -0.01246878      -0.00112764       0.00752631      -0.01246878       0.01649860       0.01649860       0.02798033       0.00752631       0.00752631      -0.00530844       0.00748385       0.01649860       0.00602201       0.01649860       0.00748385       0.00602201       0.00259171       0.00259171      -0.00268247       0.11915773      -0.05462729       0.11505323      -0.11915773       0.05462729       0.11505323      -0.00643939      -0.00285987       0.00655821       0.00643939       0.00285987       0.00655821      -0.11915773      -0.05462729       0.11505323       0.11915773       0.05462729       0.11505323       0.00643939      -0.00285987       0.00655821      -0.00643939       0.00285987       0.00655821       0.00112764      -0.00752631      -0.01246878      -0.01649860      -0.01649860       0.02798033      -0.09874717      -0.09874717       0.67243314      -0.00752631       0.00112764      -0.01246878      -0.01649860      -0.00748385       0.00602201      -0.00259171      -0.00259171      -0.00268247      -0.00752631      -0.00752631      -0.00530844      -0.00748385      -0.01649860       0.00602201      -0.05462729       0.05462729      -0.10934237      -0.05462729      -0.05462729      -0.10934237       0.05462729       0.05462729      -0.10934237       0.05462729      -0.05462729      -0.10934237      -0.00285987       0.00285987      -0.00412035      -0.00285987      -0.00285987      -0.00412035       0.00285987       0.00285987      -0.00412035       0.00285987      -0.00285987      -0.00412035       0.09874717      -0.09874717       0.67243314       0.00752631       0.00112764      -0.01246878      -0.00112764      -0.00752631      -0.01246878       0.01649860      -0.01649860       0.02798033       0.00752631      -0.00752631      -0.00530844       0.00748385      -0.01649860       0.00602201       0.01649860      -0.00748385       0.00602201       0.00259171      -0.00259171      -0.00268247 </v>
    <v>       0.01229321      -0.00000000      -0.00000000      -3.23902064       0.00000000       0.00000000       0.00841671       0.00000000       0.00000000       0.00758077      -0.00000000       0.00000000       0.00841671       0.00000000      -0.00000000       0.00758077       0.00000000      -0.00000000       0.00404276      -0.00000000       0.00000000      -0.04646701       0.00000000      -0.00000000       0.00602201      -0.00748385      -0.01649860      -0.01246878      -0.00752631       0.00112764      -0.00530844      -0.00752631      -0.00752631       0.67243314      -0.09874717      -0.09874717      -0.00268247      -0.00259171      -0.00259171       0.02798033      -0.01649860      -0.01649860       0.00602201      -0.01649860      -0.00748385      -0.01246878       0.00112764      -0.00752631      -0.00412035       0.00285987      -0.00285987      -0.10934237       0.05462729      -0.05462729      -0.00412035       0.00285987       0.00285987      -0.10934237       0.05462729       0.05462729      -0.00412035      -0.00285987      -0.00285987      -0.10934237      -0.05462729      -0.05462729      -0.00412035      -0.00285987       0.00285987      -0.10934237      -0.05462729       0.05462729      -0.00530844       0.00752631       0.00752631       0.67243314       0.09874717       0.09874717       0.00602201       0.00748385       0.01649860      -0.01246878       0.00752631      -0.00112764       0.00602201       0.01649860       0.00748385      -0.01246878      -0.00112764       0.00752631      -0.00268247       0.00259171       0.00259171       0.02798033       0.01649860       0.01649860       0.11505323      -0.05462729      -0.11915773       0.11505323      -0.05462729       0.11915773       0.00655821      -0.00285987       0.00643939       0.00655821      -0.00285987      -0.00643939       0.11505323       0.05462729       0.11915773       0.11505323       0.05462729      -0.11915773       0.00655821       0.00285987      -0.00643939       0.00655821       0.00285987       0.00643939       0.00602201       0.00748385      -0.01649860      -0.01246878       0.00752631       0.00112764      -0.00530844       0.00752631      -0.00752631       0.67243314       0.09874717      -0.09874717      -0.00268247       0.00259171      -0.00259171       0.02798033       0.01649860      -0.01649860       0.00602201       0.01649860      -0.00748385      -0.01246878      -0.00112764      -0.00752631       0.11505323       0.11915773       0.05462729       0.11505323      -0.11915773       0.05462729       0.11505323      -0.11915773      -0.05462729       0.11505323       0.11915773      -0.05462729       0.00655821      -0.00643939       0.00285987       0.00655821       0.00643939       0.00285987       0.00655821       0.00643939      -0.00285987       0.00655821      -0.00643939      -0.00285987      -0.00530844      -0.00752631       0.00752631       0.67243314      -0.09874717       0.09874717       0.00602201      -0.00748385       0.01649860      -0.01246878      -0.00752631      -0.00112764       0.00602201      -0.01649860       0.00748385      -0.01246878       0.00112764       0.00752631      -0.00268247      -0.00259171       0.00259171       0.02798033      -0.01649860       0.01649860 </v>
    <v>      -0.00000000       0.00758077       0.00000000       0.00000000      -3.23902064       0.00000000       0.00000000       0.00841671       0.00000000      -0.00000000       0.01229321      -0.00000000       0.00000000      -0.04646701      -0.00000000       0.00000000       0.00758077      -0.00000000      -0.00000000       0.00404276       0.00000000       0.00000000       0.00841671      -0.00000000      -0.00748385       0.00602201       0.01649860      -0.00752631      -0.00530844       0.00752631      -0.00752631      -0.01246878      -0.00112764      -0.09874717       0.67243314       0.09874717      -0.00259171      -0.00268247       0.00259171      -0.01649860       0.00602201       0.00748385      -0.01649860       0.02798033       0.01649860       0.00112764      -0.01246878       0.00752631      -0.00285987       0.00655821       0.00643939      -0.05462729       0.11505323      -0.11915773      -0.00285987       0.00655821      -0.00643939      -0.05462729       0.11505323       0.11915773       0.00285987       0.00655821      -0.00643939       0.05462729       0.11505323       0.11915773       0.00285987       0.00655821       0.00643939       0.05462729       0.11505323      -0.11915773       0.00752631      -0.01246878      -0.00112764       0.09874717       0.67243314       0.09874717       0.00748385       0.00602201       0.01649860       0.00752631      -0.00530844       0.00752631       0.01649860       0.02798033       0.01649860      -0.00112764      -0.01246878       0.00752631       0.00259171      -0.00268247       0.00259171       0.01649860       0.00602201       0.00748385       0.05462729      -0.10934237      -0.05462729       0.05462729      -0.10934237       0.05462729       0.00285987      -0.00412035      -0.00285987       0.00285987      -0.00412035       0.00285987      -0.05462729      -0.10934237      -0.05462729      -0.05462729      -0.10934237       0.05462729      -0.00285987      -0.00412035      -0.00285987      -0.00285987      -0.00412035       0.00285987       0.00748385       0.00602201      -0.01649860       0.00752631      -0.00530844      -0.00752631       0.00752631      -0.01246878       0.00112764       0.09874717       0.67243314      -0.09874717       0.00259171      -0.00268247      -0.00259171       0.01649860       0.00602201      -0.00748385       0.01649860       0.02798033      -0.01649860      -0.00112764      -0.01246878      -0.00752631       0.11915773       0.11505323       0.05462729      -0.11915773       0.11505323      -0.05462729      -0.11915773       0.11505323       0.05462729       0.11915773       0.11505323      -0.05462729      -0.00643939       0.00655821       0.00285987       0.00643939       0.00655821      -0.00285987       0.00643939       0.00655821       0.00285987      -0.00643939       0.00655821      -0.00285987      -0.00752631      -0.01246878       0.00112764      -0.09874717       0.67243314      -0.09874717      -0.00748385       0.00602201      -0.01649860      -0.00752631      -0.00530844      -0.00752631      -0.01649860       0.02798033      -0.01649860       0.00112764      -0.01246878      -0.00752631      -0.00259171      -0.00268247      -0.00259171      -0.01649860       0.00602201      -0.00748385 </v>
    <v>      -0.00000000       0.00000000       0.00758077       0.00000000       0.00000000      -3.23902064       0.00000000       0.00000000      -0.04646701       0.00000000      -0.00000000       0.00758077      -0.00000000      -0.00000000       0.00841671      -0.00000000      -0.00000000       0.01229321       0.00000000       0.00000000       0.00404276      -0.00000000      -0.00000000       0.00841671      -0.01649860       0.01649860       0.02798033       0.00112764       0.00752631      -0.01246878      -0.00752631      -0.00112764      -0.01246878      -0.09874717       0.09874717       0.67243314      -0.00259171       0.00259171      -0.00268247      -0.01649860       0.00748385       0.00602201      -0.00748385       0.01649860       0.00602201      -0.00752631       0.00752631      -0.00530844       0.00285987       0.00643939       0.00655821       0.05462729      -0.11915773       0.11505323      -0.00285987      -0.00643939       0.00655821      -0.05462729       0.11915773       0.11505323       0.00285987      -0.00643939       0.00655821       0.05462729       0.11915773       0.11505323      -0.00285987       0.00643939       0.00655821      -0.05462729      -0.11915773       0.11505323       0.00752631      -0.00112764      -0.01246878       0.09874717       0.09874717       0.67243314       0.01649860       0.01649860       0.02798033      -0.00112764       0.00752631      -0.01246878       0.00748385       0.01649860       0.00602201       0.00752631       0.00752631      -0.00530844       0.00259171       0.00259171      -0.00268247       0.01649860       0.00748385       0.00602201      -0.11915773       0.05462729       0.11505323       0.11915773      -0.05462729       0.11505323       0.00643939       0.00285987       0.00655821      -0.00643939      -0.00285987       0.00655821       0.11915773       0.05462729       0.11505323      -0.11915773      -0.05462729       0.11505323      -0.00643939       0.00285987       0.00655821       0.00643939      -0.00285987       0.00655821      -0.01649860      -0.01649860       0.02798033       0.00112764      -0.00752631      -0.01246878      -0.00752631       0.00112764      -0.01246878      -0.09874717      -0.09874717       0.67243314      -0.00259171      -0.00259171      -0.00268247      -0.01649860      -0.00748385       0.00602201      -0.00748385      -0.01649860       0.00602201      -0.00752631      -0.00752631      -0.00530844      -0.05462729      -0.05462729      -0.10934237      -0.05462729       0.05462729      -0.10934237       0.05462729      -0.05462729      -0.10934237       0.05462729       0.05462729      -0.10934237      -0.00285987      -0.00285987      -0.00412035      -0.00285987       0.00285987      -0.00412035       0.00285987      -0.00285987      -0.00412035       0.00285987       0.00285987      -0.00412035       0.00752631       0.00112764      -0.01246878       0.09874717      -0.09874717       0.67243314       0.01649860      -0.01649860       0.02798033      -0.00112764      -0.00752631      -0.01246878       0.00748385      -0.01649860       0.00602201       0.00752631      -0.00752631      -0.00530844       0.00259171      -0.00259171      -0.00268247       0.01649860      -0.00748385       0.00602201 </v>
[...]
      </set>
     </set>
    </set>
   </array>
  </eigenvalues>
  <separator name="orbital magnetization" >
   <v name="MAGDIPOLOUT">      0.00000000      0.00000000      0.00000000</v>
  </separator>
  <dos>
   <i name="efermi">      9.19380297 </i>
   <total>
    <array>
     <dimension dim="1">gridpoints</dimension>
     <dimension dim="2">spin</dimension>
     <field>energy</field>
     <field>total</field>
     <field>integrated</field>
     <set>
      <set comment="spin 1">
       <r>   -13.3822     0.0000     0.0000 </r>
       <r>   -13.2653     0.0000     0.0000 </r>
       <r>   -13.1483     0.0000     0.0000 </r>
       <r>   -13.0314     0.0000     0.0000 </r>
       <r>   -12.9145     0.0000     0.0000 </r>
       <r>   -12.7975     0.0000     0.0000 </r>
       <r>   -12.6806     0.0000     0.0000 </r>
       <r>   -12.5637     0.0000     0.0000 </r>
       <r>   -12.4467     0.0000     0.0000 </r>
       <r>   -12.3298     0.0000     0.0000 </r>
       <r>   -12.2129     0.0000     0.0000 </r>
       <r>   -12.0959     0.0000     0.0000 </r>
       <r>   -11.9790     0.0000     0.0000 </r>
       <r>   -11.8620     0.0025     0.0003 </r>
       <r>   -11.7451     0.2713     0.0320 </r>
       <r>   -11.6282     1.1478     0.1662 </r>
       <r>   -11.5112     1.7059     0.3657 </r>
       <r>   -11.3943     2.3621     0.6419 </r>
       <r>   -11.2774     2.5380     0.9387 </r>
       <r>   -11.1604     2.8941     1.2771 </r>
       <r>   -11.0435     3.4535     1.6810 </r>
       <r>   -10.9266     2.8089     2.0094 </r>
       <r>   -10.8096     4.3334     2.5162 </r>
       <r>   -10.6927     3.6525     2.9433 </r>
       <r>   -10.5757     4.2831     3.4441 </r>
       <r>   -10.4588     4.2334     3.9391 </r>
       <r>   -10.3419     5.1785     4.5447 </r>
       <r>   -10.2249     4.7880     5.1046 </r>
       <r>   -10.1080     3.7627     5.5446 </r>
       <r>    -9.9911     6.1453     6.2632 </r>
       <r>    -9.8741     5.8685     6.9494 </r>
       <r>    -9.7572     4.7909     7.5097 </r>
       <r>    -9.6403     5.6126     8.1660 </r>
       <r>    -9.5233     6.2917     8.9017 </r>
       <r>    -9.4064     6.6329     9.6773 </r>
       <r>    -9.2894     5.3640    10.3046 </r>
       <r>    -9.1725     7.4885    11.1803 </r>
       <r>    -9.0556     5.0117    11.7663 </r>
       <r>    -8.9386     7.1210    12.5990 </r>
       <r>    -8.8217     7.1915    13.4400 </r>
       <r>    -8.7048     8.8940    14.4800 </r>
       <r>    -8.5878     5.5414    15.1280 </r>
       <r>    -8.4709     6.3784    15.8739 </r>
       <r>    -8.3540     8.9688    16.9226 </r>
       <r>    -8.2370     7.5949    17.8107 </r>
       <r>    -8.1201     8.5582    18.8115 </r>
       <r>    -8.0031     7.0492    19.6358 </r>
       <r>    -7.8862     8.8482    20.6705 </r>
       <r>    -7.7693     7.8900    21.5931 </r>
       <r>    -7.6523     8.1586    22.5472 </r>
       <r>    -7.5354     9.1914    23.6220 </r>
       <r>    -7.4185     9.8148    24.7697 </r>
       <r>    -7.3015     9.9319    25.9311 </r>
       <r>    -7.1846     8.7239    26.9512 </r>
       <r>    -7.0677     8.2897    27.9206 </r>
       <r>    -6.9507     8.9985    28.9728 </r>
       <r>    -6.8338    12.6926    30.4571 </r>
       <r>    -6.7168    10.5516    31.6909 </r>
       <r>    -6.5999    10.5876    32.9290 </r>
       <r>    -6.4830    10.7022    34.1805 </r>
       <r>    -6.3660    13.2486    35.7297 </r>
       <r>    -6.2491    11.4289    37.0662 </r>
       <r>    -6.1322    14.0087    38.7043 </r>
       <r>    -6.0152    11.2158    40.0158 </r>
       <r>    -5.8983    12.7141    41.5026 </r>
       <r>    -5.7814    15.0762    43.2655 </r>
       <r>    -5.6644    10.6150    44.5068 </r>
       <r>    -5.5475     9.0157    45.5611 </r>
       <r>    -5.4305    11.6756    46.9264 </r>
       <r>    -5.3136    10.3159    48.1327 </r>
       <r>    -5.1967     9.7966    49.2782 </r>
       <r>    -5.0797    13.6005    50.8686 </r>
       <r>    -4.9628     7.0826    51.6969 </r>
       <r>    -4.8459    11.5882    53.0519 </r>
       <r>    -4.7289     7.7437    53.9575 </r>
       <r>    -4.6120     9.1133    55.0231 </r>
       <r>    -4.4951     8.2401    55.9867 </r>
       <r>    -4.3781     7.9191    56.9127 </r>
       <r>    -4.2612     6.5317    57.6765 </r>
       <r>    -4.1442     9.0601    58.7360 </r>
       <r>    -4.0273     8.2816    59.7044 </r>
       <r>    -3.9104     8.2448    60.6685 </r>
       <r>    -3.7934     6.8749    61.4724 </r>
       <r>    -3.6765     4.8339    62.0377 </r>
       <r>    -3.5596     6.2382    62.7672 </r>
       <r>    -3.4426     8.0187    63.7048 </r>
       <r>    -3.3257    10.8389    64.9723 </r>
       <r>    -3.2088     8.3311    65.9465 </r>
       <r>    -3.0918     8.6357    66.9563 </r>
       <r>    -2.9749     7.1918    67.7973 </r>
       <r>    -2.8579     8.6089    68.8040 </r>
       <r>    -2.7410    10.3948    70.0196 </r>
       <r>    -2.6241     8.3247    70.9930 </r>
       <r>    -2.5071    10.8288    72.2593 </r>
       <r>    -2.3902    17.6035    74.3178 </r>
       <r>    -2.2733    26.7288    77.4434 </r>
       <r>    -2.1563    27.5236    80.6619 </r>
       <r>    -2.0394    15.3782    82.4601 </r>
       <r>    -1.9225    12.9649    83.9762 </r>
       <r>    -1.8055    15.5948    85.7998 </r>
       <r>    -1.6886    12.9523    87.3144 </r>
       <r>    -1.5716    14.9114    89.0581 </r>
       <r>    -1.4547    20.7297    91.4821 </r>
       <r>    -1.3378     9.6960    92.6160 </r>
       <r>    -1.2208    10.7370    93.8715 </r>
       <r>    -1.1039    10.9077    95.1470 </r>
       <r>    -0.9870     7.0141    95.9672 </r>
       <r>    -0.8700    10.3229    97.1743 </r>
       <r>    -0.7531    10.4428    98.3955 </r>
       <r>    -0.6362     9.4105    99.4959 </r>
       <r>    -0.5192    11.0000   100.7822 </r>
       <r>    -0.4023    12.5980   102.2554 </r>
       <r>    -0.2853     6.5672   103.0233 </r>
       <r>    -0.1684     3.6629   103.4516 </r>
       <r>    -0.0515     7.3348   104.3093 </r>
       <r>     0.0655    12.6165   105.7847 </r>
       <r>     0.1824    10.4724   107.0093 </r>
       <r>     0.2993     8.9760   108.0589 </r>
       <r>     0.4163    15.1983   109.8361 </r>
       <r>     0.5332    19.0343   112.0619 </r>
       <r>     0.6501    15.6183   113.8883 </r>
       <r>     0.7671    13.1380   115.4246 </r>
       <r>     0.8840    16.2142   117.3206 </r>
       <r>     1.0010    23.1026   120.0221 </r>
       <r>     1.1179    19.2113   122.2686 </r>
       <r>     1.2348    13.3440   123.8290 </r>
       <r>     1.3518    15.6275   125.6565 </r>
       <r>     1.4687    15.5864   127.4791 </r>
       <r>     1.5856    22.9263   130.1600 </r>
       <r>     1.7026    18.8581   132.3652 </r>
       <r>     1.8195    14.7737   134.0928 </r>
       <r>     1.9364    17.2296   136.1076 </r>
       <r>     2.0534    16.6025   138.0490 </r>
       <r>     2.1703    21.1092   140.5174 </r>
       <r>     2.2873    21.4410   143.0247 </r>
       <r>     2.4042    21.7958   145.5734 </r>
       <r>     2.5211    13.5240   147.1548 </r>
       <r>     2.6381    23.4022   149.8914 </r>
       <r>     2.7550    27.5434   153.1122 </r>
       <r>     2.8719    20.6582   155.5279 </r>
       <r>     2.9889    25.2627   158.4820 </r>
       <r>     3.1058    24.1832   161.3099 </r>
       <r>     3.2227    26.6949   164.4315 </r>
       <r>     3.3397    30.5498   168.0039 </r>
       <r>     3.4566    26.8306   171.1414 </r>
       <r>     3.5736    26.5488   174.2459 </r>
       <r>     3.6905    19.0610   176.4748 </r>
       <r>     3.8074    27.7672   179.7218 </r>
       <r>     3.9244    21.6142   182.2493 </r>
       <r>     4.0413    32.9104   186.0977 </r>
       <r>     4.1582    25.6400   189.0960 </r>
       <r>     4.2752    20.2113   191.4594 </r>
       <r>     4.3921    17.9967   193.5639 </r>
       <r>     4.5090    28.4730   196.8934 </r>
       <r>     4.6260    29.8000   200.3781 </r>
       <r>     4.7429    22.5883   203.0195 </r>
       <r>     4.8599    17.8590   205.1079 </r>
       <r>     4.9768    22.0983   207.6920 </r>
       <r>     5.0937    24.7355   210.5845 </r>
       <r>     5.2107    28.2675   213.8900 </r>
       <r>     5.3276    20.8579   216.3290 </r>
       <r>     5.4445    17.0678   218.3248 </r>
       <r>     5.5615    22.7641   220.9868 </r>
       <r>     5.6784    23.2197   223.7020 </r>
       <r>     5.7953    25.8306   226.7226 </r>
       <r>     5.9123    20.9722   229.1750 </r>
       <r>     6.0292    16.7673   231.1357 </r>
       <r>     6.1462    18.9101   233.3470 </r>
       <r>     6.2631    27.4504   236.5569 </r>
       <r>     6.3800    16.1911   238.4502 </r>
       <r>     6.4970    10.2901   239.6535 </r>
       <r>     6.6139    16.0024   241.5248 </r>
       <r>     6.7308    13.1127   243.0581 </r>
       <r>     6.8478    12.3740   244.5051 </r>
       <r>     6.9647    10.6136   245.7462 </r>
       <r>     7.0816     8.4901   246.7390 </r>
       <r>     7.1986    10.0020   247.9086 </r>
       <r>     7.3155     9.6828   249.0409 </r>
       <r>     7.4324     7.8764   249.9619 </r>
       <r>     7.5494     5.6255   250.6198 </r>
       <r>     7.6663     7.6291   251.5119 </r>
       <r>     7.7833     6.3466   252.2540 </r>
       <r>     7.9002     6.5305   253.0177 </r>
       <r>     8.0171     3.6428   253.4437 </r>
       <r>     8.1341     5.1297   254.0435 </r>
       <r>     8.2510     4.2627   254.5420 </r>
       <r>     8.3679     3.7476   254.9802 </r>
       <r>     8.4849     3.0661   255.3388 </r>
       <r>     8.6018     2.1064   255.5851 </r>
       <r>     8.7187     2.3430   255.8591 </r>
       <r>     8.8357     0.9821   255.9739 </r>
       <r>     8.9526     0.2215   255.9998 </r>
       <r>     9.0696     0.0017   256.0000 </r>
       <r>     9.1865     0.0000   256.0000 </r>
       <r>     9.3034     0.0000   256.0000 </r>
       <r>     9.4204     0.0000   256.0000 </r>
       <r>     9.5373     0.0000   256.0000 </r>
       <r>     9.6542     0.0000   256.0000 </r>
       <r>     9.7712     0.0000   256.0000 </r>
       <r>     9.8881     0.0000   256.0000 </r>
       <r>    10.0050     0.0000   256.0000 </r>
       <r>    10.1220     0.0000   256.0000 </r>
       <r>    10.2389     0.0000   256.0000 </r>
       <r>    10.3559     0.0000   256.0000 </r>
       <r>    10.4728     0.0000   256.0000 </r>
       <r>    10.5897     0.0000   256.0000 </r>
       <r>    10.7067     0.0000   256.0000 </r>
       <r>    10.8236     0.0000   256.0000 </r>
       <r>    10.9405     0.0000   256.0000 </r>
       <r>    11.0575     0.0000   256.0000 </r>
       <r>    11.1744     0.0000   256.0000 </r>
       <r>    11.2913     0.0000   256.0000 </r>
       <r>    11.4083     0.0000   256.0000 </r>
       <r>    11.5252     0.0000   256.0000 </r>
       <r>    11.6422     0.0000   256.0000 </r>
       <r>    11.7591     0.0000   256.0000 </r>
       <r>    11.8760     0.0000   256.0000 </r>
       <r>    11.9930     0.0000   256.0000 </r>
       <r>    12.1099     0.0000   256.0000 </r>
       <r>    12.2268     0.0000   256.0000 </r>
       <r>    12.3438     0.0000   256.0000 </r>
       <r>    12.4607     0.0000   256.0000 </r>
       <r>    12.5776     0.0000   256.0000 </r>
       <r>    12.6946     0.0001   256.0000 </r>
       <r>    12.8115     0.1149   256.0135 </r>
       <r>    12.9285     0.7360   256.0995 </r>
       <r>    13.0454     2.6323   256.4073 </r>
       <r>    13.1623     4.1046   256.8873 </r>
       <r>    13.2793     3.3795   257.2825 </r>
       <r>    13.3962     3.1004   257.6450 </r>
       <r>    13.5131     8.2576   258.6107 </r>
       <r>    13.6301     9.0615   259.6703 </r>
       <r>    13.7470     9.1441   260.7396 </r>
       <r>    13.8639     5.3785   261.3685 </r>
       <r>    13.9809     8.5105   262.3637 </r>
       <r>    14.0978    14.7740   264.0913 </r>
       <r>    14.2148    15.4751   265.9009 </r>
       <r>    14.3317    12.6437   267.3794 </r>
       <r>    14.4486    14.0660   269.0242 </r>
       <r>    14.5656    14.6294   270.7349 </r>
       <r>    14.6825    12.6041   272.2088 </r>
       <r>    14.7994    15.6547   274.0394 </r>
       <r>    14.9164    22.1846   276.6336 </r>
       <r>    15.0333    20.7823   279.0638 </r>
       <r>    15.1502    15.0932   280.8288 </r>
       <r>    15.2672    16.4730   282.7551 </r>
       <r>    15.3841    21.2533   285.2403 </r>
       <r>    15.5011    18.6743   287.4240 </r>
       <r>    15.6180    20.8044   289.8568 </r>
       <r>    15.7349    24.1764   292.6839 </r>
       <r>    15.8519    23.7643   295.4628 </r>
       <r>    15.9688    20.9845   297.9167 </r>
       <r>    16.0857    24.7463   300.8104 </r>
       <r>    16.2027    25.4140   303.7823 </r>
       <r>    16.3196    30.4553   307.3436 </r>
       <r>    16.4365    30.4944   310.9095 </r>
       <r>    16.5535    25.4826   313.8893 </r>
       <r>    16.6704    28.9866   317.2789 </r>
       <r>    16.7874    38.9226   321.8304 </r>
       <r>    16.9043    42.5722   326.8086 </r>
       <r>    17.0212    45.0043   332.0713 </r>
       <r>    17.1382    46.0095   337.4514 </r>
       <r>    17.2551    32.7033   341.2756 </r>
       <r>    17.3720    33.3582   345.1764 </r>
       <r>    17.4890    28.9623   348.5632 </r>
       <r>    17.6059    20.2344   350.9293 </r>
       <r>    17.7228    28.5877   354.2722 </r>
       <r>    17.8398    39.9935   358.9489 </r>
       <r>    17.9567    25.1371   361.8884 </r>
       <r>    18.0737    29.0856   365.2895 </r>
       <r>    18.1906    21.2486   367.7743 </r>
       <r>    18.3075    26.8221   370.9108 </r>
       <r>    18.4245    29.1926   374.3244 </r>
       <r>    18.5414    20.0270   376.6663 </r>
       <r>    18.6583    15.3235   378.4582 </r>
       <r>    18.7753    10.3933   379.6736 </r>
       <r>    18.8922    10.8926   380.9473 </r>
       <r>    19.0091     8.7570   381.9713 </r>
       <r>    19.1261     4.2810   382.4719 </r>
       <r>    19.2430     2.0709   382.7141 </r>
       <r>    19.3600     3.4804   383.1211 </r>
       <r>    19.4769     0.8536   383.2209 </r>
       <r>    19.5938     2.6553   383.5314 </r>
       <r>    19.7108     1.9195   383.7558 </r>
       <r>    19.8277     1.2018   383.8964 </r>
       <r>    19.9446     0.0887   383.9067 </r>
       <r>    20.0616     0.3980   383.9533 </r>
       <r>    20.1785     0.3908   383.9990 </r>
       <r>    20.2954     0.0087   384.0000 </r>
       <r>    20.4124     0.0000   384.0000 </r>
       <r>    20.5293     0.0000   384.0000 </r>
       <r>    20.6463     0.0000   384.0000 </r>
       <r>    20.7632     0.0000   384.0000 </r>
       <r>    20.8801     0.0000   384.0000 </r>
       <r>    20.9971     0.0000   384.0000 </r>
       <r>    21.1140     0.0000   384.0000 </r>
       <r>    21.2309     0.0000   384.0000 </r>
       <r>    21.3479     0.0000   384.0000 </r>
       <r>    21.4648     0.0000   384.0000 </r>
       <r>    21.5817     0.0000   384.0000 </r>
       <r>    21.6987     0.0000   384.0000 </r>
      </set>
     </set>
    </array>
   </total>
  </dos>
 </calculation>
 <structure name="finalpos" >
  <crystal>
   <varray name="basis" >
    <v>       7.28896600       0.00000000       0.00000000 </v>
    <v>       0.00000000       7.28896600       0.00000000 </v>
    <v>       0.00000000       0.00000000       7.28896600 </v>
   </varray>
   <i name="volume">    387.25565938 </i>
   <varray name="rec_basis" >
    <v>       0.13719367       0.00000000       0.00000000 </v>
    <v>       0.00000000       0.13719367       0.00000000 </v>
    <v>       0.00000000       0.00000000       0.13719367 </v>
   </varray>
  </crystal>
  <varray name="positions" >
   <v>       0.12500000       0.37500000       0.12500000 </v>
   <v>       0.62500000       0.37500000       0.12500000 </v>
   <v>       0.12500000       0.87500000       0.12500000 </v>
   <v>       0.62500000       0.87500000       0.12500000 </v>
   <v>       0.12500000       0.37500000       0.62500000 </v>
   <v>       0.62500000       0.37500000       0.62500000 </v>
   <v>       0.12500000       0.87500000       0.62500000 </v>
   <v>       0.62500000       0.87500000       0.62500000 </v>
   <v>       0.00000000       0.00000000       0.25000000 </v>
   <v>       0.50000000       0.00000000       0.25000000 </v>
   <v>       0.00000000       0.50000000       0.25000000 </v>
   <v>       0.50000000       0.50000000       0.25000000 </v>
   <v>       0.00000000       0.00000000       0.75000000 </v>
   <v>       0.50000000       0.00000000       0.75000000 </v>
   <v>       0.00000000       0.50000000       0.75000000 </v>
   <v>       0.50000000       0.50000000       0.75000000 </v>
   <v>       0.12500000       0.12500000       0.37500000 </v>
   <v>       0.62500000       0.12500000       0.37500000 </v>
   <v>       0.12500000       0.62500000       0.37500000 </v>
   <v>       0.62500000       0.62500000       0.37500000 </v>
   <v>       0.12500000       0.12500000       0.87500000 </v>
   <v>       0.62500000       0.12500000       0.87500000 </v>
   <v>       0.12500000       0.62500000       0.87500000 </v>
   <v>       0.62500000       0.62500000       0.87500000 </v>
   <v>       0.00000000       0.25000000       0.00000000 </v>
   <v>       0.50000000       0.25000000       0.00000000 </v>
   <v>       0.00000000       0.75000000       0.00000000 </v>
   <v>       0.50000000       0.75000000       0.00000000 </v>
   <v>       0.00000000       0.25000000       0.50000000 </v>
   <v>       0.50000000       0.25000000       0.50000000 </v>
   <v>       0.00000000       0.75000000       0.50000000 </v>
   <v>       0.50000000       0.75000000       0.50000000 </v>
   <v>       0.37500000       0.37500000       0.37500000 </v>
   <v>       0.87500000       0.37500000       0.37500000 </v>
   <v>       0.37500000       0.87500000       0.37500000 </v>
   <v>       0.87500000       0.87500000       0.37500000 </v>
   <v>       0.37500000       0.37500000       0.87500000 </v>
   <v>       0.87500000       0.37500000       0.87500000 </v>
   <v>       0.37500000       0.87500000       0.87500000 </v>
   <v>       0.87500000       0.87500000       0.87500000 </v>
   <v>       0.25000000       0.00000000       0.00000000 </v>
   <v>       0.75000000       0.00000000       0.00000000 </v>
   <v>       0.25000000       0.50000000       0.00000000 </v>
   <v>       0.75000000       0.50000000       0.00000000 </v>
   <v>       0.25000000       0.00000000       0.50000000 </v>
   <v>       0.75000000       0.00000000       0.50000000 </v>
   <v>       0.25000000       0.50000000       0.50000000 </v>
   <v>       0.75000000       0.50000000       0.50000000 </v>
   <v>       0.37500000       0.12500000       0.12500000 </v>
   <v>       0.87500000       0.12500000       0.12500000 </v>
   <v>       0.37500000       0.62500000       0.12500000 </v>
   <v>       0.87500000       0.62500000       0.12500000 </v>
   <v>       0.37500000       0.12500000       0.62500000 </v>
   <v>       0.87500000       0.12500000       0.62500000 </v>
   <v>       0.37500000       0.62500000       0.62500000 </v>
   <v>       0.87500000       0.62500000       0.62500000 </v>
   <v>       0.25000000       0.25000000       0.25000000 </v>
   <v>       0.75000000       0.25000000       0.25000000 </v>
   <v>       0.25000000       0.75000000       0.25000000 </v>
   <v>       0.75000000       0.75000000       0.25000000 </v>
   <v>       0.25000000       0.25000000       0.75000000 </v>
   <v>       0.75000000       0.25000000       0.75000000 </v>
   <v>       0.25000000       0.75000000       0.75000000 </v>
   <v>       0.75000000       0.75000000       0.75000000 </v>
  </varray>
 </structure>
</modeling>
