   8   8   0   0
  0.5205179E+01  0.3405772E-09  0.3405772E-09  0.3589999E-09  0.2000000E-16
  1.000000000000000E-004
  CAR 
 unknown system                          
     25.22503648    -13.37599149  301     11.46537838      1.00000000
    -13.376  0.0000E+00  0.0000E+00
    -13.247  0.0000E+00  0.0000E+00
    -13.119  0.0000E+00  0.0000E+00
    -12.990  0.0000E+00  0.0000E+00
    -12.861  0.0000E+00  0.0000E+00
    -12.733  0.0000E+00  0.0000E+00
    -12.604  0.0000E+00  0.0000E+00
    -12.475  0.0000E+00  0.0000E+00
    -12.347  0.0000E+00  0.0000E+00
    -12.218  0.0000E+00  0.0000E+00
    -12.089  0.0000E+00  0.0000E+00
    -11.961  0.0000E+00  0.0000E+00
    -11.832  0.0000E+00  0.0000E+00
    -11.703  0.0000E+00  0.0000E+00
    -11.575  0.3227E-01  0.5034E-03
    -11.446  0.1443E+00  0.1475E-01
    -11.317  0.2250E+00  0.3847E-01
    -11.189  0.2553E+00  0.6914E-01
    -11.060  0.2996E+00  0.1049E+00
    -10.931  0.3384E+00  0.1462E+00
    -10.803  0.3644E+00  0.1913E+00
    -10.674  0.3932E+00  0.2400E+00
    -10.545  0.4265E+00  0.2928E+00
    -10.417  0.4514E+00  0.3494E+00
    -10.288  0.4724E+00  0.4088E+00
    -10.159  0.4960E+00  0.4711E+00
    -10.031  0.5221E+00  0.5366E+00
     -9.902  0.5450E+00  0.6052E+00
     -9.773  0.5652E+00  0.6768E+00
     -9.645  0.5843E+00  0.7507E+00
     -9.516  0.6037E+00  0.8271E+00
     -9.387  0.6246E+00  0.9061E+00
     -9.259  0.6448E+00  0.9878E+00
     -9.130  0.6655E+00  0.1072E+01
     -9.001  0.6828E+00  0.1159E+01
     -8.873  0.6996E+00  0.1248E+01
     -8.744  0.7170E+00  0.1339E+01
     -8.615  0.7357E+00  0.1432E+01
     -8.487  0.7542E+00  0.1528E+01
     -8.358  0.7720E+00  0.1627E+01
     -8.229  0.7905E+00  0.1727E+01
     -8.101  0.8068E+00  0.1830E+01
     -7.972  0.8235E+00  0.1935E+01
     -7.843  0.8409E+00  0.2042E+01
     -7.715  0.8592E+00  0.2151E+01
     -7.586  0.8927E+00  0.2263E+01
     -7.457  0.9269E+00  0.2381E+01
     -7.328  0.9735E+00  0.2503E+01
     -7.200  0.1007E+01  0.2631E+01
     -7.071  0.1020E+01  0.2761E+01
     -6.942  0.1008E+01  0.2891E+01
     -6.814  0.9771E+00  0.3019E+01
     -6.685  0.9755E+00  0.3145E+01
     -6.556  0.9684E+00  0.3270E+01
     -6.428  0.9743E+00  0.3394E+01
     -6.299  0.9967E+00  0.3521E+01
     -6.170  0.1044E+01  0.3652E+01
     -6.042  0.1091E+01  0.3789E+01
     -5.913  0.1121E+01  0.3932E+01
     -5.784  0.1128E+01  0.4077E+01
     -5.656  0.1190E+01  0.4225E+01
     -5.527  0.1283E+01  0.4384E+01
     -5.398  0.1428E+01  0.4558E+01
     -5.270  0.1534E+01  0.4750E+01
     -5.141  0.1417E+01  0.4940E+01
     -5.012  0.1388E+01  0.5121E+01
     -4.884  0.1276E+01  0.5296E+01
     -4.755  0.1266E+01  0.5458E+01
     -4.626  0.1291E+01  0.5625E+01
     -4.498  0.1289E+01  0.5790E+01
     -4.369  0.1213E+01  0.5952E+01
     -4.240  0.1138E+01  0.6103E+01
     -4.112  0.1129E+01  0.6250E+01
     -3.983  0.1085E+01  0.6392E+01
     -3.854  0.1070E+01  0.6530E+01
     -3.726  0.1038E+01  0.6668E+01
     -3.597  0.9869E+00  0.6798E+01
     -3.468  0.9549E+00  0.6923E+01
     -3.340  0.9491E+00  0.7046E+01
     -3.211  0.9311E+00  0.7166E+01
     -3.082  0.1053E+01  0.7292E+01
     -2.954  0.1081E+01  0.7430E+01
     -2.825  0.1174E+01  0.7576E+01
     -2.696  0.1118E+01  0.7725E+01
     -2.568  0.1081E+01  0.7867E+01
     -2.439  0.1086E+01  0.8005E+01
     -2.310  0.1106E+01  0.8147E+01
     -2.182  0.1085E+01  0.8288E+01
     -2.053  0.1061E+01  0.8426E+01
     -1.924  0.1063E+01  0.8565E+01
     -1.796  0.1103E+01  0.8703E+01
     -1.667  0.1179E+01  0.8850E+01
     -1.538  0.1308E+01  0.9009E+01
     -1.410  0.1500E+01  0.9189E+01
     -1.281  0.1744E+01  0.9401E+01
     -1.152  0.1909E+01  0.9634E+01
     -1.024  0.2204E+01  0.9897E+01
     -0.895  0.2236E+01  0.1019E+02
     -0.766  0.2034E+01  0.1047E+02
     -0.638  0.1824E+01  0.1072E+02
     -0.509  0.1687E+01  0.1094E+02
     -0.380  0.1610E+01  0.1116E+02
     -0.252  0.1454E+01  0.1135E+02
     -0.123  0.1378E+01  0.1153E+02
      0.006  0.1318E+01  0.1170E+02
      0.134  0.1285E+01  0.1187E+02
      0.263  0.1238E+01  0.1204E+02
      0.392  0.1189E+01  0.1219E+02
      0.520  0.1181E+01  0.1234E+02
      0.649  0.1125E+01  0.1249E+02
      0.778  0.1123E+01  0.1263E+02
      0.906  0.1196E+01  0.1278E+02
      1.035  0.1199E+01  0.1293E+02
      1.164  0.1304E+01  0.1309E+02
      1.292  0.1513E+01  0.1328E+02
      1.421  0.1818E+01  0.1349E+02
      1.550  0.2061E+01  0.1374E+02
      1.678  0.2131E+01  0.1402E+02
      1.807  0.2000E+01  0.1428E+02
      1.936  0.1859E+01  0.1453E+02
      2.064  0.1932E+01  0.1477E+02
      2.193  0.2077E+01  0.1503E+02
      2.322  0.1873E+01  0.1529E+02
      2.450  0.1774E+01  0.1553E+02
      2.579  0.1393E+01  0.1573E+02
      2.708  0.1687E+01  0.1591E+02
      2.836  0.1833E+01  0.1614E+02
      2.965  0.2088E+01  0.1639E+02
      3.094  0.2191E+01  0.1667E+02
      3.222  0.2244E+01  0.1696E+02
      3.351  0.2297E+01  0.1725E+02
      3.480  0.2247E+01  0.1754E+02
      3.608  0.2307E+01  0.1784E+02
      3.737  0.2534E+01  0.1815E+02
      3.866  0.2688E+01  0.1848E+02
      3.994  0.2794E+01  0.1883E+02
      4.123  0.2867E+01  0.1921E+02
      4.252  0.2463E+01  0.1954E+02
      4.380  0.2323E+01  0.1985E+02
      4.509  0.2524E+01  0.2016E+02
      4.638  0.2830E+01  0.2050E+02
      4.766  0.3138E+01  0.2089E+02
      4.895  0.3138E+01  0.2129E+02
      5.024  0.2960E+01  0.2169E+02
      5.153  0.2856E+01  0.2207E+02
      5.281  0.2816E+01  0.2243E+02
      5.410  0.2818E+01  0.2280E+02
      5.539  0.2638E+01  0.2315E+02
      5.667  0.2485E+01  0.2348E+02
      5.796  0.2497E+01  0.2380E+02
      5.925  0.2765E+01  0.2413E+02
      6.053  0.2879E+01  0.2449E+02
      6.182  0.2823E+01  0.2486E+02
      6.311  0.2756E+01  0.2522E+02
      6.439  0.2691E+01  0.2557E+02
      6.568  0.2532E+01  0.2591E+02
      6.697  0.2293E+01  0.2622E+02
      6.825  0.2287E+01  0.2652E+02
      6.954  0.2389E+01  0.2681E+02
      7.083  0.2378E+01  0.2712E+02
      7.211  0.2457E+01  0.2743E+02
      7.340  0.2506E+01  0.2775E+02
      7.469  0.2196E+01  0.2806E+02
      7.597  0.2197E+01  0.2834E+02
      7.726  0.2263E+01  0.2862E+02
      7.855  0.2257E+01  0.2892E+02
      7.983  0.2037E+01  0.2920E+02
      8.112  0.1881E+01  0.2945E+02
      8.241  0.1746E+01  0.2968E+02
      8.369  0.1639E+01  0.2990E+02
      8.498  0.1667E+01  0.3011E+02
      8.627  0.1519E+01  0.3032E+02
      8.755  0.1289E+01  0.3050E+02
      8.884  0.1202E+01  0.3066E+02
      9.013  0.1096E+01  0.3081E+02
      9.141  0.1007E+01  0.3094E+02
      9.270  0.9411E+00  0.3107E+02
      9.399  0.8829E+00  0.3119E+02
      9.527  0.8093E+00  0.3129E+02
      9.656  0.7480E+00  0.3139E+02
      9.785  0.6639E+00  0.3149E+02
      9.913  0.6063E+00  0.3157E+02
     10.042  0.5680E+00  0.3164E+02
     10.171  0.5031E+00  0.3171E+02
     10.299  0.4455E+00  0.3177E+02
     10.428  0.3701E+00  0.3183E+02
     10.557  0.3244E+00  0.3187E+02
     10.685  0.2773E+00  0.3191E+02
     10.814  0.2166E+00  0.3194E+02
     10.943  0.1838E+00  0.3197E+02
     11.071  0.1246E+00  0.3199E+02
     11.200  0.6161E-01  0.3200E+02
     11.329  0.1516E-02  0.3200E+02
     11.457  0.0000E+00  0.3200E+02
     11.586  0.0000E+00  0.3200E+02
     11.715  0.0000E+00  0.3200E+02
     11.843  0.0000E+00  0.3200E+02
     11.972  0.0000E+00  0.3200E+02
     12.101  0.0000E+00  0.3200E+02
     12.229  0.0000E+00  0.3200E+02
     12.358  0.0000E+00  0.3200E+02
     12.487  0.0000E+00  0.3200E+02
     12.615  0.0000E+00  0.3200E+02
     12.744  0.0000E+00  0.3200E+02
     12.873  0.0000E+00  0.3200E+02
     13.001  0.0000E+00  0.3200E+02
     13.130  0.0000E+00  0.3200E+02
     13.259  0.0000E+00  0.3200E+02
     13.387  0.0000E+00  0.3200E+02
     13.516  0.0000E+00  0.3200E+02
     13.645  0.0000E+00  0.3200E+02
     13.773  0.0000E+00  0.3200E+02
     13.902  0.0000E+00  0.3200E+02
     14.031  0.0000E+00  0.3200E+02
     14.159  0.0000E+00  0.3200E+02
     14.288  0.0000E+00  0.3200E+02
     14.417  0.0000E+00  0.3200E+02
     14.545  0.0000E+00  0.3200E+02
     14.674  0.0000E+00  0.3200E+02
     14.803  0.0000E+00  0.3200E+02
     14.931  0.0000E+00  0.3200E+02
     15.060  0.4035E-01  0.3200E+02
     15.189  0.1446E+00  0.3201E+02
     15.317  0.2898E+00  0.3204E+02
     15.446  0.3551E+00  0.3208E+02
     15.575  0.3596E+00  0.3213E+02
     15.703  0.4785E+00  0.3218E+02
     15.832  0.5409E+00  0.3225E+02
     15.961  0.6200E+00  0.3232E+02
     16.089  0.8675E+00  0.3242E+02
     16.218  0.8446E+00  0.3253E+02
     16.347  0.9112E+00  0.3264E+02
     16.475  0.9940E+00  0.3276E+02
     16.604  0.1086E+01  0.3290E+02
     16.733  0.1213E+01  0.3305E+02
     16.861  0.1340E+01  0.3321E+02
     16.990  0.1546E+01  0.3339E+02
     17.119  0.1679E+01  0.3360E+02
     17.247  0.1791E+01  0.3382E+02
     17.376  0.1898E+01  0.3405E+02
     17.505  0.1740E+01  0.3428E+02
     17.634  0.1818E+01  0.3451E+02
     17.762  0.1910E+01  0.3475E+02
     17.891  0.2025E+01  0.3501E+02
     18.020  0.2166E+01  0.3528E+02
     18.148  0.2255E+01  0.3556E+02
     18.277  0.2326E+01  0.3585E+02
     18.406  0.2396E+01  0.3616E+02
     18.534  0.2520E+01  0.3647E+02
     18.663  0.2754E+01  0.3681E+02
     18.792  0.2963E+01  0.3718E+02
     18.920  0.3214E+01  0.3758E+02
     19.049  0.3577E+01  0.3801E+02
     19.178  0.4369E+01  0.3856E+02
     19.306  0.3780E+01  0.3907E+02
     19.435  0.3431E+01  0.3953E+02
     19.564  0.2865E+01  0.3994E+02
     19.692  0.2626E+01  0.4029E+02
     19.821  0.2756E+01  0.4063E+02
     19.950  0.3203E+01  0.4102E+02
     20.078  0.3465E+01  0.4144E+02
     20.207  0.3280E+01  0.4189E+02
     20.336  0.2884E+01  0.4229E+02
     20.464  0.2702E+01  0.4264E+02
     20.593  0.2664E+01  0.4299E+02
     20.722  0.2635E+01  0.4333E+02
     20.850  0.2497E+01  0.4366E+02
     20.979  0.2555E+01  0.4398E+02
     21.108  0.2574E+01  0.4431E+02
     21.236  0.2639E+01  0.4464E+02
     21.365  0.2901E+01  0.4499E+02
     21.494  0.3094E+01  0.4539E+02
     21.622  0.2770E+01  0.4577E+02
     21.751  0.2585E+01  0.4611E+02
     21.880  0.2553E+01  0.4644E+02
     22.008  0.2191E+01  0.4674E+02
     22.137  0.1871E+01  0.4700E+02
     22.266  0.1648E+01  0.4723E+02
     22.394  0.1711E+01  0.4744E+02
     22.523  0.1293E+01  0.4763E+02
     22.652  0.9833E+00  0.4778E+02
     22.780  0.6242E+00  0.4789E+02
     22.909  0.3613E+00  0.4795E+02
     23.038  0.1584E+00  0.4798E+02
     23.166  0.6259E-01  0.4799E+02
     23.295  0.1868E-01  0.4800E+02
     23.424  0.2507E-02  0.4800E+02
     23.552  0.0000E+00  0.4800E+02
     23.681  0.0000E+00  0.4800E+02
     23.810  0.0000E+00  0.4800E+02
     23.938  0.0000E+00  0.4800E+02
     24.067  0.0000E+00  0.4800E+02
     24.196  0.0000E+00  0.4800E+02
     24.324  0.0000E+00  0.4800E+02
     24.453  0.0000E+00  0.4800E+02
     24.582  0.0000E+00  0.4800E+02
     24.710  0.0000E+00  0.4800E+02
     24.839  0.0000E+00  0.4800E+02
     24.968  0.0000E+00  0.4800E+02
     25.096  0.0000E+00  0.4800E+02
     25.225  0.0000E+00  0.4800E+02
