       N       E                     dE             d eps       ncg     rms          rms(c)
DAV:   1     0.592109390864E+02    0.59211E+02   -0.14644E+04  9432   0.107E+03
DAV:   2    -0.711232150054E+02   -0.13033E+03   -0.12380E+03 12832   0.227E+02
DAV:   3    -0.751587870396E+02   -0.40356E+01   -0.40170E+01 12280   0.372E+01
DAV:   4    -0.751943419949E+02   -0.35555E-01   -0.35528E-01 11568   0.389E+00
DAV:   5    -0.751949447469E+02   -0.60275E-03   -0.60245E-03 12256   0.448E-01    0.105E+01
DAV:   6    -0.727695043814E+02    0.24254E+01   -0.15772E+00 10464   0.735E+00    0.569E+00
DAV:   7    -0.719530072227E+02    0.81650E+00   -0.17416E+00 10856   0.794E+00    0.716E-01
DAV:   8    -0.719613924881E+02   -0.83853E-02   -0.33032E-02 11656   0.107E+00    0.868E-02
DAV:   9    -0.719615847374E+02   -0.19225E-03   -0.42588E-04 11328   0.142E-01    0.294E-02
DAV:  10    -0.719616320928E+02   -0.47355E-04   -0.36983E-05 11760   0.476E-02    0.289E-03
DAV:  11    -0.719616329129E+02   -0.82008E-06   -0.10047E-06  8640   0.727E-03
   1 F= -.71961633E+02 E0= -.71961633E+02  d E =0.000000E+00
