 vasp.5.4.4.18Apr17-6-g9f103f2a35 (build Mar 12 2022 03:36:41) complex          
  
 executed on IFC19.0.3.199_CrayMP date 2022.12.01  10:13:48
 running on   16 total cores
 distrk:  each k-point on   16 cores,    1 groups
 distr:  one band on NCORES_PER_BAND=   4 cores,    4 groups


--------------------------------------------------------------------------------------------------------


 INCAR:
 POTCAR:   PAW_PBE C 08Apr2002                    
 POTCAR:   PAW_PBE C 08Apr2002                    
   VRHFIN =C: s2p2                                                              
   LEXCH  = PE                                                                  
   EATOM  =   147.1560 eV,   10.8157 Ry                                         
                                                                                
   TITEL  = PAW_PBE C 08Apr2002                                                 
   LULTRA =        F    use ultrasoft PP ?                                      
   IUNSCR =        0    unscreen: 0-lin 1-nonlin 2-no                           
   RPACOR =     .000    partial core radius                                     
   POMASS =   12.011; ZVAL   =    4.000    mass and valenz                      
   RCORE  =    1.500    outmost cutoff radius                                   
   RWIGS  =    1.630; RWIGS  =     .863    wigner-seitz radius (au A)           
   ENMAX  =  400.000; ENMIN  =  300.000 eV                                      
   ICORE  =        2    local potential                                         
   LCOR   =        T    correct aug charges                                     
   LPAW   =        T    paw PP                                                  
   EAUG   =  644.873                                                            
   DEXC   =     .000                                                            
   RMAX   =    2.266    core radius for proj-oper                               
   RAUG   =    1.300    factor for augmentation sphere                          
   RDEP   =    1.501    radius for radial grids                                 
   RDEPT  =    1.300    core radius for aug-charge                              
   QCUT   =   -5.516; QGAM   =   11.032    optimization parameters              
                                                                                
   Description                                                                  
     l     E      TYP  RCUT    TYP  RCUT                                        
     0   .000     23  1.200                                                     
     0   .000     23  1.200                                                     
     1   .000     23  1.500                                                     
     1  2.500     23  1.500                                                     
     2   .000      7  1.500                                                     
  local pseudopotential read in
  atomic valenz-charges read in
  non local Contribution for L=           0  read in
    real space projection operators read in
  non local Contribution for L=           0  read in
    real space projection operators read in
  non local Contribution for L=           1  read in
    real space projection operators read in
  non local Contribution for L=           1  read in
    real space projection operators read in
    PAW grid and wavefunctions read in
 
   number of l-projection  operators is LMAX  =           4
   number of lm-projection operators is LMMAX =           8
 
 PAW_PBE C 08Apr2002                    :
 energy of atom  1       EATOM= -147.1560
 kinetic energy error for atom=    0.0288 (will be added to EATOM!!)
 
 
 POSCAR: C8                                      
  positions in direct lattice
  No initial velocities read in
 exchange correlation table for  LEXCH =        8
   RHO(1)=    0.500       N(1)  =     2000
   RHO(2)=  100.500       N(2)  =     4000
 


--------------------------------------------------------------------------------------------------------


 ion  position               nearest neighbor table
   1  0.250  0.750  0.250-   2 1.50   4 1.50   6 1.50   8 1.50
   2  0.000  0.000  0.500-   1 1.50   3 1.50   5 1.50   7 1.50
   3  0.250  0.250  0.750-   2 1.50   4 1.50   6 1.50   8 1.50
   4  0.000  0.500  0.000-   1 1.50   3 1.50   5 1.50   7 1.50
   5  0.750  0.750  0.750-   2 1.50   4 1.50   6 1.50   8 1.50
   6  0.500  0.000  0.000-   1 1.50   3 1.50   5 1.50   7 1.50
   7  0.750  0.250  0.250-   2 1.50   4 1.50   6 1.50   8 1.50
   8  0.500  0.500  0.500-   1 1.50   3 1.50   5 1.50   7 1.50
 
  LATTYP: Found a simple tetragonal cell.
 ALAT       =     3.4057724428
 C/A-ratio  =     1.0540925500
  
  Lattice vectors:
  
 A1 = (   3.4057724428,   0.0000000000,   0.0000000000)
 A2 = (   0.0000000000,   3.4057724428,   0.0000000000)
 A3 = (   0.0000000000,   0.0000000000,   3.5899993590)


Analysis of symmetry for initial positions (statically):
=====================================================================
 Subroutine PRICEL returns following result:
 
  LATTYP: Found a body centered tetragonal cell.
 ALAT       =     2.4082447895
 C/A-ratio  =     1.4907119802
  
  Lattice vectors:
  
 A1 = (   0.0000000000,  -1.7028862214,   1.7949996795)
 A2 = (   0.0000000000,   1.7028862214,   1.7949996795)
 A3 = (  -1.7028862214,   0.0000000000,  -1.7949996795)
 
   4 primitive cells build up your supercell.
 

 Routine SETGRP: Setting up the symmetry group for a 
 simple tetragonal supercell.


 Subroutine GETGRP returns: Found 16 space group operations
 (whereof  8 operations were pure point group operations)
 out of a pool of 16 trial point group operations.


The static configuration has the point symmetry D_2d.
 The point group associated with its full space group is D_4h.


Analysis of symmetry for dynamics (positions and initial velocities):
=====================================================================
 Subroutine PRICEL returns following result:
 
  LATTYP: Found a body centered tetragonal cell.
 ALAT       =     2.4082447895
 C/A-ratio  =     1.4907119802
  
  Lattice vectors:
  
 A1 = (   0.0000000000,  -1.7028862214,   1.7949996795)
 A2 = (   0.0000000000,   1.7028862214,   1.7949996795)
 A3 = (  -1.7028862214,   0.0000000000,  -1.7949996795)
 
   4 primitive cells build up your supercell.
 

 Routine SETGRP: Setting up the symmetry group for a 
 simple tetragonal supercell.


 Subroutine GETGRP returns: Found 16 space group operations
 (whereof  8 operations were pure point group operations)
 out of a pool of 16 trial point group operations.


The dynamic configuration has the point symmetry D_2d.
 The point group associated with its full space group is D_4h.


 Subroutine INISYM returns: Found 16 space group operations
 (whereof  8 operations are pure point group operations),
 and found     4 'primitive' translations

 
 
 KPOINTS: kpt_density=1000                        

Automatic generation of k-mesh.
Space group operators:
 irot       det(A)        alpha          n_x          n_y          n_z        tau_x        tau_y        tau_z
    1     1.000000     0.000001     1.000000     0.000000     0.000000     0.000000     0.000000     0.000000
    2    -1.000000    90.000000     0.000000     0.000000    -1.000000     0.000000     0.000000     0.000000
    3     1.000000   180.000000     0.000000     0.000000     1.000000     0.000000     0.000000     0.000000
    4    -1.000000    90.000000     0.000000     0.000000     1.000000     0.000000     0.000000     0.000000
    5     1.000000   179.999999     0.000000     1.000000     0.000000     0.000000     0.000000     0.000000
    6    -1.000000   179.999999     0.707107     0.707107     0.000000     0.000000     0.000000     0.000000
    7     1.000000   179.999999     1.000000     0.000000     0.000000     0.000000     0.000000     0.000000
    8    -1.000000   179.999999     0.707107    -0.707107     0.000000     0.000000     0.000000     0.000000
    9    -1.000000     0.000001     1.000000     0.000000     0.000000    -0.250000    -0.250000     0.250000
   10     1.000000    90.000000     0.000000     0.000000    -1.000000    -0.250000    -0.250000     0.250000
   11    -1.000000   180.000000     0.000000     0.000000     1.000000    -0.250000    -0.250000     0.250000
   12     1.000000    90.000000     0.000000     0.000000     1.000000    -0.250000    -0.250000     0.250000
   13    -1.000000   179.999999     0.000000     1.000000     0.000000    -0.250000    -0.250000     0.250000
   14     1.000000   179.999999     0.707107     0.707107     0.000000    -0.250000    -0.250000     0.250000
   15    -1.000000   179.999999     1.000000     0.000000     0.000000    -0.250000    -0.250000     0.250000
   16     1.000000   179.999999     0.707107    -0.707107     0.000000    -0.250000    -0.250000     0.250000
 
 Subroutine IBZKPT returns following result:
 ===========================================
 
 Found    196 irreducible k-points:
 
 Following reciprocal coordinates:
            Coordinates               Weight
  0.000000  0.000000  0.000000      1.000000
  0.083333  0.000000  0.000000      4.000000
  0.166667  0.000000  0.000000      4.000000
  0.250000  0.000000  0.000000      4.000000
  0.333333  0.000000  0.000000      4.000000
  0.416667  0.000000  0.000000      4.000000
  0.500000  0.000000  0.000000      2.000000
  0.083333  0.083333  0.000000      4.000000
  0.166667  0.083333  0.000000      8.000000
  0.250000  0.083333  0.000000      8.000000
  0.333333  0.083333  0.000000      8.000000
  0.416667  0.083333  0.000000      8.000000
  0.500000  0.083333  0.000000      4.000000
  0.166667  0.166667  0.000000      4.000000
  0.250000  0.166667  0.000000      8.000000
  0.333333  0.166667  0.000000      8.000000
  0.416667  0.166667  0.000000      8.000000
  0.500000  0.166667  0.000000      4.000000
  0.250000  0.250000  0.000000      4.000000
  0.333333  0.250000  0.000000      8.000000
  0.416667  0.250000  0.000000      8.000000
  0.500000  0.250000  0.000000      4.000000
  0.333333  0.333333  0.000000      4.000000
  0.416667  0.333333  0.000000      8.000000
  0.500000  0.333333  0.000000      4.000000
  0.416667  0.416667  0.000000      4.000000
  0.500000  0.416667  0.000000      4.000000
  0.500000  0.500000  0.000000      1.000000
  0.000000  0.000000  0.083333      2.000000
  0.083333  0.000000  0.083333      8.000000
  0.166667  0.000000  0.083333      8.000000
  0.250000  0.000000  0.083333      8.000000
  0.333333  0.000000  0.083333      8.000000
  0.416667  0.000000  0.083333      8.000000
  0.500000  0.000000  0.083333      4.000000
  0.083333  0.083333  0.083333      8.000000
  0.166667  0.083333  0.083333     16.000000
  0.250000  0.083333  0.083333     16.000000
  0.333333  0.083333  0.083333     16.000000
  0.416667  0.083333  0.083333     16.000000
  0.500000  0.083333  0.083333      8.000000
  0.166667  0.166667  0.083333      8.000000
  0.250000  0.166667  0.083333     16.000000
  0.333333  0.166667  0.083333     16.000000
  0.416667  0.166667  0.083333     16.000000
  0.500000  0.166667  0.083333      8.000000
  0.250000  0.250000  0.083333      8.000000
  0.333333  0.250000  0.083333     16.000000
  0.416667  0.250000  0.083333     16.000000
  0.500000  0.250000  0.083333      8.000000
  0.333333  0.333333  0.083333      8.000000
  0.416667  0.333333  0.083333     16.000000
  0.500000  0.333333  0.083333      8.000000
  0.416667  0.416667  0.083333      8.000000
  0.500000  0.416667  0.083333      8.000000
  0.500000  0.500000  0.083333      2.000000
  0.000000  0.000000  0.166667      2.000000
  0.083333  0.000000  0.166667      8.000000
  0.166667  0.000000  0.166667      8.000000
  0.250000  0.000000  0.166667      8.000000
  0.333333  0.000000  0.166667      8.000000
  0.416667  0.000000  0.166667      8.000000
  0.500000  0.000000  0.166667      4.000000
  0.083333  0.083333  0.166667      8.000000
  0.166667  0.083333  0.166667     16.000000
  0.250000  0.083333  0.166667     16.000000
  0.333333  0.083333  0.166667     16.000000
  0.416667  0.083333  0.166667     16.000000
  0.500000  0.083333  0.166667      8.000000
  0.166667  0.166667  0.166667      8.000000
  0.250000  0.166667  0.166667     16.000000
  0.333333  0.166667  0.166667     16.000000
  0.416667  0.166667  0.166667     16.000000
  0.500000  0.166667  0.166667      8.000000
  0.250000  0.250000  0.166667      8.000000
  0.333333  0.250000  0.166667     16.000000
  0.416667  0.250000  0.166667     16.000000
  0.500000  0.250000  0.166667      8.000000
  0.333333  0.333333  0.166667      8.000000
  0.416667  0.333333  0.166667     16.000000
  0.500000  0.333333  0.166667      8.000000
  0.416667  0.416667  0.166667      8.000000
  0.500000  0.416667  0.166667      8.000000
  0.500000  0.500000  0.166667      2.000000
  0.000000  0.000000  0.250000      2.000000
  0.083333  0.000000  0.250000      8.000000
  0.166667  0.000000  0.250000      8.000000
  0.250000  0.000000  0.250000      8.000000
  0.333333  0.000000  0.250000      8.000000
  0.416667  0.000000  0.250000      8.000000
  0.500000  0.000000  0.250000      4.000000
  0.083333  0.083333  0.250000      8.000000
  0.166667  0.083333  0.250000     16.000000
  0.250000  0.083333  0.250000     16.000000
  0.333333  0.083333  0.250000     16.000000
  0.416667  0.083333  0.250000     16.000000
  0.500000  0.083333  0.250000      8.000000
  0.166667  0.166667  0.250000      8.000000
  0.250000  0.166667  0.250000     16.000000
  0.333333  0.166667  0.250000     16.000000
  0.416667  0.166667  0.250000     16.000000
  0.500000  0.166667  0.250000      8.000000
  0.250000  0.250000  0.250000      8.000000
  0.333333  0.250000  0.250000     16.000000
  0.416667  0.250000  0.250000     16.000000
  0.500000  0.250000  0.250000      8.000000
  0.333333  0.333333  0.250000      8.000000
  0.416667  0.333333  0.250000     16.000000
  0.500000  0.333333  0.250000      8.000000
  0.416667  0.416667  0.250000      8.000000
  0.500000  0.416667  0.250000      8.000000
  0.500000  0.500000  0.250000      2.000000
  0.000000  0.000000  0.333333      2.000000
  0.083333  0.000000  0.333333      8.000000
  0.166667  0.000000  0.333333      8.000000
  0.250000  0.000000  0.333333      8.000000
  0.333333  0.000000  0.333333      8.000000
  0.416667  0.000000  0.333333      8.000000
  0.500000  0.000000  0.333333      4.000000
  0.083333  0.083333  0.333333      8.000000
  0.166667  0.083333  0.333333     16.000000
  0.250000  0.083333  0.333333     16.000000
  0.333333  0.083333  0.333333     16.000000
  0.416667  0.083333  0.333333     16.000000
  0.500000  0.083333  0.333333      8.000000
  0.166667  0.166667  0.333333      8.000000
  0.250000  0.166667  0.333333     16.000000
  0.333333  0.166667  0.333333     16.000000
  0.416667  0.166667  0.333333     16.000000
  0.500000  0.166667  0.333333      8.000000
  0.250000  0.250000  0.333333      8.000000
  0.333333  0.250000  0.333333     16.000000
  0.416667  0.250000  0.333333     16.000000
  0.500000  0.250000  0.333333      8.000000
  0.333333  0.333333  0.333333      8.000000
  0.416667  0.333333  0.333333     16.000000
  0.500000  0.333333  0.333333      8.000000
  0.416667  0.416667  0.333333      8.000000
  0.500000  0.416667  0.333333      8.000000
  0.500000  0.500000  0.333333      2.000000
  0.000000  0.000000  0.416667      2.000000
  0.083333  0.000000  0.416667      8.000000
  0.166667  0.000000  0.416667      8.000000
  0.250000  0.000000  0.416667      8.000000
  0.333333  0.000000  0.416667      8.000000
  0.416667  0.000000  0.416667      8.000000
  0.500000  0.000000  0.416667      4.000000
  0.083333  0.083333  0.416667      8.000000
  0.166667  0.083333  0.416667     16.000000
  0.250000  0.083333  0.416667     16.000000
  0.333333  0.083333  0.416667     16.000000
  0.416667  0.083333  0.416667     16.000000
  0.500000  0.083333  0.416667      8.000000
  0.166667  0.166667  0.416667      8.000000
  0.250000  0.166667  0.416667     16.000000
  0.333333  0.166667  0.416667     16.000000
  0.416667  0.166667  0.416667     16.000000
  0.500000  0.166667  0.416667      8.000000
  0.250000  0.250000  0.416667      8.000000
  0.333333  0.250000  0.416667     16.000000
  0.416667  0.250000  0.416667     16.000000
  0.500000  0.250000  0.416667      8.000000
  0.333333  0.333333  0.416667      8.000000
  0.416667  0.333333  0.416667     16.000000
  0.500000  0.333333  0.416667      8.000000
  0.416667  0.416667  0.416667      8.000000
  0.500000  0.416667  0.416667      8.000000
  0.500000  0.500000  0.416667      2.000000
  0.000000  0.000000  0.500000      1.000000
  0.083333  0.000000  0.500000      4.000000
  0.166667  0.000000  0.500000      4.000000
  0.250000  0.000000  0.500000      4.000000
  0.333333  0.000000  0.500000      4.000000
  0.416667  0.000000  0.500000      4.000000
  0.500000  0.000000  0.500000      2.000000
  0.083333  0.083333  0.500000      4.000000
  0.166667  0.083333  0.500000      8.000000
  0.250000  0.083333  0.500000      8.000000
  0.333333  0.083333  0.500000      8.000000
  0.416667  0.083333  0.500000      8.000000
  0.500000  0.083333  0.500000      4.000000
  0.166667  0.166667  0.500000      4.000000
  0.250000  0.166667  0.500000      8.000000
  0.333333  0.166667  0.500000      8.000000
  0.416667  0.166667  0.500000      8.000000
  0.500000  0.166667  0.500000      4.000000
  0.250000  0.250000  0.500000      4.000000
  0.333333  0.250000  0.500000      8.000000
  0.416667  0.250000  0.500000      8.000000
  0.500000  0.250000  0.500000      4.000000
  0.333333  0.333333  0.500000      4.000000
  0.416667  0.333333  0.500000      8.000000
  0.500000  0.333333  0.500000      4.000000
  0.416667  0.416667  0.500000      4.000000
  0.500000  0.416667  0.500000      4.000000
  0.500000  0.500000  0.500000      1.000000
 
 Following cartesian coordinates:
            Coordinates               Weight
  0.000000  0.000000  0.000000      1.000000
  0.024580  0.000000  0.000000      4.000000
  0.049160  0.000000  0.000000      4.000000
  0.073739  0.000000  0.000000      4.000000
  0.098319  0.000000  0.000000      4.000000
  0.122899  0.000000  0.000000      4.000000
  0.147479  0.000000  0.000000      2.000000
  0.024580  0.024580  0.000000      4.000000
  0.049160  0.024580  0.000000      8.000000
  0.073739  0.024580  0.000000      8.000000
  0.098319  0.024580  0.000000      8.000000
  0.122899  0.024580  0.000000      8.000000
  0.147479  0.024580  0.000000      4.000000
  0.049160  0.049160  0.000000      4.000000
  0.073739  0.049160  0.000000      8.000000
  0.098319  0.049160  0.000000      8.000000
  0.122899  0.049160  0.000000      8.000000
  0.147479  0.049160  0.000000      4.000000
  0.073739  0.073739  0.000000      4.000000
  0.098319  0.073739  0.000000      8.000000
  0.122899  0.073739  0.000000      8.000000
  0.147479  0.073739  0.000000      4.000000
  0.098319  0.098319  0.000000      4.000000
  0.122899  0.098319  0.000000      8.000000
  0.147479  0.098319  0.000000      4.000000
  0.122899  0.122899  0.000000      4.000000
  0.147479  0.122899  0.000000      4.000000
  0.147479  0.147479  0.000000      1.000000
  0.000000  0.000000  0.023318      2.000000
  0.024580  0.000000  0.023318      8.000000
  0.049160  0.000000  0.023318      8.000000
  0.073739  0.000000  0.023318      8.000000
  0.098319  0.000000  0.023318      8.000000
  0.122899  0.000000  0.023318      8.000000
  0.147479  0.000000  0.023318      4.000000
  0.024580  0.024580  0.023318      8.000000
  0.049160  0.024580  0.023318     16.000000
  0.073739  0.024580  0.023318     16.000000
  0.098319  0.024580  0.023318     16.000000
  0.122899  0.024580  0.023318     16.000000
  0.147479  0.024580  0.023318      8.000000
  0.049160  0.049160  0.023318      8.000000
  0.073739  0.049160  0.023318     16.000000
  0.098319  0.049160  0.023318     16.000000
  0.122899  0.049160  0.023318     16.000000
  0.147479  0.049160  0.023318      8.000000
  0.073739  0.073739  0.023318      8.000000
  0.098319  0.073739  0.023318     16.000000
  0.122899  0.073739  0.023318     16.000000
  0.147479  0.073739  0.023318      8.000000
  0.098319  0.098319  0.023318      8.000000
  0.122899  0.098319  0.023318     16.000000
  0.147479  0.098319  0.023318      8.000000
  0.122899  0.122899  0.023318      8.000000
  0.147479  0.122899  0.023318      8.000000
  0.147479  0.147479  0.023318      2.000000
  0.000000  0.000000  0.046637      2.000000
  0.024580  0.000000  0.046637      8.000000
  0.049160  0.000000  0.046637      8.000000
  0.073739  0.000000  0.046637      8.000000
  0.098319  0.000000  0.046637      8.000000
  0.122899  0.000000  0.046637      8.000000
  0.147479  0.000000  0.046637      4.000000
  0.024580  0.024580  0.046637      8.000000
  0.049160  0.024580  0.046637     16.000000
  0.073739  0.024580  0.046637     16.000000
  0.098319  0.024580  0.046637     16.000000
  0.122899  0.024580  0.046637     16.000000
  0.147479  0.024580  0.046637      8.000000
  0.049160  0.049160  0.046637      8.000000
  0.073739  0.049160  0.046637     16.000000
  0.098319  0.049160  0.046637     16.000000
  0.122899  0.049160  0.046637     16.000000
  0.147479  0.049160  0.046637      8.000000
  0.073739  0.073739  0.046637      8.000000
  0.098319  0.073739  0.046637     16.000000
  0.122899  0.073739  0.046637     16.000000
  0.147479  0.073739  0.046637      8.000000
  0.098319  0.098319  0.046637      8.000000
  0.122899  0.098319  0.046637     16.000000
  0.147479  0.098319  0.046637      8.000000
  0.122899  0.122899  0.046637      8.000000
  0.147479  0.122899  0.046637      8.000000
  0.147479  0.147479  0.046637      2.000000
  0.000000  0.000000  0.069955      2.000000
  0.024580  0.000000  0.069955      8.000000
  0.049160  0.000000  0.069955      8.000000
  0.073739  0.000000  0.069955      8.000000
  0.098319  0.000000  0.069955      8.000000
  0.122899  0.000000  0.069955      8.000000
  0.147479  0.000000  0.069955      4.000000
  0.024580  0.024580  0.069955      8.000000
  0.049160  0.024580  0.069955     16.000000
  0.073739  0.024580  0.069955     16.000000
  0.098319  0.024580  0.069955     16.000000
  0.122899  0.024580  0.069955     16.000000
  0.147479  0.024580  0.069955      8.000000
  0.049160  0.049160  0.069955      8.000000
  0.073739  0.049160  0.069955     16.000000
  0.098319  0.049160  0.069955     16.000000
  0.122899  0.049160  0.069955     16.000000
  0.147479  0.049160  0.069955      8.000000
  0.073739  0.073739  0.069955      8.000000
  0.098319  0.073739  0.069955     16.000000
  0.122899  0.073739  0.069955     16.000000
  0.147479  0.073739  0.069955      8.000000
  0.098319  0.098319  0.069955      8.000000
  0.122899  0.098319  0.069955     16.000000
  0.147479  0.098319  0.069955      8.000000
  0.122899  0.122899  0.069955      8.000000
  0.147479  0.122899  0.069955      8.000000
  0.147479  0.147479  0.069955      2.000000
  0.000000  0.000000  0.093274      2.000000
  0.024580  0.000000  0.093274      8.000000
  0.049160  0.000000  0.093274      8.000000
  0.073739  0.000000  0.093274      8.000000
  0.098319  0.000000  0.093274      8.000000
  0.122899  0.000000  0.093274      8.000000
  0.147479  0.000000  0.093274      4.000000
  0.024580  0.024580  0.093274      8.000000
  0.049160  0.024580  0.093274     16.000000
  0.073739  0.024580  0.093274     16.000000
  0.098319  0.024580  0.093274     16.000000
  0.122899  0.024580  0.093274     16.000000
  0.147479  0.024580  0.093274      8.000000
  0.049160  0.049160  0.093274      8.000000
  0.073739  0.049160  0.093274     16.000000
  0.098319  0.049160  0.093274     16.000000
  0.122899  0.049160  0.093274     16.000000
  0.147479  0.049160  0.093274      8.000000
  0.073739  0.073739  0.093274      8.000000
  0.098319  0.073739  0.093274     16.000000
  0.122899  0.073739  0.093274     16.000000
  0.147479  0.073739  0.093274      8.000000
  0.098319  0.098319  0.093274      8.000000
  0.122899  0.098319  0.093274     16.000000
  0.147479  0.098319  0.093274      8.000000
  0.122899  0.122899  0.093274      8.000000
  0.147479  0.122899  0.093274      8.000000
  0.147479  0.147479  0.093274      2.000000
  0.000000  0.000000  0.116592      2.000000
  0.024580  0.000000  0.116592      8.000000
  0.049160  0.000000  0.116592      8.000000
  0.073739  0.000000  0.116592      8.000000
  0.098319  0.000000  0.116592      8.000000
  0.122899  0.000000  0.116592      8.000000
  0.147479  0.000000  0.116592      4.000000
  0.024580  0.024580  0.116592      8.000000
  0.049160  0.024580  0.116592     16.000000
  0.073739  0.024580  0.116592     16.000000
  0.098319  0.024580  0.116592     16.000000
  0.122899  0.024580  0.116592     16.000000
  0.147479  0.024580  0.116592      8.000000
  0.049160  0.049160  0.116592      8.000000
  0.073739  0.049160  0.116592     16.000000
  0.098319  0.049160  0.116592     16.000000
  0.122899  0.049160  0.116592     16.000000
  0.147479  0.049160  0.116592      8.000000
  0.073739  0.073739  0.116592      8.000000
  0.098319  0.073739  0.116592     16.000000
  0.122899  0.073739  0.116592     16.000000
  0.147479  0.073739  0.116592      8.000000
  0.098319  0.098319  0.116592      8.000000
  0.122899  0.098319  0.116592     16.000000
  0.147479  0.098319  0.116592      8.000000
  0.122899  0.122899  0.116592      8.000000
  0.147479  0.122899  0.116592      8.000000
  0.147479  0.147479  0.116592      2.000000
  0.000000  0.000000  0.139911      1.000000
  0.024580  0.000000  0.139911      4.000000
  0.049160  0.000000  0.139911      4.000000
  0.073739  0.000000  0.139911      4.000000
  0.098319  0.000000  0.139911      4.000000
  0.122899  0.000000  0.139911      4.000000
  0.147479  0.000000  0.139911      2.000000
  0.024580  0.024580  0.139911      4.000000
  0.049160  0.024580  0.139911      8.000000
  0.073739  0.024580  0.139911      8.000000
  0.098319  0.024580  0.139911      8.000000
  0.122899  0.024580  0.139911      8.000000
  0.147479  0.024580  0.139911      4.000000
  0.049160  0.049160  0.139911      4.000000
  0.073739  0.049160  0.139911      8.000000
  0.098319  0.049160  0.139911      8.000000
  0.122899  0.049160  0.139911      8.000000
  0.147479  0.049160  0.139911      4.000000
  0.073739  0.073739  0.139911      4.000000
  0.098319  0.073739  0.139911      8.000000
  0.122899  0.073739  0.139911      8.000000
  0.147479  0.073739  0.139911      4.000000
  0.098319  0.098319  0.139911      4.000000
  0.122899  0.098319  0.139911      8.000000
  0.147479  0.098319  0.139911      4.000000
  0.122899  0.122899  0.139911      4.000000
  0.147479  0.122899  0.139911      4.000000
  0.147479  0.147479  0.139911      1.000000
 
 TETIRR: Found   2592 inequivalent tetrahedra from    10368


--------------------------------------------------------------------------------------------------------




 Dimension of arrays:
   k-points           NKPTS =    196   k-points in BZ     NKDIM =    196   number of bands    NBANDS=     24
   number of dos      NEDOS =    301   number of ions     NIONS =      8
   non local maximal  LDIM  =      4   non local SUM 2l+1 LMDIM =      8
   total plane-waves  NPLWV =  13824
   max r-space proj   IRMAX =      1   max aug-charges    IRDMAX=   4117
   dimension x,y,z NGX =    24 NGY =   24 NGZ =   24
   dimension x,y,z NGXF=    48 NGYF=   48 NGZF=   48
   support grid    NGXF=    48 NGYF=   48 NGZF=   48
   ions per type =               8
   NGX,Y,Z   is equivalent  to a cutoff of  11.72, 11.72, 11.11 a.u.
   NGXF,Y,Z  is equivalent  to a cutoff of  23.43, 23.43, 22.23 a.u.

 SYSTEM =  unknown system                          
 POSCAR =  C8                                      

 Startparameter for this run:
   NWRITE =      2    write-flag & timer
   PREC   = accura    normal or accurate (medium, high low for compatibility)
   ISTART =      0    job   : 0-new  1-cont  2-samecut
   ICHARG =      2    charge: 1-file 2-atom 10-const
   ISPIN  =      1    spin polarized calculation?
   LNONCOLLINEAR =      F non collinear calculations
   LSORBIT =      F    spin-orbit coupling
   INIWAV =      1    electr: 0-lowe 1-rand  2-diag
   LASPH  =      F    aspherical Exc in radial PAW
   METAGGA=      F    non-selfconsistent MetaGGA calc.

 Electronic Relaxation 1
   ENCUT  =  400.0 eV  29.40 Ry    5.42 a.u.   5.55  5.55  5.85*2*pi/ulx,y,z
   ENINI  =  400.0     initial cutoff
   ENAUG  =  644.9 eV  augmentation charge cutoff
   NELM   =     60;   NELMIN=  2; NELMDL= -5     # of ELM steps 
   EDIFF  = 0.1E-05   stopping-criterion for ELM
   LREAL  =      F    real-space projection
   NLSPLINE    = F    spline interpolate recip. space projectors
   LCOMPAT=      F    compatible to vasp.4.4
   GGA_COMPAT  = T    GGA compatible to vasp.4.4-vasp.4.6
   LMAXPAW     = -100 max onsite density
   LMAXMIX     =    2 max onsite mixed and CHGCAR
   VOSKOWN=      0    Vosko Wilk Nusair interpolation
   ROPT   =    0.00000
 Ionic relaxation
   EDIFFG = 0.1E-04   stopping-criterion for IOM
   NSW    =      0    number of steps for IOM
   NBLOCK =      1;   KBLOCK =      1    inner block; outer block 
   IBRION =     -1    ionic relax: 0-MD 1-quasi-New 2-CG
   NFREE  =      0    steps in history (QN), initial steepest desc. (CG)
   ISIF   =      2    stress and relaxation
   IWAVPR =     10    prediction:  0-non 1-charg 2-wave 3-comb
   ISYM   =      2    0-nonsym 1-usesym 2-fastsym
   LCORR  =      T    Harris-Foulkes like correction to forces

   POTIM  = 0.0200    time-step for ionic-motion
   TEIN   =    0.0    initial temperature
   TEBEG  =    0.0;   TEEND  =   0.0 temperature during run
   SMASS  =  -3.00    Nose mass-parameter (am)
   estimated Nose-frequenzy (Omega)   =  0.10E-29 period in steps =****** mass=  -0.265E-27a.u.
   SCALEE = 1.0000    scale energy and forces
   NPACO  =    256;   APACO  = 16.0  distance and # of slots for P.C.
   PSTRESS=    0.0 pullay stress

  Mass of Ions in am
   POMASS =  12.01
  Ionic Valenz
   ZVAL   =   4.00
  Atomic Wigner-Seitz radii
   RWIGS  =  -1.00
  virtual crystal weights 
   VCA    =   1.00
   NELECT =      32.0000    total number of electrons
   NUPDOWN=      -1.0000    fix difference up-down

 DOS related values:
   EMIN   =  10.00;   EMAX   =-10.00  energy-range for DOS
   EFERMI =   0.00
   ISMEAR =    -5;   SIGMA  =   0.06  broadening in eV -4-tet -1-fermi 0-gaus

 Electronic relaxation 2 (details)
   IALGO  =     38    algorithm
   LDIAG  =      T    sub-space diagonalisation (order eigenvalues)
   LSUBROT=      F    optimize rotation matrix (better conditioning)
   TURBO    =      0    0=normal 1=particle mesh
   IRESTART =      0    0=no restart 2=restart with 2 vectors
   NREBOOT  =      0    no. of reboots
   NMIN     =      0    reboot dimension
   EREF     =   0.00    reference energy to select bands
   IMIX   =      4    mixing-type and parameters
     AMIX     =   0.40;   BMIX     =  1.00
     AMIX_MAG =   1.60;   BMIX_MAG =  1.00
     AMIN     =   0.10
     WC   =   100.;   INIMIX=   1;  MIXPRE=   1;  MAXMIX= -45

 Intra band minimization:
   WEIMIN = 0.0000     energy-eigenvalue tresh-hold
   EBREAK =  0.10E-07  absolut break condition
   DEPER  =   0.30     relativ break condition  

   TIME   =   0.40     timestep for ELM

  volume/ion in A,a.u.               =       5.21        35.13
  Fermi-wavevector in a.u.,A,eV,Ry     =   1.499511  2.833665 30.593146  2.248533
  Thomas-Fermi vector in A             =   2.611131
 
 Write flags
   LWAVE        =      F    write WAVECAR
   LDOWNSAMPLE  =      F    k-point downsampling of WAVECAR
   LCHARG       =      F    write CHGCAR
   LVTOT        =      F    write LOCPOT, total local potential
   LVHAR        =      F    write LOCPOT, Hartree potential only
   LELF         =      F    write electronic localiz. function (ELF)
   LORBIT       =      0    0 simple, 1 ext, 2 COOP (PROOUT), +10 PAW based schemes


 Dipole corrections
   LMONO  =      F    monopole corrections only (constant potential shift)
   LDIPOL =      F    correct potential (dipole corrections)
   IDIPOL =      0    1-x, 2-y, 3-z, 4-all directions 
   EPSILON=  1.0000000 bulk dielectric constant

 Exchange correlation treatment:
   GGA     =    --    GGA type
   LEXCH   =     8    internal setting for exchange type
   VOSKOWN=      0    Vosko Wilk Nusair interpolation
   LHFCALC =     F    Hartree Fock is set to
   LHFONE  =     F    Hartree Fock one center treatment
   AEXX    =    0.0000 exact exchange contribution

 Linear response parameters
   LEPSILON=     F    determine dielectric tensor
   LRPA    =     F    only Hartree local field effects (RPA)
   LNABLA  =     F    use nabla operator in PAW spheres
   LVEL    =     F    velocity operator in full k-point grid
   LINTERFAST=   F  fast interpolation
   KINTER  =     0    interpolate to denser k-point grid
   CSHIFT  =0.1000    complex shift for real part using Kramers Kronig
   OMEGAMAX=  -1.0    maximum frequency
   DEG_THRESHOLD= 0.2000000E-02 threshold for treating states as degnerate
   RTIME   =   -0.100 relaxation time in fs
  (WPLASMAI=    0.000 imaginary part of plasma frequency in eV, 0.658/RTIME)
   DFIELD  = 0.0000000 0.0000000 0.0000000 field for delta impulse in time
 
 Orbital magnetization related:
   ORBITALMAG=     F  switch on orbital magnetization
   LCHIMAG   =     F  perturbation theory with respect to B field
   DQ        =  0.001000  dq finite difference perturbation B field
   LLRAUG    =     F  two centre corrections for induced B field



--------------------------------------------------------------------------------------------------------


 Static calculation
 charge density and potential will be updated during run
 non-spin polarized calculation
 Variant of blocked Davidson
 Davidson routine will perform the subspace rotation
 perform sub-space diagonalisation
    after iterative eigenvector-optimisation
 modified Broyden-mixing scheme, WC =      100.0
 initial mixing is a Kerker type mixing with AMIX =  0.4000 and BMIX =      1.0000
 Hartree-type preconditioning will be used
 using additional bands            8
 reciprocal scheme for non local part
 calculate Harris-corrections to forces 
   (improved forces if not selfconsistent)
 use gradient corrections 
 use of overlap-Matrix (Vanderbilt PP)
 Fermi weights with tetrahedron method with Bloechl corrections


--------------------------------------------------------------------------------------------------------


  energy-cutoff  :      400.00
  volume of cell :       41.64
      direct lattice vectors                 reciprocal lattice vectors
     3.405772443  0.000000000  0.000000000     0.293619147  0.000000000  0.000000000
     0.000000000  3.405772443  0.000000000     0.000000000  0.293619147  0.000000000
     0.000000000  0.000000000  3.589999359     0.000000000  0.000000000  0.278551582

  length of vectors
     3.405772443  3.405772443  3.589999359     0.293619147  0.293619147  0.278551582


 
 k-points in units of 2pi/SCALE and weight: kpt_density=1000                        
   0.00000000  0.00000000  0.00000000       0.001
   0.02457979  0.00000000  0.00000000       0.002
   0.04915958  0.00000000  0.00000000       0.002
   0.07373937  0.00000000  0.00000000       0.002
   0.09831917  0.00000000  0.00000000       0.002
   0.12289896  0.00000000  0.00000000       0.002
   0.14747875  0.00000000  0.00000000       0.001
   0.02457979  0.02457979  0.00000000       0.002
   0.04915958  0.02457979  0.00000000       0.005
   0.07373937  0.02457979  0.00000000       0.005
   0.09831917  0.02457979  0.00000000       0.005
   0.12289896  0.02457979  0.00000000       0.005
   0.14747875  0.02457979  0.00000000       0.002
   0.04915958  0.04915958  0.00000000       0.002
   0.07373937  0.04915958  0.00000000       0.005
   0.09831917  0.04915958  0.00000000       0.005
   0.12289896  0.04915958  0.00000000       0.005
   0.14747875  0.04915958  0.00000000       0.002
   0.07373937  0.07373937  0.00000000       0.002
   0.09831917  0.07373937  0.00000000       0.005
   0.12289896  0.07373937  0.00000000       0.005
   0.14747875  0.07373937  0.00000000       0.002
   0.09831917  0.09831917  0.00000000       0.002
   0.12289896  0.09831917  0.00000000       0.005
   0.14747875  0.09831917  0.00000000       0.002
   0.12289896  0.12289896  0.00000000       0.002
   0.14747875  0.12289896  0.00000000       0.002
   0.14747875  0.14747875  0.00000000       0.001
   0.00000000  0.00000000  0.02331844       0.001
   0.02457979  0.00000000  0.02331844       0.005
   0.04915958  0.00000000  0.02331844       0.005
   0.07373937  0.00000000  0.02331844       0.005
   0.09831917  0.00000000  0.02331844       0.005
   0.12289896  0.00000000  0.02331844       0.005
   0.14747875  0.00000000  0.02331844       0.002
   0.02457979  0.02457979  0.02331844       0.005
   0.04915958  0.02457979  0.02331844       0.009
   0.07373937  0.02457979  0.02331844       0.009
   0.09831917  0.02457979  0.02331844       0.009
   0.12289896  0.02457979  0.02331844       0.009
   0.14747875  0.02457979  0.02331844       0.005
   0.04915958  0.04915958  0.02331844       0.005
   0.07373937  0.04915958  0.02331844       0.009
   0.09831917  0.04915958  0.02331844       0.009
   0.12289896  0.04915958  0.02331844       0.009
   0.14747875  0.04915958  0.02331844       0.005
   0.07373937  0.07373937  0.02331844       0.005
   0.09831917  0.07373937  0.02331844       0.009
   0.12289896  0.07373937  0.02331844       0.009
   0.14747875  0.07373937  0.02331844       0.005
   0.09831917  0.09831917  0.02331844       0.005
   0.12289896  0.09831917  0.02331844       0.009
   0.14747875  0.09831917  0.02331844       0.005
   0.12289896  0.12289896  0.02331844       0.005
   0.14747875  0.12289896  0.02331844       0.005
   0.14747875  0.14747875  0.02331844       0.001
   0.00000000  0.00000000  0.04663688       0.001
   0.02457979  0.00000000  0.04663688       0.005
   0.04915958  0.00000000  0.04663688       0.005
   0.07373937  0.00000000  0.04663688       0.005
   0.09831917  0.00000000  0.04663688       0.005
   0.12289896  0.00000000  0.04663688       0.005
   0.14747875  0.00000000  0.04663688       0.002
   0.02457979  0.02457979  0.04663688       0.005
   0.04915958  0.02457979  0.04663688       0.009
   0.07373937  0.02457979  0.04663688       0.009
   0.09831917  0.02457979  0.04663688       0.009
   0.12289896  0.02457979  0.04663688       0.009
   0.14747875  0.02457979  0.04663688       0.005
   0.04915958  0.04915958  0.04663688       0.005
   0.07373937  0.04915958  0.04663688       0.009
   0.09831917  0.04915958  0.04663688       0.009
   0.12289896  0.04915958  0.04663688       0.009
   0.14747875  0.04915958  0.04663688       0.005
   0.07373937  0.07373937  0.04663688       0.005
   0.09831917  0.07373937  0.04663688       0.009
   0.12289896  0.07373937  0.04663688       0.009
   0.14747875  0.07373937  0.04663688       0.005
   0.09831917  0.09831917  0.04663688       0.005
   0.12289896  0.09831917  0.04663688       0.009
   0.14747875  0.09831917  0.04663688       0.005
   0.12289896  0.12289896  0.04663688       0.005
   0.14747875  0.12289896  0.04663688       0.005
   0.14747875  0.14747875  0.04663688       0.001
   0.00000000  0.00000000  0.06995531       0.001
   0.02457979  0.00000000  0.06995531       0.005
   0.04915958  0.00000000  0.06995531       0.005
   0.07373937  0.00000000  0.06995531       0.005
   0.09831917  0.00000000  0.06995531       0.005
   0.12289896  0.00000000  0.06995531       0.005
   0.14747875  0.00000000  0.06995531       0.002
   0.02457979  0.02457979  0.06995531       0.005
   0.04915958  0.02457979  0.06995531       0.009
   0.07373937  0.02457979  0.06995531       0.009
   0.09831917  0.02457979  0.06995531       0.009
   0.12289896  0.02457979  0.06995531       0.009
   0.14747875  0.02457979  0.06995531       0.005
   0.04915958  0.04915958  0.06995531       0.005
   0.07373937  0.04915958  0.06995531       0.009
   0.09831917  0.04915958  0.06995531       0.009
   0.12289896  0.04915958  0.06995531       0.009
   0.14747875  0.04915958  0.06995531       0.005
   0.07373937  0.07373937  0.06995531       0.005
   0.09831917  0.07373937  0.06995531       0.009
   0.12289896  0.07373937  0.06995531       0.009
   0.14747875  0.07373937  0.06995531       0.005
   0.09831917  0.09831917  0.06995531       0.005
   0.12289896  0.09831917  0.06995531       0.009
   0.14747875  0.09831917  0.06995531       0.005
   0.12289896  0.12289896  0.06995531       0.005
   0.14747875  0.12289896  0.06995531       0.005
   0.14747875  0.14747875  0.06995531       0.001
   0.00000000  0.00000000  0.09327375       0.001
   0.02457979  0.00000000  0.09327375       0.005
   0.04915958  0.00000000  0.09327375       0.005
   0.07373937  0.00000000  0.09327375       0.005
   0.09831917  0.00000000  0.09327375       0.005
   0.12289896  0.00000000  0.09327375       0.005
   0.14747875  0.00000000  0.09327375       0.002
   0.02457979  0.02457979  0.09327375       0.005
   0.04915958  0.02457979  0.09327375       0.009
   0.07373937  0.02457979  0.09327375       0.009
   0.09831917  0.02457979  0.09327375       0.009
   0.12289896  0.02457979  0.09327375       0.009
   0.14747875  0.02457979  0.09327375       0.005
   0.04915958  0.04915958  0.09327375       0.005
   0.07373937  0.04915958  0.09327375       0.009
   0.09831917  0.04915958  0.09327375       0.009
   0.12289896  0.04915958  0.09327375       0.009
   0.14747875  0.04915958  0.09327375       0.005
   0.07373937  0.07373937  0.09327375       0.005
   0.09831917  0.07373937  0.09327375       0.009
   0.12289896  0.07373937  0.09327375       0.009
   0.14747875  0.07373937  0.09327375       0.005
   0.09831917  0.09831917  0.09327375       0.005
   0.12289896  0.09831917  0.09327375       0.009
   0.14747875  0.09831917  0.09327375       0.005
   0.12289896  0.12289896  0.09327375       0.005
   0.14747875  0.12289896  0.09327375       0.005
   0.14747875  0.14747875  0.09327375       0.001
   0.00000000  0.00000000  0.11659219       0.001
   0.02457979  0.00000000  0.11659219       0.005
   0.04915958  0.00000000  0.11659219       0.005
   0.07373937  0.00000000  0.11659219       0.005
   0.09831917  0.00000000  0.11659219       0.005
   0.12289896  0.00000000  0.11659219       0.005
   0.14747875  0.00000000  0.11659219       0.002
   0.02457979  0.02457979  0.11659219       0.005
   0.04915958  0.02457979  0.11659219       0.009
   0.07373937  0.02457979  0.11659219       0.009
   0.09831917  0.02457979  0.11659219       0.009
   0.12289896  0.02457979  0.11659219       0.009
   0.14747875  0.02457979  0.11659219       0.005
   0.04915958  0.04915958  0.11659219       0.005
   0.07373937  0.04915958  0.11659219       0.009
   0.09831917  0.04915958  0.11659219       0.009
   0.12289896  0.04915958  0.11659219       0.009
   0.14747875  0.04915958  0.11659219       0.005
   0.07373937  0.07373937  0.11659219       0.005
   0.09831917  0.07373937  0.11659219       0.009
   0.12289896  0.07373937  0.11659219       0.009
   0.14747875  0.07373937  0.11659219       0.005
   0.09831917  0.09831917  0.11659219       0.005
   0.12289896  0.09831917  0.11659219       0.009
   0.14747875  0.09831917  0.11659219       0.005
   0.12289896  0.12289896  0.11659219       0.005
   0.14747875  0.12289896  0.11659219       0.005
   0.14747875  0.14747875  0.11659219       0.001
   0.00000000  0.00000000  0.13991063       0.001
   0.02457979  0.00000000  0.13991063       0.002
   0.04915958  0.00000000  0.13991063       0.002
   0.07373937  0.00000000  0.13991063       0.002
   0.09831917  0.00000000  0.13991063       0.002
   0.12289896  0.00000000  0.13991063       0.002
   0.14747875  0.00000000  0.13991063       0.001
   0.02457979  0.02457979  0.13991063       0.002
   0.04915958  0.02457979  0.13991063       0.005
   0.07373937  0.02457979  0.13991063       0.005
   0.09831917  0.02457979  0.13991063       0.005
   0.12289896  0.02457979  0.13991063       0.005
   0.14747875  0.02457979  0.13991063       0.002
   0.04915958  0.04915958  0.13991063       0.002
   0.07373937  0.04915958  0.13991063       0.005
   0.09831917  0.04915958  0.13991063       0.005
   0.12289896  0.04915958  0.13991063       0.005
   0.14747875  0.04915958  0.13991063       0.002
   0.07373937  0.07373937  0.13991063       0.002
   0.09831917  0.07373937  0.13991063       0.005
   0.12289896  0.07373937  0.13991063       0.005
   0.14747875  0.07373937  0.13991063       0.002
   0.09831917  0.09831917  0.13991063       0.002
   0.12289896  0.09831917  0.13991063       0.005
   0.14747875  0.09831917  0.13991063       0.002
   0.12289896  0.12289896  0.13991063       0.002
   0.14747875  0.12289896  0.13991063       0.002
   0.14747875  0.14747875  0.13991063       0.001
 
 k-points in reciprocal lattice and weights: kpt_density=1000                        
   0.00000000  0.00000000  0.00000000       0.001
   0.08333333  0.00000000  0.00000000       0.002
   0.16666667  0.00000000  0.00000000       0.002
   0.25000000  0.00000000  0.00000000       0.002
   0.33333333  0.00000000  0.00000000       0.002
   0.41666667  0.00000000  0.00000000       0.002
   0.50000000  0.00000000  0.00000000       0.001
   0.08333333  0.08333333  0.00000000       0.002
   0.16666667  0.08333333  0.00000000       0.005
   0.25000000  0.08333333  0.00000000       0.005
   0.33333333  0.08333333  0.00000000       0.005
   0.41666667  0.08333333  0.00000000       0.005
   0.50000000  0.08333333  0.00000000       0.002
   0.16666667  0.16666667  0.00000000       0.002
   0.25000000  0.16666667  0.00000000       0.005
   0.33333333  0.16666667  0.00000000       0.005
   0.41666667  0.16666667  0.00000000       0.005
   0.50000000  0.16666667  0.00000000       0.002
   0.25000000  0.25000000  0.00000000       0.002
   0.33333333  0.25000000  0.00000000       0.005
   0.41666667  0.25000000  0.00000000       0.005
   0.50000000  0.25000000  0.00000000       0.002
   0.33333333  0.33333333  0.00000000       0.002
   0.41666667  0.33333333  0.00000000       0.005
   0.50000000  0.33333333  0.00000000       0.002
   0.41666667  0.41666667  0.00000000       0.002
   0.50000000  0.41666667  0.00000000       0.002
   0.50000000  0.50000000  0.00000000       0.001
   0.00000000  0.00000000  0.08333333       0.001
   0.08333333  0.00000000  0.08333333       0.005
   0.16666667  0.00000000  0.08333333       0.005
   0.25000000  0.00000000  0.08333333       0.005
   0.33333333  0.00000000  0.08333333       0.005
   0.41666667  0.00000000  0.08333333       0.005
   0.50000000  0.00000000  0.08333333       0.002
   0.08333333  0.08333333  0.08333333       0.005
   0.16666667  0.08333333  0.08333333       0.009
   0.25000000  0.08333333  0.08333333       0.009
   0.33333333  0.08333333  0.08333333       0.009
   0.41666667  0.08333333  0.08333333       0.009
   0.50000000  0.08333333  0.08333333       0.005
   0.16666667  0.16666667  0.08333333       0.005
   0.25000000  0.16666667  0.08333333       0.009
   0.33333333  0.16666667  0.08333333       0.009
   0.41666667  0.16666667  0.08333333       0.009
   0.50000000  0.16666667  0.08333333       0.005
   0.25000000  0.25000000  0.08333333       0.005
   0.33333333  0.25000000  0.08333333       0.009
   0.41666667  0.25000000  0.08333333       0.009
   0.50000000  0.25000000  0.08333333       0.005
   0.33333333  0.33333333  0.08333333       0.005
   0.41666667  0.33333333  0.08333333       0.009
   0.50000000  0.33333333  0.08333333       0.005
   0.41666667  0.41666667  0.08333333       0.005
   0.50000000  0.41666667  0.08333333       0.005
   0.50000000  0.50000000  0.08333333       0.001
   0.00000000  0.00000000  0.16666667       0.001
   0.08333333  0.00000000  0.16666667       0.005
   0.16666667  0.00000000  0.16666667       0.005
   0.25000000  0.00000000  0.16666667       0.005
   0.33333333  0.00000000  0.16666667       0.005
   0.41666667  0.00000000  0.16666667       0.005
   0.50000000  0.00000000  0.16666667       0.002
   0.08333333  0.08333333  0.16666667       0.005
   0.16666667  0.08333333  0.16666667       0.009
   0.25000000  0.08333333  0.16666667       0.009
   0.33333333  0.08333333  0.16666667       0.009
   0.41666667  0.08333333  0.16666667       0.009
   0.50000000  0.08333333  0.16666667       0.005
   0.16666667  0.16666667  0.16666667       0.005
   0.25000000  0.16666667  0.16666667       0.009
   0.33333333  0.16666667  0.16666667       0.009
   0.41666667  0.16666667  0.16666667       0.009
   0.50000000  0.16666667  0.16666667       0.005
   0.25000000  0.25000000  0.16666667       0.005
   0.33333333  0.25000000  0.16666667       0.009
   0.41666667  0.25000000  0.16666667       0.009
   0.50000000  0.25000000  0.16666667       0.005
   0.33333333  0.33333333  0.16666667       0.005
   0.41666667  0.33333333  0.16666667       0.009
   0.50000000  0.33333333  0.16666667       0.005
   0.41666667  0.41666667  0.16666667       0.005
   0.50000000  0.41666667  0.16666667       0.005
   0.50000000  0.50000000  0.16666667       0.001
   0.00000000  0.00000000  0.25000000       0.001
   0.08333333  0.00000000  0.25000000       0.005
   0.16666667  0.00000000  0.25000000       0.005
   0.25000000  0.00000000  0.25000000       0.005
   0.33333333  0.00000000  0.25000000       0.005
   0.41666667  0.00000000  0.25000000       0.005
   0.50000000  0.00000000  0.25000000       0.002
   0.08333333  0.08333333  0.25000000       0.005
   0.16666667  0.08333333  0.25000000       0.009
   0.25000000  0.08333333  0.25000000       0.009
   0.33333333  0.08333333  0.25000000       0.009
   0.41666667  0.08333333  0.25000000       0.009
   0.50000000  0.08333333  0.25000000       0.005
   0.16666667  0.16666667  0.25000000       0.005
   0.25000000  0.16666667  0.25000000       0.009
   0.33333333  0.16666667  0.25000000       0.009
   0.41666667  0.16666667  0.25000000       0.009
   0.50000000  0.16666667  0.25000000       0.005
   0.25000000  0.25000000  0.25000000       0.005
   0.33333333  0.25000000  0.25000000       0.009
   0.41666667  0.25000000  0.25000000       0.009
   0.50000000  0.25000000  0.25000000       0.005
   0.33333333  0.33333333  0.25000000       0.005
   0.41666667  0.33333333  0.25000000       0.009
   0.50000000  0.33333333  0.25000000       0.005
   0.41666667  0.41666667  0.25000000       0.005
   0.50000000  0.41666667  0.25000000       0.005
   0.50000000  0.50000000  0.25000000       0.001
   0.00000000  0.00000000  0.33333333       0.001
   0.08333333  0.00000000  0.33333333       0.005
   0.16666667  0.00000000  0.33333333       0.005
   0.25000000  0.00000000  0.33333333       0.005
   0.33333333  0.00000000  0.33333333       0.005
   0.41666667  0.00000000  0.33333333       0.005
   0.50000000  0.00000000  0.33333333       0.002
   0.08333333  0.08333333  0.33333333       0.005
   0.16666667  0.08333333  0.33333333       0.009
   0.25000000  0.08333333  0.33333333       0.009
   0.33333333  0.08333333  0.33333333       0.009
   0.41666667  0.08333333  0.33333333       0.009
   0.50000000  0.08333333  0.33333333       0.005
   0.16666667  0.16666667  0.33333333       0.005
   0.25000000  0.16666667  0.33333333       0.009
   0.33333333  0.16666667  0.33333333       0.009
   0.41666667  0.16666667  0.33333333       0.009
   0.50000000  0.16666667  0.33333333       0.005
   0.25000000  0.25000000  0.33333333       0.005
   0.33333333  0.25000000  0.33333333       0.009
   0.41666667  0.25000000  0.33333333       0.009
   0.50000000  0.25000000  0.33333333       0.005
   0.33333333  0.33333333  0.33333333       0.005
   0.41666667  0.33333333  0.33333333       0.009
   0.50000000  0.33333333  0.33333333       0.005
   0.41666667  0.41666667  0.33333333       0.005
   0.50000000  0.41666667  0.33333333       0.005
   0.50000000  0.50000000  0.33333333       0.001
   0.00000000  0.00000000  0.41666667       0.001
   0.08333333  0.00000000  0.41666667       0.005
   0.16666667  0.00000000  0.41666667       0.005
   0.25000000  0.00000000  0.41666667       0.005
   0.33333333  0.00000000  0.41666667       0.005
   0.41666667  0.00000000  0.41666667       0.005
   0.50000000  0.00000000  0.41666667       0.002
   0.08333333  0.08333333  0.41666667       0.005
   0.16666667  0.08333333  0.41666667       0.009
   0.25000000  0.08333333  0.41666667       0.009
   0.33333333  0.08333333  0.41666667       0.009
   0.41666667  0.08333333  0.41666667       0.009
   0.50000000  0.08333333  0.41666667       0.005
   0.16666667  0.16666667  0.41666667       0.005
   0.25000000  0.16666667  0.41666667       0.009
   0.33333333  0.16666667  0.41666667       0.009
   0.41666667  0.16666667  0.41666667       0.009
   0.50000000  0.16666667  0.41666667       0.005
   0.25000000  0.25000000  0.41666667       0.005
   0.33333333  0.25000000  0.41666667       0.009
   0.41666667  0.25000000  0.41666667       0.009
   0.50000000  0.25000000  0.41666667       0.005
   0.33333333  0.33333333  0.41666667       0.005
   0.41666667  0.33333333  0.41666667       0.009
   0.50000000  0.33333333  0.41666667       0.005
   0.41666667  0.41666667  0.41666667       0.005
   0.50000000  0.41666667  0.41666667       0.005
   0.50000000  0.50000000  0.41666667       0.001
   0.00000000  0.00000000  0.50000000       0.001
   0.08333333  0.00000000  0.50000000       0.002
   0.16666667  0.00000000  0.50000000       0.002
   0.25000000  0.00000000  0.50000000       0.002
   0.33333333  0.00000000  0.50000000       0.002
   0.41666667  0.00000000  0.50000000       0.002
   0.50000000  0.00000000  0.50000000       0.001
   0.08333333  0.08333333  0.50000000       0.002
   0.16666667  0.08333333  0.50000000       0.005
   0.25000000  0.08333333  0.50000000       0.005
   0.33333333  0.08333333  0.50000000       0.005
   0.41666667  0.08333333  0.50000000       0.005
   0.50000000  0.08333333  0.50000000       0.002
   0.16666667  0.16666667  0.50000000       0.002
   0.25000000  0.16666667  0.50000000       0.005
   0.33333333  0.16666667  0.50000000       0.005
   0.41666667  0.16666667  0.50000000       0.005
   0.50000000  0.16666667  0.50000000       0.002
   0.25000000  0.25000000  0.50000000       0.002
   0.33333333  0.25000000  0.50000000       0.005
   0.41666667  0.25000000  0.50000000       0.005
   0.50000000  0.25000000  0.50000000       0.002
   0.33333333  0.33333333  0.50000000       0.002
   0.41666667  0.33333333  0.50000000       0.005
   0.50000000  0.33333333  0.50000000       0.002
   0.41666667  0.41666667  0.50000000       0.002
   0.50000000  0.41666667  0.50000000       0.002
   0.50000000  0.50000000  0.50000000       0.001
 
 position of ions in fractional coordinates (direct lattice) 
   0.25000000  0.75000000  0.25000000
   0.00000000  0.00000000  0.50000000
   0.25000000  0.25000000  0.75000000
   0.00000000  0.50000000  0.00000000
   0.75000000  0.75000000  0.75000000
   0.50000000  0.00000000  0.00000000
   0.75000000  0.25000000  0.25000000
   0.50000000  0.50000000  0.50000000
 
 position of ions in cartesian coordinates  (Angst):
   0.85144311  2.55432933  0.89749984
   0.00000000  0.00000000  1.79499968
   0.85144311  0.85144311  2.69249952
   0.00000000  1.70288622  0.00000000
   2.55432933  2.55432933  2.69249952
   1.70288622  0.00000000  0.00000000
   2.55432933  0.85144311  0.89749984
   1.70288622  1.70288622  1.79499968
 


--------------------------------------------------------------------------------------------------------


 k-point  1 :   0.0000 0.0000 0.0000  plane waves:     755
 k-point  2 :   0.0833 0.0000 0.0000  plane waves:     757
 k-point  3 :   0.1667 0.0000 0.0000  plane waves:     749
 k-point  4 :   0.2500 0.0000 0.0000  plane waves:     747
 k-point  5 :   0.3333 0.0000 0.0000  plane waves:     761
 k-point  6 :   0.4167 0.0000 0.0000  plane waves:     761
 k-point  7 :   0.5000 0.0000 0.0000  plane waves:     760
 k-point  8 :   0.0833 0.0833 0.0000  plane waves:     750
 k-point  9 :   0.1667 0.0833 0.0000  plane waves:     747
 k-point 10 :   0.2500 0.0833 0.0000  plane waves:     752
 k-point 11 :   0.3333 0.0833 0.0000  plane waves:     755
 k-point 12 :   0.4167 0.0833 0.0000  plane waves:     758
 k-point 13 :   0.5000 0.0833 0.0000  plane waves:     754
 k-point 14 :   0.1667 0.1667 0.0000  plane waves:     752
 k-point 15 :   0.2500 0.1667 0.0000  plane waves:     752
 k-point 16 :   0.3333 0.1667 0.0000  plane waves:     758
 k-point 17 :   0.4167 0.1667 0.0000  plane waves:     756
 k-point 18 :   0.5000 0.1667 0.0000  plane waves:     762
 k-point 19 :   0.2500 0.2500 0.0000  plane waves:     754
 k-point 20 :   0.3333 0.2500 0.0000  plane waves:     757
 k-point 21 :   0.4167 0.2500 0.0000  plane waves:     760
 k-point 22 :   0.5000 0.2500 0.0000  plane waves:     752
 k-point 23 :   0.3333 0.3333 0.0000  plane waves:     762
 k-point 24 :   0.4167 0.3333 0.0000  plane waves:     751
 k-point 25 :   0.5000 0.3333 0.0000  plane waves:     748
 k-point 26 :   0.4167 0.4167 0.0000  plane waves:     748
 k-point 27 :   0.5000 0.4167 0.0000  plane waves:     750
 k-point 28 :   0.5000 0.5000 0.0000  plane waves:     752
 k-point 29 :   0.0000 0.0000 0.0833  plane waves:     759
 k-point 30 :   0.0833 0.0000 0.0833  plane waves:     753
 k-point 31 :   0.1667 0.0000 0.0833  plane waves:     758
 k-point 32 :   0.2500 0.0000 0.0833  plane waves:     758
 k-point 33 :   0.3333 0.0000 0.0833  plane waves:     755
 k-point 34 :   0.4167 0.0000 0.0833  plane waves:     755
 k-point 35 :   0.5000 0.0000 0.0833  plane waves:     756
 k-point 36 :   0.0833 0.0833 0.0833  plane waves:     752
 k-point 37 :   0.1667 0.0833 0.0833  plane waves:     751
 k-point 38 :   0.2500 0.0833 0.0833  plane waves:     754
 k-point 39 :   0.3333 0.0833 0.0833  plane waves:     757
 k-point 40 :   0.4167 0.0833 0.0833  plane waves:     759
 k-point 41 :   0.5000 0.0833 0.0833  plane waves:     760
 k-point 42 :   0.1667 0.1667 0.0833  plane waves:     751
 k-point 43 :   0.2500 0.1667 0.0833  plane waves:     751
 k-point 44 :   0.3333 0.1667 0.0833  plane waves:     759
 k-point 45 :   0.4167 0.1667 0.0833  plane waves:     758
 k-point 46 :   0.5000 0.1667 0.0833  plane waves:     756
 k-point 47 :   0.2500 0.2500 0.0833  plane waves:     750
 k-point 48 :   0.3333 0.2500 0.0833  plane waves:     755
 k-point 49 :   0.4167 0.2500 0.0833  plane waves:     755
 k-point 50 :   0.5000 0.2500 0.0833  plane waves:     750
 k-point 51 :   0.3333 0.3333 0.0833  plane waves:     758
 k-point 52 :   0.4167 0.3333 0.0833  plane waves:     753
 k-point 53 :   0.5000 0.3333 0.0833  plane waves:     750
 k-point 54 :   0.4167 0.4167 0.0833  plane waves:     752
 k-point 55 :   0.5000 0.4167 0.0833  plane waves:     754
 k-point 56 :   0.5000 0.5000 0.0833  plane waves:     752
 k-point 57 :   0.0000 0.0000 0.1667  plane waves:     760
 k-point 58 :   0.0833 0.0000 0.1667  plane waves:     758
 k-point 59 :   0.1667 0.0000 0.1667  plane waves:     760
 k-point 60 :   0.2500 0.0000 0.1667  plane waves:     763
 k-point 61 :   0.3333 0.0000 0.1667  plane waves:     765
 k-point 62 :   0.4167 0.0000 0.1667  plane waves:     752
 k-point 63 :   0.5000 0.0000 0.1667  plane waves:     748
 k-point 64 :   0.0833 0.0833 0.1667  plane waves:     758
 k-point 65 :   0.1667 0.0833 0.1667  plane waves:     756
 k-point 66 :   0.2500 0.0833 0.1667  plane waves:     758
 k-point 67 :   0.3333 0.0833 0.1667  plane waves:     759
 k-point 68 :   0.4167 0.0833 0.1667  plane waves:     755
 k-point 69 :   0.5000 0.0833 0.1667  plane waves:     756
 k-point 70 :   0.1667 0.1667 0.1667  plane waves:     751
 k-point 71 :   0.2500 0.1667 0.1667  plane waves:     752
 k-point 72 :   0.3333 0.1667 0.1667  plane waves:     760
 k-point 73 :   0.4167 0.1667 0.1667  plane waves:     762
 k-point 74 :   0.5000 0.1667 0.1667  plane waves:     758
 k-point 75 :   0.2500 0.2500 0.1667  plane waves:     757
 k-point 76 :   0.3333 0.2500 0.1667  plane waves:     753
 k-point 77 :   0.4167 0.2500 0.1667  plane waves:     753
 k-point 78 :   0.5000 0.2500 0.1667  plane waves:     758
 k-point 79 :   0.3333 0.3333 0.1667  plane waves:     746
 k-point 80 :   0.4167 0.3333 0.1667  plane waves:     748
 k-point 81 :   0.5000 0.3333 0.1667  plane waves:     748
 k-point 82 :   0.4167 0.4167 0.1667  plane waves:     749
 k-point 83 :   0.5000 0.4167 0.1667  plane waves:     750
 k-point 84 :   0.5000 0.5000 0.1667  plane waves:     752
 k-point 85 :   0.0000 0.0000 0.2500  plane waves:     776
 k-point 86 :   0.0833 0.0000 0.2500  plane waves:     769
 k-point 87 :   0.1667 0.0000 0.2500  plane waves:     763
 k-point 88 :   0.2500 0.0000 0.2500  plane waves:     761
 k-point 89 :   0.3333 0.0000 0.2500  plane waves:     755
 k-point 90 :   0.4167 0.0000 0.2500  plane waves:     752
 k-point 91 :   0.5000 0.0000 0.2500  plane waves:     750
 k-point 92 :   0.0833 0.0833 0.2500  plane waves:     768
 k-point 93 :   0.1667 0.0833 0.2500  plane waves:     759
 k-point 94 :   0.2500 0.0833 0.2500  plane waves:     757
 k-point 95 :   0.3333 0.0833 0.2500  plane waves:     756
 k-point 96 :   0.4167 0.0833 0.2500  plane waves:     757
 k-point 97 :   0.5000 0.0833 0.2500  plane waves:     750
 k-point 98 :   0.1667 0.1667 0.2500  plane waves:     758
 k-point 99 :   0.2500 0.1667 0.2500  plane waves:     753
 k-point ** :   0.3333 0.1667 0.2500  plane waves:     755
 k-point ** :   0.4167 0.1667 0.2500  plane waves:     762
 k-point ** :   0.5000 0.1667 0.2500  plane waves:     760
 k-point ** :   0.2500 0.2500 0.2500  plane waves:     756
 k-point ** :   0.3333 0.2500 0.2500  plane waves:     761
 k-point ** :   0.4167 0.2500 0.2500  plane waves:     756
 k-point ** :   0.5000 0.2500 0.2500  plane waves:     754
 k-point ** :   0.3333 0.3333 0.2500  plane waves:     752
 k-point ** :   0.4167 0.3333 0.2500  plane waves:     749
 k-point ** :   0.5000 0.3333 0.2500  plane waves:     752
 k-point ** :   0.4167 0.4167 0.2500  plane waves:     743
 k-point ** :   0.5000 0.4167 0.2500  plane waves:     746
 k-point ** :   0.5000 0.5000 0.2500  plane waves:     740
 k-point ** :   0.0000 0.0000 0.3333  plane waves:     768
 k-point ** :   0.0833 0.0000 0.3333  plane waves:     773
 k-point ** :   0.1667 0.0000 0.3333  plane waves:     766
 k-point ** :   0.2500 0.0000 0.3333  plane waves:     758
 k-point ** :   0.3333 0.0000 0.3333  plane waves:     758
 k-point ** :   0.4167 0.0000 0.3333  plane waves:     759
 k-point ** :   0.5000 0.0000 0.3333  plane waves:     754
 k-point ** :   0.0833 0.0833 0.3333  plane waves:     769
 k-point ** :   0.1667 0.0833 0.3333  plane waves:     769
 k-point ** :   0.2500 0.0833 0.3333  plane waves:     762
 k-point ** :   0.3333 0.0833 0.3333  plane waves:     756
 k-point ** :   0.4167 0.0833 0.3333  plane waves:     754
 k-point ** :   0.5000 0.0833 0.3333  plane waves:     758
 k-point ** :   0.1667 0.1667 0.3333  plane waves:     764
 k-point ** :   0.2500 0.1667 0.3333  plane waves:     762
 k-point ** :   0.3333 0.1667 0.3333  plane waves:     757
 k-point ** :   0.4167 0.1667 0.3333  plane waves:     758
 k-point ** :   0.5000 0.1667 0.3333  plane waves:     758
 k-point ** :   0.2500 0.2500 0.3333  plane waves:     765
 k-point ** :   0.3333 0.2500 0.3333  plane waves:     758
 k-point ** :   0.4167 0.2500 0.3333  plane waves:     753
 k-point ** :   0.5000 0.2500 0.3333  plane waves:     756
 k-point ** :   0.3333 0.3333 0.3333  plane waves:     755
 k-point ** :   0.4167 0.3333 0.3333  plane waves:     743
 k-point ** :   0.5000 0.3333 0.3333  plane waves:     748
 k-point ** :   0.4167 0.4167 0.3333  plane waves:     739
 k-point ** :   0.5000 0.4167 0.3333  plane waves:     742
 k-point ** :   0.5000 0.5000 0.3333  plane waves:     740
 k-point ** :   0.0000 0.0000 0.4167  plane waves:     764
 k-point ** :   0.0833 0.0000 0.4167  plane waves:     758
 k-point ** :   0.1667 0.0000 0.4167  plane waves:     759
 k-point ** :   0.2500 0.0000 0.4167  plane waves:     767
 k-point ** :   0.3333 0.0000 0.4167  plane waves:     762
 k-point ** :   0.4167 0.0000 0.4167  plane waves:     760
 k-point ** :   0.5000 0.0000 0.4167  plane waves:     760
 k-point ** :   0.0833 0.0833 0.4167  plane waves:     765
 k-point ** :   0.1667 0.0833 0.4167  plane waves:     769
 k-point ** :   0.2500 0.0833 0.4167  plane waves:     763
 k-point ** :   0.3333 0.0833 0.4167  plane waves:     759
 k-point ** :   0.4167 0.0833 0.4167  plane waves:     760
 k-point ** :   0.5000 0.0833 0.4167  plane waves:     760
 k-point ** :   0.1667 0.1667 0.4167  plane waves:     767
 k-point ** :   0.2500 0.1667 0.4167  plane waves:     763
 k-point ** :   0.3333 0.1667 0.4167  plane waves:     762
 k-point ** :   0.4167 0.1667 0.4167  plane waves:     753
 k-point ** :   0.5000 0.1667 0.4167  plane waves:     754
 k-point ** :   0.2500 0.2500 0.4167  plane waves:     759
 k-point ** :   0.3333 0.2500 0.4167  plane waves:     756
 k-point ** :   0.4167 0.2500 0.4167  plane waves:     755
 k-point ** :   0.5000 0.2500 0.4167  plane waves:     756
 k-point ** :   0.3333 0.3333 0.4167  plane waves:     757
 k-point ** :   0.4167 0.3333 0.4167  plane waves:     753
 k-point ** :   0.5000 0.3333 0.4167  plane waves:     740
 k-point ** :   0.4167 0.4167 0.4167  plane waves:     743
 k-point ** :   0.5000 0.4167 0.4167  plane waves:     746
 k-point ** :   0.5000 0.5000 0.4167  plane waves:     748
 k-point ** :   0.0000 0.0000 0.5000  plane waves:     748
 k-point ** :   0.0833 0.0000 0.5000  plane waves:     762
 k-point ** :   0.1667 0.0000 0.5000  plane waves:     764
 k-point ** :   0.2500 0.0000 0.5000  plane waves:     768
 k-point ** :   0.3333 0.0000 0.5000  plane waves:     760
 k-point ** :   0.4167 0.0000 0.5000  plane waves:     758
 k-point ** :   0.5000 0.0000 0.5000  plane waves:     752
 k-point ** :   0.0833 0.0833 0.5000  plane waves:     764
 k-point ** :   0.1667 0.0833 0.5000  plane waves:     762
 k-point ** :   0.2500 0.0833 0.5000  plane waves:     760
 k-point ** :   0.3333 0.0833 0.5000  plane waves:     764
 k-point ** :   0.4167 0.0833 0.5000  plane waves:     758
 k-point ** :   0.5000 0.0833 0.5000  plane waves:     760
 k-point ** :   0.1667 0.1667 0.5000  plane waves:     764
 k-point ** :   0.2500 0.1667 0.5000  plane waves:     766
 k-point ** :   0.3333 0.1667 0.5000  plane waves:     766
 k-point ** :   0.4167 0.1667 0.5000  plane waves:     754
 k-point ** :   0.5000 0.1667 0.5000  plane waves:     760
 k-point ** :   0.2500 0.2500 0.5000  plane waves:     762
 k-point ** :   0.3333 0.2500 0.5000  plane waves:     762
 k-point ** :   0.4167 0.2500 0.5000  plane waves:     756
 k-point ** :   0.5000 0.2500 0.5000  plane waves:     752
 k-point ** :   0.3333 0.3333 0.5000  plane waves:     758
 k-point ** :   0.4167 0.3333 0.5000  plane waves:     754
 k-point ** :   0.5000 0.3333 0.5000  plane waves:     748
 k-point ** :   0.4167 0.4167 0.5000  plane waves:     744
 k-point ** :   0.5000 0.4167 0.5000  plane waves:     752
 k-point ** :   0.5000 0.5000 0.5000  plane waves:     760

 maximum and minimum number of plane-waves per node :       210      176

 maximum number of plane-waves:       776
 maximum index in each direction: 
   IXMAX=    5   IYMAX=    5   IZMAX=    5
   IXMIN=   -6   IYMIN=   -6   IZMIN=   -6


 parallel 3D FFT for wavefunctions:
    minimum data exchange during FFTs selected (reduces bandwidth)
 parallel 3D FFT for charge:
    minimum data exchange during FFTs selected (reduces bandwidth)


 total amount of memory used by VASP MPI-rank0    37808. kBytes
=======================================================================

   base      :      30000. kBytes
   nonl-proj :       2686. kBytes
   fftplans  :        345. kBytes
   grid      :        481. kBytes
   one-center:          6. kBytes
   wavefun   :       4290. kBytes
 
     INWAV:  cpu time    0.0004: real time    0.0005
 Broyden mixing: mesh for mixing (old mesh)
   NGX = 11   NGY = 11   NGZ = 11
  (NGX  = 48   NGY  = 48   NGZ  = 48)
  gives a total of   1331 points

 initial charge density was supplied:
 charge density of overlapping atoms calculated
 number of electron      32.0000000 magnetization 
 keeping initial charge density in first step


--------------------------------------------------------------------------------------------------------


 Maximum index for augmentation-charges          289 (set IRDMAX)


--------------------------------------------------------------------------------------------------------


 First call to EWALD:  gamma=   0.511
 Maximum number of real-space cells 3x 3x 3
 Maximum number of reciprocal cells 3x 3x 3

    FEWALD:  cpu time    0.0054: real time    0.0054


--------------------------------------- Iteration      1(   1)  ---------------------------------------


    POTLOK:  cpu time    0.0261: real time    0.0304
    SETDIJ:  cpu time    0.0066: real time    0.0066
     EDDAV:  cpu time    9.0753: real time    9.0868
 BZINTS: Fermi energy: 19.996944; 32.000000 electrons
         Band energy: 145.324022;  BLOECHL correction: -0.225640
       DOS:  cpu time    0.5126: real time    0.5126
    --------------------------------------------
      LOOP:  cpu time    9.6206: real time    9.6363

 eigenvalue-minimisations  :  9432
 total energy-change (2. order) : 0.5921094E+02  (-0.1464363E+04)
 number of electron      32.0000000 magnetization 
 augmentation part       32.0000000 magnetization 

 Free energy of the ion-electron system (eV)
  ---------------------------------------------------
  alpha Z        PSCENC =       125.22938366
  Ewald energy   TEWEN  =     -1432.87561339
  -Hartree energ DENC   =       -62.89911355
  -exchange      EXHF   =         0.00000000
  -V(xc)+E(xc)   XCENC  =       116.61830666
  PAW double counting   =       302.65154477     -311.85538214
  entropy T*S    EENTRO =         0.00000000
  eigenvalues    EBANDS =       145.32402211
  atomic energy  EATOM  =      1177.01779097
  Solvation  Ediel_sol  =         0.00000000
  ---------------------------------------------------
  free energy    TOTEN  =        59.21093909 eV

  energy without entropy =       59.21093909  energy(sigma->0) =       59.21093909


--------------------------------------------------------------------------------------------------------




--------------------------------------- Iteration      1(   2)  ---------------------------------------


     EDDAV:  cpu time   11.1740: real time   11.1749
 BZINTS: Fermi energy: 10.568138; 32.000000 electrons
         Band energy:  14.989868;  BLOECHL correction:  0.000000
       DOS:  cpu time    0.1512: real time    0.1512
    --------------------------------------------
      LOOP:  cpu time   11.3252: real time   11.3261

 eigenvalue-minimisations  : 12832
 total energy-change (2. order) :-0.1303342E+03  (-0.1237955E+03)
 number of electron      32.0000000 magnetization 
 augmentation part       32.0000000 magnetization 

 Free energy of the ion-electron system (eV)
  ---------------------------------------------------
  alpha Z        PSCENC =       125.22938366
  Ewald energy   TEWEN  =     -1432.87561339
  -Hartree energ DENC   =       -62.89911355
  -exchange      EXHF   =         0.00000000
  -V(xc)+E(xc)   XCENC  =       116.61830666
  PAW double counting   =       302.65154477     -311.85538214
  entropy T*S    EENTRO =         0.00000000
  eigenvalues    EBANDS =        14.98986801
  atomic energy  EATOM  =      1177.01779097
  Solvation  Ediel_sol  =         0.00000000
  ---------------------------------------------------
  free energy    TOTEN  =       -71.12321501 eV

  energy without entropy =      -71.12321501  energy(sigma->0) =      -71.12321501


--------------------------------------------------------------------------------------------------------




--------------------------------------- Iteration      1(   3)  ---------------------------------------


     EDDAV:  cpu time   10.9368: real time   10.9434
 BZINTS: Fermi energy:  9.837195; 32.000000 electrons
         Band energy:  10.954296;  BLOECHL correction:  0.000000
       DOS:  cpu time    0.1227: real time    0.1227
    --------------------------------------------
      LOOP:  cpu time   11.0596: real time   11.0661

 eigenvalue-minimisations  : 12280
 total energy-change (2. order) :-0.4035572E+01  (-0.4017004E+01)
 number of electron      32.0000000 magnetization 
 augmentation part       32.0000000 magnetization 

 Free energy of the ion-electron system (eV)
  ---------------------------------------------------
  alpha Z        PSCENC =       125.22938366
  Ewald energy   TEWEN  =     -1432.87561339
  -Hartree energ DENC   =       -62.89911355
  -exchange      EXHF   =         0.00000000
  -V(xc)+E(xc)   XCENC  =       116.61830666
  PAW double counting   =       302.65154477     -311.85538214
  entropy T*S    EENTRO =         0.00000000
  eigenvalues    EBANDS =        10.95429598
  atomic energy  EATOM  =      1177.01779097
  Solvation  Ediel_sol  =         0.00000000
  ---------------------------------------------------
  free energy    TOTEN  =       -75.15878704 eV

  energy without entropy =      -75.15878704  energy(sigma->0) =      -75.15878704


--------------------------------------------------------------------------------------------------------




--------------------------------------- Iteration      1(   4)  ---------------------------------------


     EDDAV:  cpu time   10.4380: real time   10.4388
 BZINTS: Fermi energy:  9.863467; 32.000000 electrons
         Band energy:  10.918741;  BLOECHL correction:  0.000000
       DOS:  cpu time    0.1234: real time    0.1234
    --------------------------------------------
      LOOP:  cpu time   10.5613: real time   10.5622

 eigenvalue-minimisations  : 11568
 total energy-change (2. order) :-0.3555496E-01  (-0.3552770E-01)
 number of electron      32.0000000 magnetization 
 augmentation part       32.0000000 magnetization 

 Free energy of the ion-electron system (eV)
  ---------------------------------------------------
  alpha Z        PSCENC =       125.22938366
  Ewald energy   TEWEN  =     -1432.87561339
  -Hartree energ DENC   =       -62.89911355
  -exchange      EXHF   =         0.00000000
  -V(xc)+E(xc)   XCENC  =       116.61830666
  PAW double counting   =       302.65154477     -311.85538214
  entropy T*S    EENTRO =         0.00000000
  eigenvalues    EBANDS =        10.91874103
  atomic energy  EATOM  =      1177.01779097
  Solvation  Ediel_sol  =         0.00000000
  ---------------------------------------------------
  free energy    TOTEN  =       -75.19434199 eV

  energy without entropy =      -75.19434199  energy(sigma->0) =      -75.19434199


--------------------------------------------------------------------------------------------------------




--------------------------------------- Iteration      1(   5)  ---------------------------------------


     EDDAV:  cpu time   10.9199: real time   10.9208
 BZINTS: Fermi energy:  9.857334; 32.000000 electrons
         Band energy:  10.918138;  BLOECHL correction:  0.000000
       DOS:  cpu time    0.1232: real time    0.1232
    CHARGE:  cpu time    0.2644: real time    0.2644
    MIXING:  cpu time    0.0016: real time    0.0016
    --------------------------------------------
      LOOP:  cpu time   11.3090: real time   11.3100

 eigenvalue-minimisations  : 12256
 total energy-change (2. order) :-0.6027520E-03  (-0.6024517E-03)
 number of electron      31.9999989 magnetization 
 augmentation part        0.8595775 magnetization 

 Broyden mixing:
  rms(total) = 0.10515E+01    rms(broyden)= 0.10513E+01
  rms(prec ) = 0.24597E+01
  weight for this iteration     100.00

 Free energy of the ion-electron system (eV)
  ---------------------------------------------------
  alpha Z        PSCENC =       125.22938366
  Ewald energy   TEWEN  =     -1432.87561339
  -Hartree energ DENC   =       -62.89911355
  -exchange      EXHF   =         0.00000000
  -V(xc)+E(xc)   XCENC  =       116.61830666
  PAW double counting   =       302.65154477     -311.85538214
  entropy T*S    EENTRO =         0.00000000
  eigenvalues    EBANDS =        10.91813827
  atomic energy  EATOM  =      1177.01779097
  Solvation  Ediel_sol  =         0.00000000
  ---------------------------------------------------
  free energy    TOTEN  =       -75.19494475 eV

  energy without entropy =      -75.19494475  energy(sigma->0) =      -75.19494475


--------------------------------------------------------------------------------------------------------




--------------------------------------- Iteration      1(   6)  ---------------------------------------


    POTLOK:  cpu time    0.0207: real time    0.0211
    SETDIJ:  cpu time    0.0057: real time    0.0057
     EDDAV:  cpu time    9.7575: real time    9.7580
 BZINTS: Fermi energy: 10.530872; 32.000000 electrons
         Band energy:  28.683353;  BLOECHL correction:  0.000000
       DOS:  cpu time    0.1095: real time    0.1095
    CHARGE:  cpu time    0.2549: real time    0.2549
    MIXING:  cpu time    0.0018: real time    0.0018
    --------------------------------------------
      LOOP:  cpu time   10.1501: real time   10.1510

 eigenvalue-minimisations  : 10464
 total energy-change (2. order) : 0.2425440E+01  (-0.1577234E+00)
 number of electron      31.9999989 magnetization 
 augmentation part        0.8387200 magnetization 

 Broyden mixing:
  rms(total) = 0.56877E+00    rms(broyden)= 0.56876E+00
  rms(prec ) = 0.13166E+01
  weight for this iteration     100.00

 eigenvalues of (default mixing * dielectric matrix)
  average eigenvalue GAMMA=   2.1384
  2.1384

 Free energy of the ion-electron system (eV)
  ---------------------------------------------------
  alpha Z        PSCENC =       125.22938366
  Ewald energy   TEWEN  =     -1432.87561339
  -Hartree energ DENC   =       -79.10714713
  -exchange      EXHF   =         0.00000000
  -V(xc)+E(xc)   XCENC  =       118.15077427
  PAW double counting   =       410.95077162     -420.81881705
  entropy T*S    EENTRO =         0.00000000
  eigenvalues    EBANDS =        28.68335267
  atomic energy  EATOM  =      1177.01779097
  Solvation  Ediel_sol  =         0.00000000
  ---------------------------------------------------
  free energy    TOTEN  =       -72.76950438 eV

  energy without entropy =      -72.76950438  energy(sigma->0) =      -72.76950438


--------------------------------------------------------------------------------------------------------




--------------------------------------- Iteration      1(   7)  ---------------------------------------


    POTLOK:  cpu time    0.0206: real time    0.0210
    SETDIJ:  cpu time    0.0059: real time    0.0059
     EDDAV:  cpu time   10.6735: real time   10.6741
 BZINTS: Fermi energy: 11.381295; 32.000000 electrons
         Band energy:  48.860312;  BLOECHL correction:  0.000000
       DOS:  cpu time    0.1233: real time    0.1233
    CHARGE:  cpu time    0.2708: real time    0.2708
    MIXING:  cpu time    0.0019: real time    0.0019
    --------------------------------------------
      LOOP:  cpu time   11.0961: real time   11.0970

 eigenvalue-minimisations  : 10856
 total energy-change (2. order) : 0.8164972E+00  (-0.1741624E+00)
 number of electron      31.9999989 magnetization 
 augmentation part        0.8161340 magnetization 

 Broyden mixing:
  rms(total) = 0.71647E-01    rms(broyden)= 0.71305E-01
  rms(prec ) = 0.12213E+00
  weight for this iteration     100.00

 eigenvalues of (default mixing * dielectric matrix)
  average eigenvalue GAMMA=   2.2695
  2.0019  2.5371

 Free energy of the ion-electron system (eV)
  ---------------------------------------------------
  alpha Z        PSCENC =       125.22938366
  Ewald energy   TEWEN  =     -1432.87561339
[...]

 k-point   184 :       0.3333    0.1667    0.5000
  band No.  band energies     occupation 
      1      -8.0026      2.00000
      2      -8.0026      2.00000
      3      -4.9565      2.00000
      4      -4.9565      2.00000
      5      -1.1886      2.00000
      6      -1.1886      2.00000
      7       1.6307      2.00000
      8       1.6307      2.00000
      9       4.1514      2.00000
     10       4.1514      2.00000
     11       6.2799      2.00000
     12       6.2799      2.00000
     13       6.3051      2.00000
     14       6.3051      2.00000
     15       7.7792      2.00000
     16       7.7792      2.00000
     17      18.8312      0.00000
     18      18.8312      0.00000
     19      19.4083      0.00000
     20      19.4083      0.00000
     21      20.7350      0.00000
     22      20.7350      0.00000
     23      21.0287      0.00000
     24      21.0287      0.00000

 k-point   185 :       0.4167    0.1667    0.5000
  band No.  band energies     occupation 
      1      -7.4025      2.00000
      2      -7.4025      2.00000
      3      -5.8570      2.00000
      4      -5.8570      2.00000
      5      -0.6816      2.00000
      6      -0.6816      2.00000
      7       0.7566      2.00000
      8       0.7566      2.00000
      9       4.6732      2.00000
     10       4.6732      2.00000
     11       5.7667      2.00000
     12       5.7667      2.00000
     13       7.0783      2.00000
     14       7.0783      2.00000
     15       7.7985      2.00000
     16       7.7985      2.00000
     17      18.8118      0.00000
     18      18.8118      0.00000
     19      19.5510      0.00000
     20      19.5510      0.00000
     21      20.8489      0.00000
     22      20.8489      0.00000
     23      20.8846      0.00000
     24      20.8846      0.00000

 k-point   186 :       0.5000    0.1667    0.5000
  band No.  band energies     occupation 
      1      -6.6825      2.00000
      2      -6.6825      2.00000
      3      -6.6825      2.00000
      4      -6.6825      2.00000
      5      -0.0229      2.00000
      6      -0.0229      2.00000
      7      -0.0229      2.00000
      8      -0.0229      2.00000
      9       5.2172      2.00000
     10       5.2172      2.00000
     11       5.2172      2.00000
     12       5.2172      2.00000
     13       7.5801      2.00000
     14       7.5801      2.00000
     15       7.5801      2.00000
     16       7.5801      2.00000
     17      19.1052      0.00000
     18      19.1052      0.00000
     19      19.1052      0.00000
     20      19.1052      0.00000
     21      20.9659      0.00000
     22      20.9659      0.00000
     23      20.9659      0.00000
     24      20.9659      0.00000

 k-point   187 :       0.2500    0.2500    0.5000
  band No.  band energies     occupation 
      1      -8.1376      2.00000
      2      -8.1376      2.00000
      3      -4.2182      2.00000
      4      -4.2182      2.00000
      5      -2.1475      2.00000
      6      -2.1475      2.00000
      7       1.5243      2.00000
      8       1.5243      2.00000
      9       4.6872      2.00000
     10       4.6872      2.00000
     11       5.7925      2.00000
     12       5.7925      2.00000
     13       7.0443      2.00000
     14       7.0443      2.00000
     15       7.7009      2.00000
     16       7.7009      2.00000
     17      18.8492      0.00000
     18      18.8492      0.00000
     19      19.1766      0.00000
     20      19.1766      0.00000
     21      20.1497      0.00000
     22      20.1497      0.00000
     23      21.8151      0.00000
     24      21.8416      0.00000

 k-point   188 :       0.3333    0.2500    0.5000
  band No.  band energies     occupation 
      1      -7.6698      2.00000
      2      -7.6698      2.00000
      3      -4.7968      2.00000
      4      -4.7968      2.00000
      5      -2.1913      2.00000
      6      -2.1913      2.00000
      7       0.5316      2.00000
      8       0.5316      2.00000
      9       5.4050      2.00000
     10       5.4050      2.00000
     11       6.4851      2.00000
     12       6.4851      2.00000
     13       6.9739      2.00000
     14       6.9739      2.00000
     15       7.8978      2.00000
     16       7.8978      2.00000
     17      19.0849      0.00000
     18      19.0849      0.00000
     19      19.1991      0.00000
     20      19.1991      0.00000
     21      20.0727      0.00000
     22      20.0727      0.00000
     23      21.1678      0.00000
     24      21.1678      0.00000

 k-point   189 :       0.4167    0.2500    0.5000
  band No.  band energies     occupation 
      1      -7.0783      2.00000
      2      -7.0783      2.00000
      3      -5.5891      2.00000
      4      -5.5891      2.00000
      5      -1.7900      2.00000
      6      -1.7900      2.00000
      7      -0.3718      2.00000
      8      -0.3718      2.00000
      9       5.9014      2.00000
     10       5.9014      2.00000
     11       6.7020      2.00000
     12       6.7020      2.00000
     13       7.2079      2.00000
     14       7.2079      2.00000
     15       7.9334      2.00000
     16       7.9334      2.00000
     17      19.0476      0.00000
     18      19.0476      0.00000
     19      19.3881      0.00000
     20      19.3881      0.00000
     21      20.2672      0.00000
     22      20.2672      0.00000
     23      20.7295      0.00000
     24      20.7295      0.00000

 k-point   190 :       0.5000    0.2500    0.5000
  band No.  band energies     occupation 
      1      -6.3753      2.00000
      2      -6.3753      2.00000
      3      -6.3753      2.00000
      4      -6.3753      2.00000
      5      -1.1576      2.00000
      6      -1.1576      2.00000
      7      -1.1576      2.00000
      8      -1.1576      2.00000
      9       6.3305      2.00000
     10       6.3305      2.00000
     11       6.3305      2.00000
     12       6.3305      2.00000
     13       7.7116      2.00000
     14       7.7116      2.00000
     15       7.7116      2.00000
     16       7.7116      2.00000
     17      19.2105      0.00000
     18      19.2105      0.00000
     19      19.2105      0.00000
     20      19.2105      0.00000
     21      20.5054      0.00000
     22      20.5054      0.00000
     23      20.5054      0.00000
     24      20.5054      0.00000

 k-point   191 :       0.3333    0.3333    0.5000
  band No.  band energies     occupation 
      1      -7.2109      2.00000
      2      -7.2109      2.00000
      3      -4.8296      2.00000
      4      -4.8296      2.00000
      5      -2.7805      2.00000
      6      -2.7805      2.00000
      7      -0.4904      2.00000
      8      -0.4904      2.00000
      9       6.4729      2.00000
     10       6.4729      2.00000
     11       6.7447      2.00000
     12       6.7447      2.00000
     13       7.2597      2.00000
     14       7.2597      2.00000
     15       8.1042      2.00000
     16       8.1042      2.00000
     17      19.1797      0.00000
     18      19.1797      0.00000
     19      19.3791      0.00000
     20      19.3791      0.00000
     21      19.6138      0.00000
     22      19.6138      0.00000
     23      21.0480      0.00000
     24      21.0587      0.00000

 k-point   192 :       0.4167    0.3333    0.5000
  band No.  band energies     occupation 
      1      -6.6368      2.00000
      2      -6.6368      2.00000
      3      -5.2958      2.00000
      4      -5.2958      2.00000
      5      -2.6996      2.00000
      6      -2.6996      2.00000
      7      -1.4024      2.00000
      8      -1.4024      2.00000
      9       6.8980      2.00000
     10       6.8980      2.00000
     11       7.2549      2.00000
     12       7.2549      2.00000
     13       7.4238      2.00000
     14       7.4238      2.00000
     15       8.1905      2.00000
     16       8.1905      2.00000
     17      19.2265      0.00000
     18      19.2265      0.00000
     19      19.2806      0.00000
     20      19.2806      0.00000
     21      19.8267      0.00000
     22      19.8267      0.00000
     23      20.6033      0.00000
     24      20.6033      0.00000

 k-point   193 :       0.5000    0.3333    0.5000
  band No.  band energies     occupation 
      1      -5.9734      2.00000
      2      -5.9734      2.00000
      3      -5.9734      2.00000
      4      -5.9734      2.00000
      5      -2.1652      2.00000
      6      -2.1652      2.00000
      7      -2.1652      2.00000
      8      -2.1652      2.00000
      9       7.1146      2.00000
     10       7.1146      2.00000
     11       7.1146      2.00000
     12       7.1146      2.00000
     13       7.9750      2.00000
     14       7.9750      2.00000
     15       7.9750      2.00000
     16       7.9750      2.00000
     17      19.2266      0.00000
     18      19.2266      0.00000
     19      19.2266      0.00000
     20      19.2266      0.00000
     21      20.2103      0.00000
     22      20.2103      0.00000
     23      20.2103      0.00000
     24      20.2103      0.00000

 k-point   194 :       0.4167    0.4167    0.5000
  band No.  band energies     occupation 
      1      -6.1021      2.00000
      2      -6.1021      2.00000
      3      -5.1994      2.00000
      4      -5.1994      2.00000
      5      -3.1745      2.00000
      6      -3.1745      2.00000
      7      -2.2920      2.00000
      8      -2.2920      2.00000
      9       7.3132      2.00000
     10       7.3132      2.00000
     11       7.4321      2.00000
     12       7.4321      2.00000
     13       7.9475      2.00000
     14       7.9475      2.00000
     15       8.4307      2.00000
     16       8.4307      2.00000
     17      19.1305      0.00000
     18      19.1305      0.00000
     19      19.2315      0.00000
     20      19.2315      0.00000
     21      19.8809      0.00000
     22      19.8809      0.00000
     23      20.4004      0.00000
     24      20.4004      0.00000

 k-point   195 :       0.5000    0.4167    0.5000
  band No.  band energies     occupation 
      1      -5.5471      2.00000
      2      -5.5471      2.00000
      3      -5.5471      2.00000
      4      -5.5471      2.00000
      5      -2.9600      2.00000
      6      -2.9600      2.00000
      7      -2.9600      2.00000
      8      -2.9600      2.00000
      9       7.4272      2.00000
     10       7.4272      2.00000
     11       7.4272      2.00000
     12       7.4272      2.00000
     13       8.3718      2.00000
     14       8.3718      2.00000
     15       8.3718      2.00000
     16       8.3718      2.00000
     17      19.1208      0.00000
     18      19.1208      0.00000
     19      19.1208      0.00000
     20      19.1208      0.00000
     21      20.1451      0.00000
     22      20.1451      0.00000
     23      20.1451      0.00000
     24      20.1451      0.00000

 k-point   196 :       0.5000    0.5000    0.5000
  band No.  band energies     occupation 
      1      -5.3231      2.00000
      2      -5.3231      2.00000
      3      -5.3231      2.00000
      4      -5.3231      2.00000
      5      -3.3079      2.00000
      6      -3.3079      2.00000
      7      -3.3079      2.00000
      8      -3.3079      2.00000
      9       7.4957      2.00000
     10       7.4957      2.00000
     11       7.4957      2.00000
     12       7.4957      2.00000
     13       8.5563      2.00000
     14       8.5563      2.00000
     15       8.5563      2.00000
     16       8.5563      2.00000
     17      19.0575      0.00000
     18      19.0575      0.00000
     19      19.0575      0.00000
     20      19.0575      0.00000
     21      20.1517      0.00000
     22      20.1517      0.00000
     23      20.1517      0.00000
     24      20.1517      0.00000


--------------------------------------------------------------------------------------------------------


 soft charge-density along one line, spin component           1
         0         1         2         3         4         5         6         7         8         9
 total charge-density along one line
 
 pseudopotential strength for first ion, spin component:           1
  9.370  -0.007   0.000   0.000   0.000  -0.000  -0.000   0.000
 -0.007  -0.002  -0.000  -0.000  -0.000  -0.000  -0.000   0.000
  0.000  -0.000  -3.587  -0.000  -0.000  -0.012  -0.000  -0.000
  0.000  -0.000  -0.000  -3.588   0.000  -0.000  -0.012   0.000
  0.000  -0.000  -0.000   0.000  -3.587  -0.000   0.000  -0.012
 -0.000  -0.000  -0.012  -0.000  -0.000  -0.756  -0.000  -0.000
 -0.000  -0.000  -0.000  -0.012   0.000  -0.000  -0.756   0.000
  0.000   0.000  -0.000   0.000  -0.012  -0.000   0.000  -0.756
 total augmentation occupancy for first ion, spin component:           1
  1.437  -1.154   0.000   0.000   0.000   0.000  -0.000  -0.000
 -1.154   1.232  -0.000   0.000   0.000   0.000   0.000   0.000
  0.000  -0.000   1.158  -0.000  -0.000   0.198  -0.000   0.000
  0.000   0.000   0.000   1.137   0.000   0.000   0.206   0.000
 -0.000   0.000  -0.000   0.000   1.158   0.000   0.000   0.198
  0.000   0.000   0.198   0.000   0.000   0.041   0.000  -0.000
 -0.000   0.000   0.000   0.206  -0.000  -0.000   0.043   0.000
  0.000  -0.000  -0.000   0.000   0.198   0.000   0.000   0.041


------------------------ aborting loop because EDIFF is reached ----------------------------------------


    CHARGE:  cpu time    0.2640: real time    0.2640
    FORLOC:  cpu time    0.0021: real time    0.0021
    FORNL :  cpu time    0.4246: real time    0.4246
    STRESS:  cpu time    1.0117: real time    1.0119
    FORHAR:  cpu time    0.0053: real time    0.0053
    MIXING:  cpu time    0.0021: real time    0.0021
    OFIELD:  cpu time    0.0001: real time    0.0001

  FORCE on cell =-STRESS in cart. coord.  units (eV):
  Direction    XX          YY          ZZ          XY          YZ          ZX
  --------------------------------------------------------------------------------------
  Alpha Z   125.22938   125.22938   125.22938
  Ewald    -489.09197  -489.09197  -454.69354     0.00000    -0.00000     0.00000
  Hartree    31.21138    31.21138    37.90702    -0.00000    -0.00000    -0.00000
  E(xc)    -122.17378  -122.17378  -121.94334    -0.00000    -0.00000     0.00000
  Local     -27.80263   -27.80263   -65.52343    -0.00000     0.00000     0.00000
  n-local   -32.23796   -32.95354   -30.81273     0.59539     0.58254     0.50295
  augment    -3.19137    -3.19137    -3.22269    -0.00000     0.00000    -0.00000
  Kinetic   525.05503   543.86041   514.41070    -5.15671    -5.40638    -4.01460
  Fock        0.00000     0.00000     0.00000     0.00000     0.00000     0.00000
  -------------------------------------------------------------------------------------
  Total      16.04299    16.04299     1.35137     0.00000     0.00000     0.00000
  in kB     617.26305   617.26305    51.99458     0.00000     0.00000     0.00000
  external pressure =      428.84 kB  Pullay stress =        0.00 kB


 VOLUME and BASIS-vectors are now :
 -----------------------------------------------------------------------------
  energy-cutoff  :      400.00
  volume of cell :       41.64
      direct lattice vectors                 reciprocal lattice vectors
     3.405772443  0.000000000  0.000000000     0.293619147  0.000000000  0.000000000
     0.000000000  3.405772443  0.000000000     0.000000000  0.293619147  0.000000000
     0.000000000  0.000000000  3.589999359     0.000000000  0.000000000  0.278551582

  length of vectors
     3.405772443  3.405772443  3.589999359     0.293619147  0.293619147  0.278551582


 FORCES acting on ions
    electron-ion (+dipol)            ewald-force                    non-local-force                 convergence-correction
 -----------------------------------------------------------------------------------------------
   -.835E-14 -.156E-12 -.187E-14   -.711E-14 0.711E-14 0.000E+00   -.316E-16 -.165E-16 -.424E-17   -.257E-15 -.919E-15 0.259E-14
   0.167E-13 -.988E-15 0.118E-13   0.108E-14 0.131E-13 0.712E-14   -.243E-16 0.390E-18 -.142E-16   -.470E-14 0.403E-14 0.347E-14
   -.835E-14 -.174E-12 0.168E-13   -.711E-14 0.000E+00 -.711E-14   -.169E-16 0.101E-16 0.657E-17   -.887E-16 0.170E-14 0.294E-14
   0.250E-13 0.167E-13 -.793E-14   -.569E-15 0.702E-14 -.115E-14   -.270E-16 -.739E-17 0.138E-16   -.405E-14 0.389E-14 0.466E-14
   0.000E+00 0.198E-12 0.366E-12   0.000E+00 -.711E-14 0.000E+00   0.331E-16 -.286E-17 0.123E-16   0.206E-14 0.441E-15 0.251E-14
   0.501E-13 -.602E-15 -.402E-12   0.628E-16 -.126E-14 0.595E-14   0.254E-16 0.823E-17 0.105E-16   0.965E-15 0.439E-14 0.392E-14
   0.167E-13 -.191E-12 -.123E-13   0.000E+00 -.142E-13 -.711E-14   0.300E-16 0.110E-16 -.116E-16   0.183E-14 0.225E-14 0.244E-14
   0.417E-13 0.380E-12 0.104E-13   0.467E-16 -.724E-14 -.100E-15   0.260E-16 -.124E-16 -.110E-16   0.723E-15 0.387E-14 0.256E-14
 -----------------------------------------------------------------------------------------------
   0.134E-12 0.718E-13 -.189E-13   -.136E-13 -.262E-14 -.240E-14   0.147E-16 -.935E-17 0.219E-17   -.351E-14 0.197E-13 0.251E-13
 
 
 POSITION                                       TOTAL-FORCE (eV/Angst)
 -----------------------------------------------------------------------------------
      0.85144      2.55433      0.89750        -0.000000      0.000000      0.000000
      0.00000      0.00000      1.79500        -0.000000     -0.000000     -0.000000
      0.85144      0.85144      2.69250         0.000000      0.000000     -0.000000
      0.00000      1.70289      0.00000        -0.000000     -0.000000      0.000000
      2.55433      2.55433      2.69250         0.000000      0.000000     -0.000000
      1.70289      0.00000      0.00000         0.000000     -0.000000      0.000000
      2.55433      0.85144      0.89750         0.000000      0.000000     -0.000000
      1.70289      1.70289      1.79500        -0.000000     -0.000000      0.000000
 -----------------------------------------------------------------------------------
    total drift:                                0.000000      0.000000      0.000000


--------------------------------------------------------------------------------------------------------



  FREE ENERGIE OF THE ION-ELECTRON SYSTEM (eV)
  ---------------------------------------------------
  free  energy   TOTEN  =       -71.96163291 eV

  energy  without entropy=      -71.96163291  energy(sigma->0) =      -71.96163291
 


--------------------------------------------------------------------------------------------------------


    POTLOK:  cpu time    0.0273: real time    0.0273


--------------------------------------------------------------------------------------------------------


     LOOP+:  cpu time  118.3861: real time  118.4843
    4ORBIT:  cpu time    0.0000: real time    0.0000
 BZINTS: Fermi energy: 11.465378; 32.000000 electrons
         Band energy:  49.177178;  BLOECHL correction:  0.000000

 total amount of memory used by VASP MPI-rank0    37808. kBytes
=======================================================================

   base      :      30000. kBytes
   nonl-proj :       2686. kBytes
   fftplans  :        345. kBytes
   grid      :        481. kBytes
   one-center:          6. kBytes
   wavefun   :       4290. kBytes
 
  
  
 General timing and accounting informations for this job:
 ========================================================
  
                  Total CPU time used (sec):      122.200
                            User time (sec):      118.579
                          System time (sec):        3.621
                         Elapsed time (sec):      122.597
  
                   Maximum memory used (kb):      193692.
                   Average memory used (kb):           0.
  
                          Minor page faults:        36892
                          Major page faults:           36
                 Voluntary context switches:          784
