   8   8   0   0
  0.5534863E+01  0.3537792E-09  0.3537792E-09  0.3537792E-09  0.2000000E-16
  1.000000000000000E-004
  CAR 
 unknown system                          
     23.72243269    -13.38186328  301     10.24893522      1.00000000
    -13.382  0.0000E+00  0.0000E+00
    -13.258  0.0000E+00  0.0000E+00
    -13.135  0.0000E+00  0.0000E+00
    -13.011  0.0000E+00  0.0000E+00
    -12.887  0.0000E+00  0.0000E+00
    -12.763  0.0000E+00  0.0000E+00
    -12.640  0.0000E+00  0.0000E+00
    -12.516  0.0000E+00  0.0000E+00
    -12.392  0.0000E+00  0.0000E+00
    -12.269  0.0000E+00  0.0000E+00
    -12.145  0.0000E+00  0.0000E+00
    -12.021  0.0000E+00  0.0000E+00
    -11.898  0.0000E+00  0.0000E+00
    -11.774  0.0000E+00  0.0000E+00
    -11.650  0.3378E-01  0.5064E-03
    -11.527  0.1504E+00  0.1480E-01
    -11.403  0.2357E+00  0.3864E-01
    -11.279  0.2664E+00  0.6939E-01
    -11.156  0.3125E+00  0.1052E+00
    -11.032  0.3524E+00  0.1468E+00
    -10.908  0.3805E+00  0.1920E+00
    -10.785  0.4104E+00  0.2408E+00
    -10.661  0.4477E+00  0.2939E+00
    -10.537  0.4707E+00  0.3509E+00
    -10.414  0.4934E+00  0.4105E+00
    -10.290  0.5183E+00  0.4730E+00
    -10.166  0.5458E+00  0.5388E+00
    -10.042  0.5727E+00  0.6080E+00
     -9.919  0.5911E+00  0.6799E+00
     -9.795  0.6105E+00  0.7543E+00
     -9.671  0.6316E+00  0.8311E+00
     -9.548  0.6535E+00  0.9105E+00
     -9.424  0.6769E+00  0.9928E+00
     -9.300  0.6983E+00  0.1078E+01
     -9.177  0.7154E+00  0.1165E+01
     -9.053  0.7322E+00  0.1255E+01
     -8.929  0.7515E+00  0.1347E+01
     -8.806  0.7712E+00  0.1441E+01
     -8.682  0.7919E+00  0.1537E+01
     -8.558  0.8133E+00  0.1637E+01
     -8.435  0.8303E+00  0.1738E+01
     -8.311  0.8472E+00  0.1842E+01
     -8.187  0.8648E+00  0.1948E+01
     -8.064  0.8833E+00  0.2056E+01
     -7.940  0.9020E+00  0.2166E+01
     -7.816  0.9214E+00  0.2279E+01
     -7.693  0.9833E+00  0.2398E+01
     -7.569  0.1008E+01  0.2521E+01
     -7.445  0.1055E+01  0.2650E+01
     -7.321  0.1058E+01  0.2781E+01
     -7.198  0.1034E+01  0.2910E+01
     -7.074  0.1003E+01  0.3036E+01
     -6.950  0.1031E+01  0.3162E+01
     -6.827  0.1044E+01  0.3291E+01
     -6.703  0.1049E+01  0.3420E+01
     -6.579  0.1068E+01  0.3550E+01
     -6.456  0.1122E+01  0.3686E+01
     -6.332  0.1163E+01  0.3828E+01
     -6.208  0.1257E+01  0.3979E+01
     -6.085  0.1301E+01  0.4138E+01
     -5.961  0.1333E+01  0.4300E+01
     -5.837  0.1494E+01  0.4474E+01
     -5.714  0.1627E+01  0.4667E+01
     -5.590  0.1502E+01  0.4859E+01
     -5.466  0.1513E+01  0.5043E+01
     -5.343  0.1362E+01  0.5219E+01
     -5.219  0.1380E+01  0.5391E+01
     -5.095  0.1350E+01  0.5558E+01
     -4.972  0.1418E+01  0.5729E+01
     -4.848  0.1272E+01  0.5895E+01
     -4.724  0.1187E+01  0.6047E+01
     -4.601  0.1177E+01  0.6193E+01
     -4.477  0.1143E+01  0.6337E+01
     -4.353  0.1178E+01  0.6479E+01
     -4.229  0.1079E+01  0.6620E+01
     -4.106  0.1092E+01  0.6752E+01
     -3.982  0.1079E+01  0.6883E+01
     -3.858  0.9898E+00  0.7011E+01
     -3.735  0.9462E+00  0.7131E+01
     -3.611  0.9404E+00  0.7246E+01
     -3.487  0.9393E+00  0.7363E+01
     -3.364  0.1025E+01  0.7484E+01
     -3.240  0.1003E+01  0.7612E+01
     -3.116  0.1062E+01  0.7738E+01
     -2.993  0.1004E+01  0.7867E+01
     -2.869  0.9848E+00  0.7990E+01
     -2.745  0.1125E+01  0.8122E+01
     -2.622  0.1005E+01  0.8255E+01
     -2.498  0.9761E+00  0.8379E+01
     -2.374  0.9698E+00  0.8498E+01
     -2.251  0.1029E+01  0.8621E+01
     -2.127  0.1191E+01  0.8758E+01
     -2.003  0.1323E+01  0.8912E+01
     -1.880  0.1526E+01  0.9088E+01
     -1.756  0.1759E+01  0.9291E+01
     -1.632  0.2235E+01  0.9534E+01
     -1.508  0.2756E+01  0.9846E+01
     -1.385  0.2808E+01  0.1019E+02
     -1.261  0.2147E+01  0.1051E+02
     -1.137  0.1792E+01  0.1076E+02
     -1.014  0.1638E+01  0.1098E+02
     -0.890  0.1528E+01  0.1117E+02
     -0.766  0.1444E+01  0.1136E+02
     -0.643  0.1376E+01  0.1153E+02
     -0.519  0.1339E+01  0.1170E+02
     -0.395  0.1308E+01  0.1186E+02
     -0.272  0.1274E+01  0.1202E+02
     -0.148  0.1263E+01  0.1218E+02
     -0.024  0.1362E+01  0.1233E+02
      0.099  0.1115E+01  0.1248E+02
      0.223  0.1100E+01  0.1262E+02
      0.347  0.1097E+01  0.1275E+02
      0.470  0.1078E+01  0.1289E+02
      0.594  0.9538E+00  0.1302E+02
      0.718  0.1205E+01  0.1315E+02
      0.841  0.1514E+01  0.1332E+02
      0.965  0.1769E+01  0.1352E+02
      1.089  0.2054E+01  0.1376E+02
      1.212  0.2249E+01  0.1403E+02
      1.336  0.2141E+01  0.1430E+02
      1.460  0.2051E+01  0.1456E+02
      1.584  0.2164E+01  0.1482E+02
      1.707  0.2207E+01  0.1510E+02
      1.831  0.1999E+01  0.1536E+02
      1.955  0.1585E+01  0.1558E+02
      2.078  0.1393E+01  0.1576E+02
      2.202  0.1659E+01  0.1595E+02
      2.326  0.1984E+01  0.1617E+02
      2.449  0.2155E+01  0.1643E+02
      2.573  0.2317E+01  0.1671E+02
      2.697  0.2290E+01  0.1699E+02
      2.820  0.2303E+01  0.1727E+02
      2.944  0.2314E+01  0.1756E+02
      3.068  0.2430E+01  0.1785E+02
      3.191  0.2768E+01  0.1818E+02
      3.315  0.3286E+01  0.1855E+02
      3.439  0.2727E+01  0.1890E+02
      3.562  0.2515E+01  0.1922E+02
      3.686  0.2469E+01  0.1951E+02
      3.810  0.2931E+01  0.1985E+02
      3.933  0.2693E+01  0.2019E+02
      4.057  0.3134E+01  0.2054E+02
      4.181  0.3700E+01  0.2096E+02
      4.305  0.3715E+01  0.2144E+02
      4.428  0.3187E+01  0.2186E+02
      4.552  0.2665E+01  0.2223E+02
      4.676  0.2538E+01  0.2255E+02
      4.799  0.2702E+01  0.2287E+02
      4.923  0.2850E+01  0.2322E+02
      5.047  0.2680E+01  0.2356E+02
      5.170  0.2904E+01  0.2390E+02
      5.294  0.2897E+01  0.2426E+02
      5.418  0.2894E+01  0.2462E+02
      5.541  0.2937E+01  0.2498E+02
      5.665  0.3039E+01  0.2534E+02
      5.789  0.2848E+01  0.2571E+02
      5.912  0.2480E+01  0.2604E+02
      6.036  0.2310E+01  0.2634E+02
      6.160  0.2436E+01  0.2663E+02
      6.283  0.2353E+01  0.2691E+02
      6.407  0.2696E+01  0.2723E+02
      6.531  0.2731E+01  0.2757E+02
      6.654  0.2664E+01  0.2790E+02
      6.778  0.2617E+01  0.2823E+02
      6.902  0.2390E+01  0.2854E+02
      7.025  0.2324E+01  0.2884E+02
      7.149  0.2412E+01  0.2912E+02
      7.273  0.2805E+01  0.2949E+02
      7.397  0.1831E+01  0.2976E+02
      7.520  0.1659E+01  0.2997E+02
      7.644  0.1538E+01  0.3017E+02
      7.768  0.1388E+01  0.3035E+02
      7.891  0.1312E+01  0.3052E+02
      8.015  0.1244E+01  0.3068E+02
      8.139  0.1167E+01  0.3082E+02
      8.262  0.1071E+01  0.3096E+02
      8.386  0.9604E+00  0.3109E+02
      8.510  0.8733E+00  0.3120E+02
      8.633  0.8369E+00  0.3131E+02
      8.757  0.7956E+00  0.3141E+02
      8.881  0.7284E+00  0.3150E+02
      9.004  0.6565E+00  0.3159E+02
      9.128  0.5818E+00  0.3167E+02
      9.252  0.5259E+00  0.3173E+02
      9.375  0.4959E+00  0.3180E+02
      9.499  0.3813E+00  0.3185E+02
      9.623  0.3567E+00  0.3190E+02
      9.746  0.3704E+00  0.3194E+02
      9.870  0.1774E+00  0.3197E+02
      9.994  0.1435E+00  0.3199E+02
     10.118  0.1519E-02  0.3200E+02
     10.241  0.0000E+00  0.3200E+02
     10.365  0.0000E+00  0.3200E+02
     10.489  0.0000E+00  0.3200E+02
     10.612  0.0000E+00  0.3200E+02
     10.736  0.0000E+00  0.3200E+02
     10.860  0.0000E+00  0.3200E+02
     10.983  0.0000E+00  0.3200E+02
     11.107  0.0000E+00  0.3200E+02
     11.231  0.0000E+00  0.3200E+02
     11.354  0.0000E+00  0.3200E+02
     11.478  0.0000E+00  0.3200E+02
     11.602  0.0000E+00  0.3200E+02
     11.725  0.0000E+00  0.3200E+02
     11.849  0.0000E+00  0.3200E+02
     11.973  0.0000E+00  0.3200E+02
     12.096  0.0000E+00  0.3200E+02
     12.220  0.0000E+00  0.3200E+02
     12.344  0.0000E+00  0.3200E+02
     12.467  0.0000E+00  0.3200E+02
     12.591  0.0000E+00  0.3200E+02
     12.715  0.0000E+00  0.3200E+02
     12.839  0.0000E+00  0.3200E+02
     12.962  0.0000E+00  0.3200E+02
     13.086  0.0000E+00  0.3200E+02
     13.210  0.0000E+00  0.3200E+02
     13.333  0.0000E+00  0.3200E+02
     13.457  0.0000E+00  0.3200E+02
     13.581  0.0000E+00  0.3200E+02
     13.704  0.0000E+00  0.3200E+02
     13.828  0.0000E+00  0.3200E+02
     13.952  0.0000E+00  0.3200E+02
     14.075  0.0000E+00  0.3200E+02
     14.199  0.0000E+00  0.3200E+02
     14.323  0.3677E-02  0.3200E+02
     14.446  0.1147E+00  0.3201E+02
     14.570  0.3013E+00  0.3203E+02
     14.694  0.5228E+00  0.3208E+02
     14.817  0.6005E+00  0.3215E+02
     14.941  0.5998E+00  0.3223E+02
     15.065  0.7948E+00  0.3231E+02
     15.188  0.8787E+00  0.3242E+02
     15.312  0.1014E+01  0.3253E+02
     15.436  0.1450E+01  0.3271E+02
     15.559  0.1419E+01  0.3288E+02
     15.683  0.1419E+01  0.3306E+02
     15.807  0.1511E+01  0.3324E+02
     15.931  0.1491E+01  0.3343E+02
     16.054  0.1637E+01  0.3362E+02
     16.178  0.1775E+01  0.3383E+02
     16.302  0.1943E+01  0.3405E+02
     16.425  0.2141E+01  0.3430E+02
     16.549  0.2323E+01  0.3458E+02
     16.673  0.2053E+01  0.3485E+02
     16.796  0.2027E+01  0.3510E+02
     16.920  0.2060E+01  0.3535E+02
     17.044  0.2148E+01  0.3561E+02
     17.167  0.2278E+01  0.3589E+02
     17.291  0.2441E+01  0.3618E+02
     17.415  0.2584E+01  0.3649E+02
     17.538  0.2726E+01  0.3682E+02
     17.662  0.2745E+01  0.3716E+02
     17.786  0.2860E+01  0.3751E+02
     17.909  0.3061E+01  0.3787E+02
     18.033  0.3374E+01  0.3827E+02
     18.157  0.3715E+01  0.3870E+02
     18.280  0.4220E+01  0.3919E+02
     18.404  0.4388E+01  0.3973E+02
     18.528  0.4395E+01  0.4028E+02
     18.652  0.3281E+01  0.4075E+02
     18.775  0.2825E+01  0.4112E+02
     18.899  0.3153E+01  0.4147E+02
     19.023  0.3585E+01  0.4190E+02
     19.146  0.3479E+01  0.4236E+02
     19.270  0.3667E+01  0.4280E+02
     19.394  0.3693E+01  0.4324E+02
     19.517  0.3632E+01  0.4371E+02
     19.641  0.3199E+01  0.4413E+02
     19.765  0.2759E+01  0.4449E+02
     19.888  0.2576E+01  0.4482E+02
     20.012  0.2513E+01  0.4513E+02
     20.136  0.2657E+01  0.4546E+02
     20.259  0.2821E+01  0.4579E+02
     20.383  0.2673E+01  0.4613E+02
     20.507  0.2758E+01  0.4647E+02
     20.630  0.2631E+01  0.4681E+02
     20.754  0.2507E+01  0.4713E+02
     20.878  0.1931E+01  0.4740E+02
     21.001  0.1464E+01  0.4761E+02
     21.125  0.1030E+01  0.4777E+02
     21.249  0.5164E+00  0.4786E+02
     21.372  0.3824E+00  0.4791E+02
     21.496  0.2082E+00  0.4795E+02
     21.620  0.1549E+00  0.4797E+02
     21.744  0.1046E+00  0.4799E+02
     21.867  0.5745E-01  0.4800E+02
     21.991  0.1353E-01  0.4800E+02
     22.115  0.0000E+00  0.4800E+02
     22.238  0.0000E+00  0.4800E+02
     22.362  0.0000E+00  0.4800E+02
     22.486  0.0000E+00  0.4800E+02
     22.609  0.0000E+00  0.4800E+02
     22.733  0.0000E+00  0.4800E+02
     22.857  0.0000E+00  0.4800E+02
     22.980  0.0000E+00  0.4800E+02
     23.104  0.0000E+00  0.4800E+02
     23.228  0.0000E+00  0.4800E+02
     23.351  0.0000E+00  0.4800E+02
     23.475  0.0000E+00  0.4800E+02
     23.599  0.0000E+00  0.4800E+02
     23.722  0.0000E+00  0.4800E+02
