       N       E                     dE             d eps       ncg     rms          rms(c)
DAV:   1     0.577101201478E+02    0.57710E+02   -0.14448E+04  4040   0.106E+03
DAV:   2    -0.712914471227E+02   -0.12900E+03   -0.12218E+03  5560   0.224E+02
DAV:   3    -0.753841570770E+02   -0.40927E+01   -0.40746E+01  5192   0.369E+01
DAV:   4    -0.754220622666E+02   -0.37905E-01   -0.37878E-01  5160   0.395E+00
DAV:   5    -0.754227664082E+02   -0.70414E-03   -0.70392E-03  5176   0.487E-01    0.979E+00
DAV:   6    -0.733772520559E+02    0.20455E+01   -0.13464E+00  4544   0.666E+00    0.534E+00
DAV:   7    -0.726869193991E+02    0.69033E+00   -0.15098E+00  4704   0.725E+00    0.703E-01
DAV:   8    -0.726946458482E+02   -0.77264E-02   -0.29085E-02  5184   0.997E-01    0.816E-02
DAV:   9    -0.726948525312E+02   -0.20668E-03   -0.42332E-04  4872   0.139E-01    0.286E-02
DAV:  10    -0.726949053946E+02   -0.52863E-04   -0.44258E-05  5080   0.510E-02    0.269E-03
DAV:  11    -0.726949060204E+02   -0.62578E-06   -0.10277E-06  3752   0.714E-03
   1 F= -.72694906E+02 E0= -.72694906E+02  d E =0.000000E+00
