<?xml version="1.0" encoding="ISO-8859-1"?>
<modeling>
 <generator>
  <i name="program" type="string">vasp </i>
  <i name="version" type="string">5.4.4.18Apr17-6-g9f103f2a35  </i>
  <i name="subversion" type="string">(build Mar 12 2022 03:36:41) complex            parallel </i>
  <i name="platform" type="string">IFC19.0.3.199_CrayMPICH7.7.19 </i>
  <i name="date" type="string">2022 11 30 </i>
  <i name="time" type="string">12:25:57 </i>
 </generator>
 <incar>
  <i type="int" name="ISTART">     0</i>
  <i type="string" name="PREC">accurate</i>
  <i name="EDIFF">      0.00000100</i>
  <i name="POTIM">      0.02000000</i>
  <i type="int" name="ISMEAR">    -5</i>
  <i name="SIGMA">      0.06000000</i>
  <i type="logical" name="LWAVE"> F  </i>
  <i type="logical" name="LCHARG"> F  </i>
  <v type="int" name="KPOINT_BSE">    -1     0     0     0</v>
 </incar>
 <structure name="primitive_cell" >
  <crystal>
   <varray name="basis" >
    <v>       1.76889600       1.76889600      -0.00000000 </v>
    <v>       1.76889600       0.00000000      -1.76889600 </v>
    <v>       0.00000000       1.76889600      -1.76889600 </v>
   </varray>
   <i name="volume">     11.06972661 </i>
   <varray name="rec_basis" >
    <v>       0.28266218       0.28266218       0.28266218 </v>
    <v>       0.28266218      -0.28266218      -0.28266218 </v>
    <v>      -0.28266218       0.28266218      -0.28266218 </v>
   </varray>
  </crystal>
  <varray name="positions" >
   <v>       0.25000000       0.25000000       0.25000000 </v>
   <v>      -0.50000000      -0.50000000      -0.50000000 </v>
  </varray>
 </structure>
 <varray name="primitive_index" >
  <v type="int" >        1 </v>
  <v type="int" >        2 </v>
 </varray>
 <kpoints>
  <generation param="Gamma">
   <v type="int" name="divisions">      12       12       12 </v>
   <v name="usershift">      0.00000000       0.00000000       0.00000000 </v>
   <v name="genvec1">      0.08333333       0.00000000       0.00000000 </v>
   <v name="genvec2">      0.00000000       0.08333333       0.00000000 </v>
   <v name="genvec3">      0.00000000       0.00000000       0.08333333 </v>
   <v name="shift">      0.00000000       0.00000000       0.00000000 </v>
  </generation>
  <varray name="kpointlist" >
   <v>       0.00000000       0.00000000       0.00000000 </v>
   <v>       0.08333333       0.00000000       0.00000000 </v>
   <v>       0.16666667       0.00000000       0.00000000 </v>
   <v>       0.25000000       0.00000000       0.00000000 </v>
   <v>       0.33333333       0.00000000       0.00000000 </v>
   <v>       0.41666667       0.00000000       0.00000000 </v>
   <v>       0.50000000       0.00000000       0.00000000 </v>
   <v>       0.08333333       0.08333333       0.00000000 </v>
   <v>       0.16666667       0.08333333       0.00000000 </v>
   <v>       0.25000000       0.08333333       0.00000000 </v>
   <v>       0.33333333       0.08333333       0.00000000 </v>
   <v>       0.41666667       0.08333333       0.00000000 </v>
   <v>       0.50000000       0.08333333       0.00000000 </v>
   <v>       0.16666667       0.16666667       0.00000000 </v>
   <v>       0.25000000       0.16666667       0.00000000 </v>
   <v>       0.33333333       0.16666667       0.00000000 </v>
   <v>       0.41666667       0.16666667       0.00000000 </v>
   <v>       0.50000000       0.16666667       0.00000000 </v>
   <v>       0.25000000       0.25000000       0.00000000 </v>
   <v>       0.33333333       0.25000000       0.00000000 </v>
   <v>       0.41666667       0.25000000       0.00000000 </v>
   <v>       0.50000000       0.25000000       0.00000000 </v>
   <v>       0.33333333       0.33333333       0.00000000 </v>
   <v>       0.41666667       0.33333333       0.00000000 </v>
   <v>       0.50000000       0.33333333       0.00000000 </v>
   <v>       0.41666667       0.41666667       0.00000000 </v>
   <v>       0.50000000       0.41666667       0.00000000 </v>
   <v>       0.50000000       0.50000000       0.00000000 </v>
   <v>       0.08333333       0.08333333       0.08333333 </v>
   <v>       0.16666667       0.08333333       0.08333333 </v>
   <v>       0.25000000       0.08333333       0.08333333 </v>
   <v>       0.33333333       0.08333333       0.08333333 </v>
   <v>       0.41666667       0.08333333       0.08333333 </v>
   <v>       0.50000000       0.08333333       0.08333333 </v>
   <v>       0.16666667       0.16666667       0.08333333 </v>
   <v>       0.25000000       0.16666667       0.08333333 </v>
   <v>       0.33333333       0.16666667       0.08333333 </v>
   <v>       0.41666667       0.16666667       0.08333333 </v>
   <v>       0.50000000       0.16666667       0.08333333 </v>
   <v>       0.25000000       0.25000000       0.08333333 </v>
   <v>       0.33333333       0.25000000       0.08333333 </v>
   <v>       0.41666667       0.25000000       0.08333333 </v>
   <v>       0.50000000       0.25000000       0.08333333 </v>
   <v>       0.33333333       0.33333333       0.08333333 </v>
   <v>       0.41666667       0.33333333       0.08333333 </v>
   <v>       0.50000000       0.33333333       0.08333333 </v>
   <v>       0.41666667       0.41666667       0.08333333 </v>
   <v>       0.50000000       0.41666667       0.08333333 </v>
   <v>       0.50000000       0.50000000       0.08333333 </v>
   <v>       0.16666667       0.16666667       0.16666667 </v>
   <v>       0.25000000       0.16666667       0.16666667 </v>
   <v>       0.33333333       0.16666667       0.16666667 </v>
   <v>       0.41666667       0.16666667       0.16666667 </v>
   <v>       0.50000000       0.16666667       0.16666667 </v>
   <v>       0.25000000       0.25000000       0.16666667 </v>
   <v>       0.33333333       0.25000000       0.16666667 </v>
   <v>       0.41666667       0.25000000       0.16666667 </v>
   <v>       0.50000000       0.25000000       0.16666667 </v>
   <v>       0.33333333       0.33333333       0.16666667 </v>
   <v>       0.41666667       0.33333333       0.16666667 </v>
   <v>       0.50000000       0.33333333       0.16666667 </v>
   <v>       0.41666667       0.41666667       0.16666667 </v>
   <v>       0.50000000       0.41666667       0.16666667 </v>
   <v>       0.50000000       0.50000000       0.16666667 </v>
   <v>       0.25000000       0.25000000       0.25000000 </v>
   <v>       0.33333333       0.25000000       0.25000000 </v>
   <v>       0.41666667       0.25000000       0.25000000 </v>
   <v>       0.50000000       0.25000000       0.25000000 </v>
   <v>       0.33333333       0.33333333       0.25000000 </v>
   <v>       0.41666667       0.33333333       0.25000000 </v>
   <v>       0.50000000       0.33333333       0.25000000 </v>
   <v>       0.41666667       0.41666667       0.25000000 </v>
   <v>       0.50000000       0.41666667       0.25000000 </v>
   <v>       0.50000000       0.50000000       0.25000000 </v>
   <v>       0.33333333       0.33333333       0.33333333 </v>
   <v>       0.41666667       0.33333333       0.33333333 </v>
   <v>       0.50000000       0.33333333       0.33333333 </v>
   <v>       0.41666667       0.41666667       0.33333333 </v>
   <v>       0.50000000       0.41666667       0.33333333 </v>
   <v>       0.50000000       0.50000000       0.33333333 </v>
   <v>       0.41666667       0.41666667       0.41666667 </v>
   <v>       0.50000000       0.41666667       0.41666667 </v>
   <v>       0.50000000       0.50000000       0.41666667 </v>
   <v>       0.50000000       0.50000000       0.50000000 </v>
  </varray>
  <varray name="weights" >
   <v>       0.00057870 </v>
   <v>       0.00347222 </v>
   <v>       0.00347222 </v>
   <v>       0.00347222 </v>
   <v>       0.00347222 </v>
   <v>       0.00347222 </v>
   <v>       0.00173611 </v>
   <v>       0.00694444 </v>
   <v>       0.01388889 </v>
   <v>       0.01388889 </v>
   <v>       0.01388889 </v>
   <v>       0.01388889 </v>
   <v>       0.00694444 </v>
   <v>       0.00694444 </v>
   <v>       0.01388889 </v>
   <v>       0.01388889 </v>
   <v>       0.01388889 </v>
   <v>       0.00694444 </v>
   <v>       0.00694444 </v>
   <v>       0.01388889 </v>
   <v>       0.01388889 </v>
   <v>       0.00694444 </v>
   <v>       0.00694444 </v>
   <v>       0.01388889 </v>
   <v>       0.00694444 </v>
   <v>       0.00694444 </v>
   <v>       0.00694444 </v>
   <v>       0.00173611 </v>
   <v>       0.00462963 </v>
   <v>       0.01388889 </v>
   <v>       0.01388889 </v>
   <v>       0.01388889 </v>
   <v>       0.01388889 </v>
   <v>       0.00694444 </v>
   <v>       0.01388889 </v>
   <v>       0.02777778 </v>
   <v>       0.02777778 </v>
   <v>       0.02777778 </v>
   <v>       0.01388889 </v>
   <v>       0.01388889 </v>
   <v>       0.02777778 </v>
   <v>       0.02777778 </v>
   <v>       0.01388889 </v>
   <v>       0.01388889 </v>
   <v>       0.02777778 </v>
   <v>       0.01388889 </v>
   <v>       0.01388889 </v>
   <v>       0.01388889 </v>
   <v>       0.00347222 </v>
   <v>       0.00462963 </v>
   <v>       0.01388889 </v>
   <v>       0.01388889 </v>
   <v>       0.01388889 </v>
   <v>       0.00694444 </v>
   <v>       0.01388889 </v>
   <v>       0.02777778 </v>
   <v>       0.02777778 </v>
   <v>       0.01388889 </v>
   <v>       0.01388889 </v>
   <v>       0.02777778 </v>
   <v>       0.01388889 </v>
   <v>       0.01388889 </v>
   <v>       0.01388889 </v>
   <v>       0.00347222 </v>
   <v>       0.00462963 </v>
   <v>       0.01388889 </v>
   <v>       0.01388889 </v>
   <v>       0.00694444 </v>
   <v>       0.01388889 </v>
   <v>       0.02777778 </v>
   <v>       0.01388889 </v>
   <v>       0.01388889 </v>
   <v>       0.01388889 </v>
   <v>       0.00347222 </v>
   <v>       0.00462963 </v>
   <v>       0.01388889 </v>
   <v>       0.00694444 </v>
   <v>       0.01388889 </v>
   <v>       0.01388889 </v>
   <v>       0.00347222 </v>
   <v>       0.00462963 </v>
   <v>       0.00694444 </v>
   <v>       0.00347222 </v>
   <v>       0.00057870 </v>
  </varray>
  <varray name="tetrahedronlist"  type="int" >
   <v type="int" >       12        1        2        2        8 </v>
   <v type="int" >       12        2        2        8        8 </v>
   <v type="int" >       12        2        8        8       29 </v>
   <v type="int" >       12        2        3        8        9 </v>
   <v type="int" >       12        2        8        8        9 </v>
   <v type="int" >       12        8        8        9       29 </v>
   <v type="int" >       12        3        8        9        9 </v>
   <v type="int" >       24        8        9        9       30 </v>
   <v type="int" >       24        8        9       29       30 </v>
   <v type="int" >       12        3        4        9       10 </v>
   <v type="int" >       12        3        9        9       10 </v>
   <v type="int" >       12        9        9       10       30 </v>
   <v type="int" >       12        4        9       10       10 </v>
   <v type="int" >       12        9       10       10       31 </v>
   <v type="int" >       12        9       10       30       31 </v>
   <v type="int" >       12        4        5       10       11 </v>
   <v type="int" >       12        4       10       10       11 </v>
   <v type="int" >       12       10       10       11       31 </v>
   <v type="int" >       12        5       10       11       11 </v>
   <v type="int" >       12       10       11       11       32 </v>
   <v type="int" >       12       10       11       31       32 </v>
   <v type="int" >       12        5        6       11       12 </v>
   <v type="int" >       12        5       11       11       12 </v>
   <v type="int" >       12       11       11       12       32 </v>
   <v type="int" >       12        6       11       12       12 </v>
   <v type="int" >       12       11       12       12       33 </v>
   <v type="int" >       12       11       12       32       33 </v>
   <v type="int" >       12        6        7       12       13 </v>
   <v type="int" >       12        6       12       12       13 </v>
   <v type="int" >       12       12       12       13       33 </v>
   <v type="int" >       12        7       12       13       13 </v>
   <v type="int" >       12       12       13       13       34 </v>
   <v type="int" >       12       12       13       33       34 </v>
   <v type="int" >       12        8        9       14       29 </v>
   <v type="int" >       12        9       14       29       30 </v>
   <v type="int" >       12       14       29       30       35 </v>
   <v type="int" >       12        9       10       15       30 </v>
   <v type="int" >       12        9       14       15       30 </v>
   <v type="int" >       12       14       15       30       35 </v>
   <v type="int" >       12       10       15       30       31 </v>
   <v type="int" >       12       15       30       31       36 </v>
   <v type="int" >       12       15       30       35       36 </v>
   <v type="int" >       12       10       11       16       31 </v>
   <v type="int" >       12       10       15       16       31 </v>
   <v type="int" >       12       15       16       31       36 </v>
   <v type="int" >       12       11       16       31       32 </v>
   <v type="int" >       12       16       31       32       37 </v>
   <v type="int" >       12       16       31       36       37 </v>
   <v type="int" >       12       11       12       17       32 </v>
   <v type="int" >       12       11       16       17       32 </v>
   <v type="int" >       12       16       17       32       37 </v>
   <v type="int" >       12       12       17       32       33 </v>
   <v type="int" >       12       17       32       33       38 </v>
   <v type="int" >       12       17       32       37       38 </v>
   <v type="int" >       12       12       13       18       33 </v>
   <v type="int" >       12       12       17       18       33 </v>
   <v type="int" >       12       17       18       33       38 </v>
   <v type="int" >       12       13       18       33       34 </v>
   <v type="int" >       12       18       33       34       39 </v>
   <v type="int" >       12       18       33       38       39 </v>
   <v type="int" >       12       12       13       17       34 </v>
   <v type="int" >       12       13       17       18       34 </v>
   <v type="int" >       12       17       18       34       39 </v>
   <v type="int" >       12       12       17       33       34 </v>
   <v type="int" >       12       17       33       34       38 </v>
   <v type="int" >       12       17       34       38       39 </v>
   <v type="int" >       12       11       12       16       33 </v>
   <v type="int" >       12       12       16       17       33 </v>
   <v type="int" >       12       16       17       33       38 </v>
   <v type="int" >       12       11       16       32       33 </v>
   <v type="int" >       12       16       32       33       37 </v>
   <v type="int" >       12       16       33       37       38 </v>
   <v type="int" >       12       10       11       15       32 </v>
   <v type="int" >       12       11       15       16       32 </v>
   <v type="int" >       12       15       16       32       37 </v>
   <v type="int" >       12       10       15       31       32 </v>
   <v type="int" >       12       15       31       32       36 </v>
   <v type="int" >       12       15       32       36       37 </v>
   <v type="int" >       12        9       10       14       31 </v>
   <v type="int" >       12       10       14       15       31 </v>
   <v type="int" >       12       14       15       31       36 </v>
   <v type="int" >       12        9       14       30       31 </v>
   <v type="int" >       12       14       30       31       35 </v>
   <v type="int" >       12       14       31       35       36 </v>
   <v type="int" >       12        9        9       14       30 </v>
   <v type="int" >       12        9       14       30       35 </v>
   <v type="int" >       12        9       29       30       30 </v>
   <v type="int" >       12        9       30       30       35 </v>
   <v type="int" >       12        2        3        8       29 </v>
   <v type="int" >       12        3        8        9       29 </v>
   <v type="int" >       12        3        9       29       30 </v>
   <v type="int" >       12       14       15       19       35 </v>
   <v type="int" >       12       15       19       35       36 </v>
   <v type="int" >       12       19       35       36       40 </v>
   <v type="int" >       12       15       16       20       36 </v>
   <v type="int" >       12       15       19       20       36 </v>
   <v type="int" >       12       19       20       36       40 </v>
   <v type="int" >       12       16       20       36       37 </v>
   <v type="int" >       12       20       36       37       41 </v>
   <v type="int" >       12       20       36       40       41 </v>
   <v type="int" >       12       16       17       21       37 </v>
   <v type="int" >       12       16       20       21       37 </v>
   <v type="int" >       12       20       21       37       41 </v>
   <v type="int" >       12       17       21       37       38 </v>
   <v type="int" >       12       21       37       38       42 </v>
   <v type="int" >       12       21       37       41       42 </v>
   <v type="int" >       12       17       18       22       38 </v>
   <v type="int" >       12       17       21       22       38 </v>
   <v type="int" >       12       21       22       38       42 </v>
   <v type="int" >       12       18       22       38       39 </v>
   <v type="int" >       12       22       38       39       43 </v>
   <v type="int" >       12       22       38       42       43 </v>
   <v type="int" >       12       17       18       21       39 </v>
   <v type="int" >       12       18       21       22       39 </v>
   <v type="int" >       12       21       22       39       43 </v>
   <v type="int" >       12       17       21       38       39 </v>
   <v type="int" >       12       21       38       39       42 </v>
   <v type="int" >       12       21       39       42       43 </v>
   <v type="int" >       12       16       17       20       38 </v>
   <v type="int" >       12       17       20       21       38 </v>
   <v type="int" >       12       20       21       38       42 </v>
   <v type="int" >       12       16       20       37       38 </v>
   <v type="int" >       12       20       37       38       41 </v>
   <v type="int" >       12       20       38       41       42 </v>
   <v type="int" >       12       15       16       19       37 </v>
   <v type="int" >       12       16       19       20       37 </v>
   <v type="int" >       12       19       20       37       41 </v>
   <v type="int" >       12       15       19       36       37 </v>
   <v type="int" >       12       19       36       37       40 </v>
   <v type="int" >       12       19       37       40       41 </v>
   <v type="int" >       12       14       15       15       36 </v>
   <v type="int" >       12       15       15       19       36 </v>
   <v type="int" >       12       15       19       36       40 </v>
   <v type="int" >       12       14       15       35       36 </v>
   <v type="int" >       12       15       35       36       36 </v>
   <v type="int" >       12       15       36       36       40 </v>
   <v type="int" >       12        9       10       14       35 </v>
   <v type="int" >       12       10       14       15       35 </v>
   <v type="int" >       12       10       15       35       36 </v>
   <v type="int" >       12        9       10       30       35 </v>
   <v type="int" >       12       10       30       31       35 </v>
   <v type="int" >       12       10       31       35       36 </v>
   <v type="int" >       12        3        4        9       30 </v>
   <v type="int" >       12        4        9       10       30 </v>
   <v type="int" >       12        4       10       30       31 </v>
   <v type="int" >       12       19       20       23       40 </v>
   <v type="int" >       12       20       23       40       41 </v>
   <v type="int" >       12       23       40       41       44 </v>
   <v type="int" >       12       20       21       24       41 </v>
   <v type="int" >       12       20       23       24       41 </v>
   <v type="int" >       12       23       24       41       44 </v>
   <v type="int" >       12       21       24       41       42 </v>
   <v type="int" >       12       24       41       42       45 </v>
   <v type="int" >       12       24       41       44       45 </v>
   <v type="int" >       12       21       22       25       42 </v>
   <v type="int" >       12       21       24       25       42 </v>
   <v type="int" >       12       24       25       42       45 </v>
   <v type="int" >       12       22       25       42       43 </v>
   <v type="int" >       12       25       42       43       46 </v>
   <v type="int" >       12       25       42       45       46 </v>
   <v type="int" >       12       21       22       24       43 </v>
   <v type="int" >       12       22       24       25       43 </v>
   <v type="int" >       12       24       25       43       46 </v>
   <v type="int" >       12       21       24       42       43 </v>
   <v type="int" >       12       24       42       43       45 </v>
   <v type="int" >       12       24       43       45       46 </v>
   <v type="int" >       12       20       21       23       42 </v>
   <v type="int" >       12       21       23       24       42 </v>
   <v type="int" >       12       23       24       42       45 </v>
   <v type="int" >       12       20       23       41       42 </v>
   <v type="int" >       12       23       41       42       44 </v>
   <v type="int" >       12       23       42       44       45 </v>
   <v type="int" >       12       19       20       20       41 </v>
   <v type="int" >       12       20       20       23       41 </v>
   <v type="int" >       12       20       23       41       44 </v>
   <v type="int" >       12       19       20       40       41 </v>
   <v type="int" >       12       20       40       41       41 </v>
   <v type="int" >       12       20       41       41       44 </v>
   <v type="int" >       12       15       16       19       40 </v>
   <v type="int" >       12       16       19       20       40 </v>
   <v type="int" >       12       16       20       40       41 </v>
   <v type="int" >       12       15       16       36       40 </v>
   <v type="int" >       12       16       36       37       40 </v>
   <v type="int" >       12       16       37       40       41 </v>
   <v type="int" >       12       10       11       15       36 </v>
   <v type="int" >       12       11       15       16       36 </v>
   <v type="int" >       12       11       16       36       37 </v>
   <v type="int" >       12       10       11       31       36 </v>
   <v type="int" >       12       11       31       32       36 </v>
   <v type="int" >       12       11       32       36       37 </v>
   <v type="int" >       12        4        5       10       31 </v>
   <v type="int" >       12        5       10       11       31 </v>
   <v type="int" >       12        5       11       31       32 </v>
   <v type="int" >       12       23       24       26       44 </v>
   <v type="int" >       12       24       26       44       45 </v>
   <v type="int" >       12       26       44       45       47 </v>
   <v type="int" >       12       24       25       27       45 </v>
   <v type="int" >       12       24       26       27       45 </v>
   <v type="int" >       12       26       27       45       47 </v>
   <v type="int" >       12       25       27       45       46 </v>
   <v type="int" >       12       27       45       46       48 </v>
   <v type="int" >       12       27       45       47       48 </v>
   <v type="int" >       12       24       25       26       46 </v>
   <v type="int" >       12       25       26       27       46 </v>
   <v type="int" >       12       26       27       46       48 </v>
   <v type="int" >       12       24       26       45       46 </v>
   <v type="int" >       12       26       45       46       47 </v>
   <v type="int" >       12       26       46       47       48 </v>
   <v type="int" >       12       23       24       24       45 </v>
   <v type="int" >       12       24       24       26       45 </v>
   <v type="int" >       12       24       26       45       47 </v>
   <v type="int" >       12       23       24       44       45 </v>
   <v type="int" >       12       24       44       45       45 </v>
   <v type="int" >       12       24       45       45       47 </v>
   <v type="int" >       12       20       21       23       44 </v>
   <v type="int" >       12       21       23       24       44 </v>
   <v type="int" >       12       21       24       44       45 </v>
   <v type="int" >       12       20       21       41       44 </v>
   <v type="int" >       12       21       41       42       44 </v>
   <v type="int" >       12       21       42       44       45 </v>
   <v type="int" >       12       16       17       20       41 </v>
   <v type="int" >       12       17       20       21       41 </v>
   <v type="int" >       12       17       21       41       42 </v>
   <v type="int" >       12       16       17       37       41 </v>
   <v type="int" >       12       17       37       38       41 </v>
   <v type="int" >       12       17       38       41       42 </v>
   <v type="int" >       12       11       12       16       37 </v>
   <v type="int" >       12       12       16       17       37 </v>
   <v type="int" >       12       12       17       37       38 </v>
   <v type="int" >       12       11       12       32       37 </v>
   <v type="int" >       12       12       32       33       37 </v>
   <v type="int" >       12       12       33       37       38 </v>
   <v type="int" >       12        5        6       11       32 </v>
   <v type="int" >       12        6       11       12       32 </v>
   <v type="int" >       12        6       12       32       33 </v>
   <v type="int" >       12       26       27       28       47 </v>
   <v type="int" >       12       27       28       47       48 </v>
   <v type="int" >       12       28       47       48       49 </v>
   <v type="int" >       12       26       27       27       48 </v>
   <v type="int" >       12       27       27       28       48 </v>
   <v type="int" >       12       27       28       48       49 </v>
   <v type="int" >       12       26       27       47       48 </v>
   <v type="int" >       12       27       47       48       48 </v>
   <v type="int" >       12       27       48       48       49 </v>
   <v type="int" >       12       24       25       26       47 </v>
   <v type="int" >       12       25       26       27       47 </v>
   <v type="int" >       12       25       27       47       48 </v>
   <v type="int" >       12       24       25       45       47 </v>
   <v type="int" >       12       25       45       46       47 </v>
   <v type="int" >       12       25       46       47       48 </v>
   <v type="int" >       12       21       22       24       45 </v>
   <v type="int" >       12       22       24       25       45 </v>
   <v type="int" >       12       22       25       45       46 </v>
   <v type="int" >       12       21       22       42       45 </v>
   <v type="int" >       12       22       42       43       45 </v>
   <v type="int" >       12       22       43       45       46 </v>
   <v type="int" >       12       17       18       21       42 </v>
   <v type="int" >       12       18       21       22       42 </v>
   <v type="int" >       12       18       22       42       43 </v>
   <v type="int" >       12       17       18       38       42 </v>
   <v type="int" >       12       18       38       39       42 </v>
   <v type="int" >       12       18       39       42       43 </v>
   <v type="int" >       12       12       13       17       38 </v>
   <v type="int" >       12       13       17       18       38 </v>
   <v type="int" >       12       13       18       38       39 </v>
   <v type="int" >       12       12       13       33       38 </v>
   <v type="int" >       12       13       33       34       38 </v>
   <v type="int" >       12       13       34       38       39 </v>
   <v type="int" >       12        6        7       12       33 </v>
   <v type="int" >       12        7       12       13       33 </v>
   <v type="int" >       12        7       13       33       34 </v>
   <v type="int" >       12       26       27       28       49 </v>
   <v type="int" >       12       26       27       48       49 </v>
   <v type="int" >       12       26       47       48       49 </v>
   <v type="int" >       12       24       25       27       48 </v>
   <v type="int" >       12       24       26       27       48 </v>
   <v type="int" >       12       24       26       47       48 </v>
   <v type="int" >       12       24       25       46       48 </v>
   <v type="int" >       12       24       45       46       48 </v>
   <v type="int" >       12       24       45       47       48 </v>
   <v type="int" >       12       21       22       25       46 </v>
   <v type="int" >       12       21       24       25       46 </v>
   <v type="int" >       12       21       24       45       46 </v>
   <v type="int" >       12       21       22       43       46 </v>
   <v type="int" >       12       21       42       43       46 </v>
   <v type="int" >       12       21       42       45       46 </v>
   <v type="int" >       12       17       18       22       43 </v>
   <v type="int" >       12       17       21       22       43 </v>
   <v type="int" >       12       17       21       42       43 </v>
   <v type="int" >       12       17       18       39       43 </v>
   <v type="int" >       12       17       38       39       43 </v>
   <v type="int" >       12       17       38       42       43 </v>
   <v type="int" >       12       12       13       18       39 </v>
   <v type="int" >       12       12       17       18       39 </v>
   <v type="int" >       12       12       17       38       39 </v>
   <v type="int" >       12       12       13       34       39 </v>
   <v type="int" >       12       12       33       34       39 </v>
   <v type="int" >       12       12       33       38       39 </v>
   <v type="int" >       12        6        7       13       34 </v>
   <v type="int" >       12        6       12       13       34 </v>
   <v type="int" >       12        6       12       33       34 </v>
   <v type="int" >       12       23       24       26       47 </v>
   <v type="int" >       12       23       24       45       47 </v>
   <v type="int" >       12       23       44       45       47 </v>
   <v type="int" >       12       20       21       24       45 </v>
   <v type="int" >       12       20       23       24       45 </v>
   <v type="int" >       12       20       23       44       45 </v>
   <v type="int" >       12       20       21       42       45 </v>
   <v type="int" >       12       20       41       42       45 </v>
   <v type="int" >       12       20       41       44       45 </v>
   <v type="int" >       12       16       17       21       42 </v>
   <v type="int" >       12       16       20       21       42 </v>
   <v type="int" >       12       16       20       41       42 </v>
   <v type="int" >       12       16       17       38       42 </v>
   <v type="int" >       12       16       37       38       42 </v>
   <v type="int" >       12       16       37       41       42 </v>
   <v type="int" >       12       11       12       17       38 </v>
   <v type="int" >       12       11       16       17       38 </v>
   <v type="int" >       12       11       16       37       38 </v>
   <v type="int" >       12       11       12       33       38 </v>
   <v type="int" >       12       11       32       33       38 </v>
   <v type="int" >       12       11       32       37       38 </v>
   <v type="int" >       12        5        6       12       33 </v>
   <v type="int" >       12        5       11       12       33 </v>
   <v type="int" >       12        5       11       32       33 </v>
   <v type="int" >       12       19       20       23       44 </v>
   <v type="int" >       12       19       20       41       44 </v>
   <v type="int" >       12       19       40       41       44 </v>
   <v type="int" >       12       15       16       20       41 </v>
   <v type="int" >       12       15       19       20       41 </v>
   <v type="int" >       12       15       19       40       41 </v>
   <v type="int" >       12       15       16       37       41 </v>
   <v type="int" >       12       15       36       37       41 </v>
   <v type="int" >       12       15       36       40       41 </v>
   <v type="int" >       12       10       11       16       37 </v>
   <v type="int" >       12       10       15       16       37 </v>
   <v type="int" >       12       10       15       36       37 </v>
   <v type="int" >       12       10       11       32       37 </v>
   <v type="int" >       12       10       31       32       37 </v>
   <v type="int" >       12       10       31       36       37 </v>
   <v type="int" >       12        4        5       11       32 </v>
   <v type="int" >       12        4       10       11       32 </v>
   <v type="int" >       12        4       10       31       32 </v>
   <v type="int" >       12       14       15       19       40 </v>
   <v type="int" >       12       14       15       36       40 </v>
   <v type="int" >       12       14       35       36       40 </v>
   <v type="int" >       12        9       10       15       36 </v>
   <v type="int" >       12        9       14       15       36 </v>
   <v type="int" >       12        9       14       35       36 </v>
   <v type="int" >       12        9       10       31       36 </v>
   <v type="int" >       12        9       30       31       36 </v>
   <v type="int" >       12        9       30       35       36 </v>
   <v type="int" >       12        3        4       10       31 </v>
   <v type="int" >       12        3        9       10       31 </v>
   <v type="int" >       12        3        9       30       31 </v>
   <v type="int" >       12        8        9       14       35 </v>
   <v type="int" >       12        8        9       30       35 </v>
   <v type="int" >       12        8       29       30       35 </v>
   <v type="int" >       12        2        3        9       30 </v>
   <v type="int" >       12        2        8        9       30 </v>
   <v type="int" >       12        2        8       29       30 </v>
   <v type="int" >       12        1        2        8       29 </v>
   <v type="int" >       12       29       30       30       35 </v>
   <v type="int" >       12       30       30       35       35 </v>
   <v type="int" >       12       30       35       35       50 </v>
   <v type="int" >       12       30       31       35       36 </v>
   <v type="int" >       12       30       35       35       36 </v>
   <v type="int" >       12       35       35       36       50 </v>
   <v type="int" >       12       31       35       36       36 </v>
   <v type="int" >       24       35       36       36       51 </v>
   <v type="int" >       24       35       36       50       51 </v>
   <v type="int" >       12       31       32       36       37 </v>
   <v type="int" >       12       31       36       36       37 </v>
   <v type="int" >       12       36       36       37       51 </v>
   <v type="int" >       12       32       36       37       37 </v>
   <v type="int" >       12       36       37       37       52 </v>
   <v type="int" >       12       36       37       51       52 </v>
   <v type="int" >       12       32       33       37       38 </v>
   <v type="int" >       12       32       37       37       38 </v>
   <v type="int" >       12       37       37       38       52 </v>
   <v type="int" >       12       33       37       38       38 </v>
   <v type="int" >       12       37       38       38       53 </v>
   <v type="int" >       12       37       38       52       53 </v>
   <v type="int" >       12       33       34       38       39 </v>
   <v type="int" >       12       33       38       38       39 </v>
   <v type="int" >       12       38       38       39       53 </v>
   <v type="int" >       12       34       38       39       39 </v>
   <v type="int" >       12       38       39       39       54 </v>
   <v type="int" >       12       38       39       53       54 </v>
   <v type="int" >       12       35       36       40       50 </v>
   <v type="int" >       12       36       40       50       51 </v>
   <v type="int" >       12       40       50       51       55 </v>
   <v type="int" >       12       36       37       41       51 </v>
   <v type="int" >       12       36       40       41       51 </v>
   <v type="int" >       12       40       41       51       55 </v>
   <v type="int" >       12       37       41       51       52 </v>
   <v type="int" >       12       41       51       52       56 </v>
   <v type="int" >       12       41       51       55       56 </v>
   <v type="int" >       12       37       38       42       52 </v>
   <v type="int" >       12       37       41       42       52 </v>
   <v type="int" >       12       41       42       52       56 </v>
   <v type="int" >       12       38       42       52       53 </v>
   <v type="int" >       12       42       52       53       57 </v>
   <v type="int" >       12       42       52       56       57 </v>
   <v type="int" >       12       38       39       43       53 </v>
   <v type="int" >       12       38       42       43       53 </v>
   <v type="int" >       12       42       43       53       57 </v>
   <v type="int" >       12       39       43       53       54 </v>
   <v type="int" >       12       43       53       54       58 </v>
   <v type="int" >       12       43       53       57       58 </v>
   <v type="int" >       12       38       39       42       54 </v>
   <v type="int" >       12       39       42       43       54 </v>
   <v type="int" >       12       42       43       54       58 </v>
   <v type="int" >       12       38       42       53       54 </v>
   <v type="int" >       12       42       53       54       57 </v>
   <v type="int" >       12       42       54       57       58 </v>
   <v type="int" >       12       37       38       41       53 </v>
   <v type="int" >       12       38       41       42       53 </v>
   <v type="int" >       12       41       42       53       57 </v>
   <v type="int" >       12       37       41       52       53 </v>
   <v type="int" >       12       41       52       53       56 </v>
   <v type="int" >       12       41       53       56       57 </v>
   <v type="int" >       12       36       37       40       52 </v>
   <v type="int" >       12       37       40       41       52 </v>
   <v type="int" >       12       40       41       52       56 </v>
   <v type="int" >       12       36       40       51       52 </v>
   <v type="int" >       12       40       51       52       55 </v>
   <v type="int" >       12       40       52       55       56 </v>
   <v type="int" >       12       36       36       40       51 </v>
   <v type="int" >       12       36       40       51       55 </v>
   <v type="int" >       12       36       50       51       51 </v>
   <v type="int" >       12       36       51       51       55 </v>
   <v type="int" >       12       30       31       35       50 </v>
   <v type="int" >       12       31       35       36       50 </v>
   <v type="int" >       12       31       36       50       51 </v>
   <v type="int" >       12       40       41       44       55 </v>
   <v type="int" >       12       41       44       55       56 </v>
   <v type="int" >       12       44       55       56       59 </v>
   <v type="int" >       12       41       42       45       56 </v>
   <v type="int" >       12       41       44       45       56 </v>
   <v type="int" >       12       44       45       56       59 </v>
   <v type="int" >       12       42       45       56       57 </v>
   <v type="int" >       12       45       56       57       60 </v>
   <v type="int" >       12       45       56       59       60 </v>
   <v type="int" >       12       42       43       46       57 </v>
   <v type="int" >       12       42       45       46       57 </v>
   <v type="int" >       12       45       46       57       60 </v>
   <v type="int" >       12       43       46       57       58 </v>
   <v type="int" >       12       46       57       58       61 </v>
   <v type="int" >       12       46       57       60       61 </v>
   <v type="int" >       12       42       43       45       58 </v>
   <v type="int" >       12       43       45       46       58 </v>
   <v type="int" >       12       45       46       58       61 </v>
   <v type="int" >       12       42       45       57       58 </v>
   <v type="int" >       12       45       57       58       60 </v>
   <v type="int" >       12       45       58       60       61 </v>
   <v type="int" >       12       41       42       44       57 </v>
   <v type="int" >       12       42       44       45       57 </v>
   <v type="int" >       12       44       45       57       60 </v>
   <v type="int" >       12       41       44       56       57 </v>
   <v type="int" >       12       44       56       57       59 </v>
   <v type="int" >       12       44       57       59       60 </v>
   <v type="int" >       12       40       41       41       56 </v>
   <v type="int" >       12       41       41       44       56 </v>
   <v type="int" >       12       41       44       56       59 </v>
   <v type="int" >       12       40       41       55       56 </v>
   <v type="int" >       12       41       55       56       56 </v>
   <v type="int" >       12       41       56       56       59 </v>
   <v type="int" >       12       36       37       40       55 </v>
   <v type="int" >       12       37       40       41       55 </v>
   <v type="int" >       12       37       41       55       56 </v>
   <v type="int" >       12       36       37       51       55 </v>
   <v type="int" >       12       37       51       52       55 </v>
   <v type="int" >       12       37       52       55       56 </v>
   <v type="int" >       12       31       32       36       51 </v>
   <v type="int" >       12       32       36       37       51 </v>
   <v type="int" >       12       32       37       51       52 </v>
   <v type="int" >       12       44       45       47       59 </v>
   <v type="int" >       12       45       47       59       60 </v>
   <v type="int" >       12       47       59       60       62 </v>
   <v type="int" >       12       45       46       48       60 </v>
   <v type="int" >       12       45       47       48       60 </v>
   <v type="int" >       12       47       48       60       62 </v>
   <v type="int" >       12       46       48       60       61 </v>
   <v type="int" >       12       48       60       61       63 </v>
   <v type="int" >       12       48       60       62       63 </v>
   <v type="int" >       12       45       46       47       61 </v>
   <v type="int" >       12       46       47       48       61 </v>
   <v type="int" >       12       47       48       61       63 </v>
   <v type="int" >       12       45       47       60       61 </v>
   <v type="int" >       12       47       60       61       62 </v>
   <v type="int" >       12       47       61       62       63 </v>
   <v type="int" >       12       44       45       45       60 </v>
   <v type="int" >       12       45       45       47       60 </v>
   <v type="int" >       12       45       47       60       62 </v>
   <v type="int" >       12       44       45       59       60 </v>
   <v type="int" >       12       45       59       60       60 </v>
   <v type="int" >       12       45       60       60       62 </v>
   <v type="int" >       12       41       42       44       59 </v>
   <v type="int" >       12       42       44       45       59 </v>
   <v type="int" >       12       42       45       59       60 </v>
   <v type="int" >       12       41       42       56       59 </v>
   <v type="int" >       12       42       56       57       59 </v>
   <v type="int" >       12       42       57       59       60 </v>
   <v type="int" >       12       37       38       41       56 </v>
   <v type="int" >       12       38       41       42       56 </v>
   <v type="int" >       12       38       42       56       57 </v>
   <v type="int" >       12       37       38       52       56 </v>
   <v type="int" >       12       38       52       53       56 </v>
   <v type="int" >       12       38       53       56       57 </v>
   <v type="int" >       12       32       33       37       52 </v>
   <v type="int" >       12       33       37       38       52 </v>
   <v type="int" >       12       33       38       52       53 </v>
   <v type="int" >       12       47       48       49       62 </v>
   <v type="int" >       12       48       49       62       63 </v>
   <v type="int" >       12       49       62       63       64 </v>
   <v type="int" >       12       47       48       48       63 </v>
   <v type="int" >       12       48       48       49       63 </v>
   <v type="int" >       12       48       49       63       64 </v>
   <v type="int" >       12       47       48       62       63 </v>
   <v type="int" >       12       48       62       63       63 </v>
   <v type="int" >       12       48       63       63       64 </v>
   <v type="int" >       12       45       46       47       62 </v>
   <v type="int" >       12       46       47       48       62 </v>
   <v type="int" >       12       46       48       62       63 </v>
   <v type="int" >       12       45       46       60       62 </v>
   <v type="int" >       12       46       60       61       62 </v>
   <v type="int" >       12       46       61       62       63 </v>
   <v type="int" >       12       42       43       45       60 </v>
   <v type="int" >       12       43       45       46       60 </v>
   <v type="int" >       12       43       46       60       61 </v>
   <v type="int" >       12       42       43       57       60 </v>
   <v type="int" >       12       43       57       58       60 </v>
   <v type="int" >       12       43       58       60       61 </v>
   <v type="int" >       12       38       39       42       57 </v>
   <v type="int" >       12       39       42       43       57 </v>
   <v type="int" >       12       39       43       57       58 </v>
   <v type="int" >       12       38       39       53       57 </v>
   <v type="int" >       12       39       53       54       57 </v>
   <v type="int" >       12       39       54       57       58 </v>
   <v type="int" >       12       33       34       38       53 </v>
   <v type="int" >       12       34       38       39       53 </v>
   <v type="int" >       12       34       39       53       54 </v>
   <v type="int" >       12       47       48       49       64 </v>
   <v type="int" >       12       47       48       63       64 </v>
   <v type="int" >       12       47       62       63       64 </v>
   <v type="int" >       12       45       46       48       63 </v>
   <v type="int" >       12       45       47       48       63 </v>
   <v type="int" >       12       45       47       62       63 </v>
   <v type="int" >       12       45       46       61       63 </v>
   <v type="int" >       12       45       60       61       63 </v>
   <v type="int" >       12       45       60       62       63 </v>
   <v type="int" >       12       42       43       46       61 </v>
   <v type="int" >       12       42       45       46       61 </v>
   <v type="int" >       12       42       45       60       61 </v>
   <v type="int" >       12       42       43       58       61 </v>
   <v type="int" >       12       42       57       58       61 </v>
   <v type="int" >       12       42       57       60       61 </v>
   <v type="int" >       12       38       39       43       58 </v>
   <v type="int" >       12       38       42       43       58 </v>
   <v type="int" >       12       38       42       57       58 </v>
   <v type="int" >       12       38       39       54       58 </v>
   <v type="int" >       12       38       53       54       58 </v>
   <v type="int" >       12       38       53       57       58 </v>
   <v type="int" >       12       33       34       39       54 </v>
   <v type="int" >       12       33       38       39       54 </v>
   <v type="int" >       12       33       38       53       54 </v>
   <v type="int" >       12       44       45       47       62 </v>
   <v type="int" >       12       44       45       60       62 </v>
   <v type="int" >       12       44       59       60       62 </v>
   <v type="int" >       12       41       42       45       60 </v>
   <v type="int" >       12       41       44       45       60 </v>
   <v type="int" >       12       41       44       59       60 </v>
   <v type="int" >       12       41       42       57       60 </v>
   <v type="int" >       12       41       56       57       60 </v>
   <v type="int" >       12       41       56       59       60 </v>
   <v type="int" >       12       37       38       42       57 </v>
   <v type="int" >       12       37       41       42       57 </v>
   <v type="int" >       12       37       41       56       57 </v>
   <v type="int" >       12       37       38       53       57 </v>
   <v type="int" >       12       37       52       53       57 </v>
   <v type="int" >       12       37       52       56       57 </v>
   <v type="int" >       12       32       33       38       53 </v>
   <v type="int" >       12       32       37       38       53 </v>
   <v type="int" >       12       32       37       52       53 </v>
   <v type="int" >       12       40       41       44       59 </v>
   <v type="int" >       12       40       41       56       59 </v>
   <v type="int" >       12       40       55       56       59 </v>
   <v type="int" >       12       36       37       41       56 </v>
   <v type="int" >       12       36       40       41       56 </v>
   <v type="int" >       12       36       40       55       56 </v>
   <v type="int" >       12       36       37       52       56 </v>
   <v type="int" >       12       36       51       52       56 </v>
   <v type="int" >       12       36       51       55       56 </v>
   <v type="int" >       12       31       32       37       52 </v>
   <v type="int" >       12       31       36       37       52 </v>
   <v type="int" >       12       31       36       51       52 </v>
   <v type="int" >       12       35       36       40       55 </v>
   <v type="int" >       12       35       36       51       55 </v>
   <v type="int" >       12       35       50       51       55 </v>
   <v type="int" >       12       30       31       36       51 </v>
   <v type="int" >       12       30       35       36       51 </v>
   <v type="int" >       12       30       35       50       51 </v>
   <v type="int" >       12       29       30       35       50 </v>
   <v type="int" >       12       50       51       51       55 </v>
   <v type="int" >       12       51       51       55       55 </v>
   <v type="int" >       12       51       55       55       65 </v>
   <v type="int" >       12       51       52       55       56 </v>
   <v type="int" >       12       51       55       55       56 </v>
   <v type="int" >       12       55       55       56       65 </v>
   <v type="int" >       12       52       55       56       56 </v>
   <v type="int" >       24       55       56       56       66 </v>
   <v type="int" >       24       55       56       65       66 </v>
   <v type="int" >       12       52       53       56       57 </v>
   <v type="int" >       12       52       56       56       57 </v>
   <v type="int" >       12       56       56       57       66 </v>
   <v type="int" >       12       53       56       57       57 </v>
   <v type="int" >       12       56       57       57       67 </v>
   <v type="int" >       12       56       57       66       67 </v>
   <v type="int" >       12       53       54       57       58 </v>
   <v type="int" >       12       53       57       57       58 </v>
   <v type="int" >       12       57       57       58       67 </v>
   <v type="int" >       12       54       57       58       58 </v>
   <v type="int" >       12       57       58       58       68 </v>
   <v type="int" >       12       57       58       67       68 </v>
   <v type="int" >       12       55       56       59       65 </v>
   <v type="int" >       12       56       59       65       66 </v>
   <v type="int" >       12       59       65       66       69 </v>
   <v type="int" >       12       56       57       60       66 </v>
   <v type="int" >       12       56       59       60       66 </v>
   <v type="int" >       12       59       60       66       69 </v>
   <v type="int" >       12       57       60       66       67 </v>
   <v type="int" >       12       60       66       67       70 </v>
   <v type="int" >       12       60       66       69       70 </v>
   <v type="int" >       12       57       58       61       67 </v>
   <v type="int" >       12       57       60       61       67 </v>
   <v type="int" >       12       60       61       67       70 </v>
   <v type="int" >       12       58       61       67       68 </v>
   <v type="int" >       12       61       67       68       71 </v>
   <v type="int" >       12       61       67       70       71 </v>
   <v type="int" >       12       57       58       60       68 </v>
   <v type="int" >       12       58       60       61       68 </v>
   <v type="int" >       12       60       61       68       71 </v>
   <v type="int" >       12       57       60       67       68 </v>
   <v type="int" >       12       60       67       68       70 </v>
   <v type="int" >       12       60       68       70       71 </v>
   <v type="int" >       12       56       57       59       67 </v>
   <v type="int" >       12       57       59       60       67 </v>
   <v type="int" >       12       59       60       67       70 </v>
   <v type="int" >       12       56       59       66       67 </v>
   <v type="int" >       12       59       66       67       69 </v>
   <v type="int" >       12       59       67       69       70 </v>
   <v type="int" >       12       56       56       59       66 </v>
   <v type="int" >       12       56       59       66       69 </v>
   <v type="int" >       12       56       65       66       66 </v>
   <v type="int" >       12       56       66       66       69 </v>
   <v type="int" >       12       51       52       55       65 </v>
   <v type="int" >       12       52       55       56       65 </v>
   <v type="int" >       12       52       56       65       66 </v>
   <v type="int" >       12       59       60       62       69 </v>
   <v type="int" >       12       60       62       69       70 </v>
   <v type="int" >       12       62       69       70       72 </v>
   <v type="int" >       12       60       61       63       70 </v>
   <v type="int" >       12       60       62       63       70 </v>
   <v type="int" >       12       62       63       70       72 </v>
   <v type="int" >       12       61       63       70       71 </v>
   <v type="int" >       12       63       70       71       73 </v>
   <v type="int" >       12       63       70       72       73 </v>
   <v type="int" >       12       60       61       62       71 </v>
   <v type="int" >       12       61       62       63       71 </v>
   <v type="int" >       12       62       63       71       73 </v>
   <v type="int" >       12       60       62       70       71 </v>
   <v type="int" >       12       62       70       71       72 </v>
   <v type="int" >       12       62       71       72       73 </v>
   <v type="int" >       12       59       60       60       70 </v>
   <v type="int" >       12       60       60       62       70 </v>
   <v type="int" >       12       60       62       70       72 </v>
   <v type="int" >       12       59       60       69       70 </v>
   <v type="int" >       12       60       69       70       70 </v>
   <v type="int" >       12       60       70       70       72 </v>
   <v type="int" >       12       56       57       59       69 </v>
   <v type="int" >       12       57       59       60       69 </v>
   <v type="int" >       12       57       60       69       70 </v>
   <v type="int" >       12       56       57       66       69 </v>
   <v type="int" >       12       57       66       67       69 </v>
   <v type="int" >       12       57       67       69       70 </v>
   <v type="int" >       12       52       53       56       66 </v>
   <v type="int" >       12       53       56       57       66 </v>
   <v type="int" >       12       53       57       66       67 </v>
   <v type="int" >       12       62       63       64       72 </v>
   <v type="int" >       12       63       64       72       73 </v>
   <v type="int" >       12       64       72       73       74 </v>
   <v type="int" >       12       62       63       63       73 </v>
   <v type="int" >       12       63       63       64       73 </v>
   <v type="int" >       12       63       64       73       74 </v>
   <v type="int" >       12       62       63       72       73 </v>
   <v type="int" >       12       63       72       73       73 </v>
   <v type="int" >       12       63       73       73       74 </v>
   <v type="int" >       12       60       61       62       72 </v>
   <v type="int" >       12       61       62       63       72 </v>
   <v type="int" >       12       61       63       72       73 </v>
   <v type="int" >       12       60       61       70       72 </v>
   <v type="int" >       12       61       70       71       72 </v>
   <v type="int" >       12       61       71       72       73 </v>
   <v type="int" >       12       57       58       60       70 </v>
   <v type="int" >       12       58       60       61       70 </v>
   <v type="int" >       12       58       61       70       71 </v>
   <v type="int" >       12       57       58       67       70 </v>
   <v type="int" >       12       58       67       68       70 </v>
   <v type="int" >       12       58       68       70       71 </v>
   <v type="int" >       12       53       54       57       67 </v>
   <v type="int" >       12       54       57       58       67 </v>
   <v type="int" >       12       54       58       67       68 </v>
   <v type="int" >       12       62       63       64       74 </v>
   <v type="int" >       12       62       63       73       74 </v>
   <v type="int" >       12       62       72       73       74 </v>
   <v type="int" >       12       60       61       63       73 </v>
   <v type="int" >       12       60       62       63       73 </v>
   <v type="int" >       12       60       62       72       73 </v>
   <v type="int" >       12       60       61       71       73 </v>
   <v type="int" >       12       60       70       71       73 </v>
   <v type="int" >       12       60       70       72       73 </v>
   <v type="int" >       12       57       58       61       71 </v>
   <v type="int" >       12       57       60       61       71 </v>
   <v type="int" >       12       57       60       70       71 </v>
   <v type="int" >       12       57       58       68       71 </v>
   <v type="int" >       12       57       67       68       71 </v>
   <v type="int" >       12       57       67       70       71 </v>
   <v type="int" >       12       53       54       58       68 </v>
   <v type="int" >       12       53       57       58       68 </v>
   <v type="int" >       12       53       57       67       68 </v>
   <v type="int" >       12       59       60       62       72 </v>
   <v type="int" >       12       59       60       70       72 </v>
   <v type="int" >       12       59       69       70       72 </v>
   <v type="int" >       12       56       57       60       70 </v>
   <v type="int" >       12       56       59       60       70 </v>
   <v type="int" >       12       56       59       69       70 </v>
   <v type="int" >       12       56       57       67       70 </v>
   <v type="int" >       12       56       66       67       70 </v>
   <v type="int" >       12       56       66       69       70 </v>
   <v type="int" >       12       52       53       57       67 </v>
   <v type="int" >       12       52       56       57       67 </v>
   <v type="int" >       12       52       56       66       67 </v>
   <v type="int" >       12       55       56       59       69 </v>
   <v type="int" >       12       55       56       66       69 </v>
   <v type="int" >       12       55       65       66       69 </v>
   <v type="int" >       12       51       52       56       66 </v>
   <v type="int" >       12       51       55       56       66 </v>
   <v type="int" >       12       51       55       65       66 </v>
   <v type="int" >       12       50       51       55       65 </v>
   <v type="int" >       12       65       66       66       69 </v>
   <v type="int" >       12       66       66       69       69 </v>
   <v type="int" >       12       66       69       69       75 </v>
   <v type="int" >       12       66       67       69       70 </v>
   <v type="int" >       12       66       69       69       70 </v>
   <v type="int" >       12       69       69       70       75 </v>
   <v type="int" >       12       67       69       70       70 </v>
   <v type="int" >       24       69       70       70       76 </v>
   <v type="int" >       24       69       70       75       76 </v>
   <v type="int" >       12       67       68       70       71 </v>
   <v type="int" >       12       67       70       70       71 </v>
   <v type="int" >       12       70       70       71       76 </v>
   <v type="int" >       12       68       70       71       71 </v>
   <v type="int" >       12       70       71       71       77 </v>
   <v type="int" >       12       70       71       76       77 </v>
   <v type="int" >       12       69       70       72       75 </v>
   <v type="int" >       12       70       72       75       76 </v>
   <v type="int" >       12       72       75       76       78 </v>
   <v type="int" >       12       70       71       73       76 </v>
   <v type="int" >       12       70       72       73       76 </v>
   <v type="int" >       12       72       73       76       78 </v>
   <v type="int" >       12       71       73       76       77 </v>
   <v type="int" >       12       73       76       77       79 </v>
   <v type="int" >       12       73       76       78       79 </v>
   <v type="int" >       12       70       71       72       77 </v>
   <v type="int" >       12       71       72       73       77 </v>
   <v type="int" >       12       72       73       77       79 </v>
   <v type="int" >       12       70       72       76       77 </v>
   <v type="int" >       12       72       76       77       78 </v>
   <v type="int" >       12       72       77       78       79 </v>
   <v type="int" >       12       70       70       72       76 </v>
   <v type="int" >       12       70       72       76       78 </v>
   <v type="int" >       12       70       75       76       76 </v>
   <v type="int" >       12       70       76       76       78 </v>
   <v type="int" >       12       66       67       69       75 </v>
   <v type="int" >       12       67       69       70       75 </v>
   <v type="int" >       12       67       70       75       76 </v>
   <v type="int" >       12       72       73       74       78 </v>
   <v type="int" >       12       73       74       78       79 </v>
   <v type="int" >       12       74       78       79       80 </v>
   <v type="int" >       12       72       73       73       79 </v>
   <v type="int" >       12       73       73       74       79 </v>
   <v type="int" >       12       73       74       79       80 </v>
   <v type="int" >       12       72       73       78       79 </v>
   <v type="int" >       12       73       78       79       79 </v>
   <v type="int" >       12       73       79       79       80 </v>
   <v type="int" >       12       70       71       72       78 </v>
   <v type="int" >       12       71       72       73       78 </v>
   <v type="int" >       12       71       73       78       79 </v>
   <v type="int" >       12       70       71       76       78 </v>
   <v type="int" >       12       71       76       77       78 </v>
   <v type="int" >       12       71       77       78       79 </v>
   <v type="int" >       12       67       68       70       76 </v>
   <v type="int" >       12       68       70       71       76 </v>
   <v type="int" >       12       68       71       76       77 </v>
   <v type="int" >       12       72       73       74       80 </v>
   <v type="int" >       12       72       73       79       80 </v>
   <v type="int" >       12       72       78       79       80 </v>
   <v type="int" >       12       70       71       73       79 </v>
   <v type="int" >       12       70       72       73       79 </v>
   <v type="int" >       12       70       72       78       79 </v>
   <v type="int" >       12       70       71       77       79 </v>
   <v type="int" >       12       70       76       77       79 </v>
   <v type="int" >       12       70       76       78       79 </v>
   <v type="int" >       12       67       68       71       77 </v>
   <v type="int" >       12       67       70       71       77 </v>
   <v type="int" >       12       67       70       76       77 </v>
   <v type="int" >       12       69       70       72       78 </v>
   <v type="int" >       12       69       70       76       78 </v>
   <v type="int" >       12       69       75       76       78 </v>
   <v type="int" >       12       66       67       70       76 </v>
   <v type="int" >       12       66       69       70       76 </v>
   <v type="int" >       12       66       69       75       76 </v>
   <v type="int" >       12       65       66       69       75 </v>
   <v type="int" >       12       75       76       76       78 </v>
   <v type="int" >       12       76       76       78       78 </v>
   <v type="int" >       12       76       78       78       81 </v>
   <v type="int" >       12       76       77       78       79 </v>
   <v type="int" >       12       76       78       78       79 </v>
   <v type="int" >       12       78       78       79       81 </v>
   <v type="int" >       12       77       78       79       79 </v>
   <v type="int" >       24       78       79       79       82 </v>
   <v type="int" >       24       78       79       81       82 </v>
   <v type="int" >       12       78       79       80       81 </v>
   <v type="int" >       12       79       80       81       82 </v>
   <v type="int" >       12       80       81       82       83 </v>
   <v type="int" >       12       79       79       80       82 </v>
   <v type="int" >       12       79       80       82       83 </v>
   <v type="int" >       12       79       81       82       82 </v>
   <v type="int" >       12       79       82       82       83 </v>
   <v type="int" >       12       76       77       78       81 </v>
   <v type="int" >       12       77       78       79       81 </v>
   <v type="int" >       12       77       79       81       82 </v>
   <v type="int" >       12       78       79       80       83 </v>
   <v type="int" >       12       78       79       82       83 </v>
   <v type="int" >       12       78       81       82       83 </v>
   <v type="int" >       12       76       77       79       82 </v>
   <v type="int" >       12       76       78       79       82 </v>
   <v type="int" >       12       76       78       81       82 </v>
   <v type="int" >       12       75       76       78       81 </v>
   <v type="int" >       12       81       82       82       83 </v>
   <v type="int" >       12       82       82       83       83 </v>
   <v type="int" >       12       82       83       83       84 </v>
   <v type="int" >       12       81       82       83       84 </v>
  </varray>
  <i name="volumeweight">      0.00009645 </i>
 </kpoints>
 <parameters>
  <separator name="general" >
   <i type="string" name="SYSTEM">unknown system</i>
   <i type="logical" name="LCOMPAT"> F  </i>
  </separator>
  <separator name="electronic" >
   <i type="string" name="PREC">accura</i>
   <i name="ENMAX">    400.00000000</i>
   <i name="ENAUG">    644.87300000</i>
   <i name="EDIFF">      0.00000100</i>
   <i type="int" name="IALGO">    38</i>
   <i type="int" name="IWAVPR">    10</i>
   <i type="int" name="NBANDS">    24</i>
   <i name="NELECT">     32.00000000</i>
   <i type="int" name="TURBO">     0</i>
   <i type="int" name="IRESTART">     0</i>
   <i type="int" name="NREBOOT">     0</i>
   <i type="int" name="NMIN">     0</i>
   <i name="EREF">      0.00000000</i>
   <separator name="electronic smearing" >
    <i type="int" name="ISMEAR">    -5</i>
    <i name="SIGMA">      0.06000000</i>
    <i name="KSPACING">      0.50000000</i>
    <i type="logical" name="KGAMMA"> T  </i>
   </separator>
   <separator name="electronic projectors" >
    <i type="logical" name="LREAL"> F  </i>
    <v name="ROPT">      0.00000000</v>
    <i type="int" name="LMAXPAW">  -100</i>
    <i type="int" name="LMAXMIX">     2</i>
    <i type="logical" name="NLSPLINE"> F  </i>
   </separator>
   <separator name="electronic startup" >
    <i type="int" name="ISTART">     0</i>
    <i type="int" name="ICHARG">     2</i>
    <i type="int" name="INIWAV">     1</i>
   </separator>
   <separator name="electronic spin" >
    <i type="int" name="ISPIN">     1</i>
    <i type="logical" name="LNONCOLLINEAR"> F  </i>
    <v name="MAGMOM">      1.00000000      1.00000000      1.00000000      1.00000000      1.00000000      1.00000000      1.00000000      1.00000000</v>
    <i name="NUPDOWN">     -1.00000000</i>
    <i type="logical" name="LSORBIT"> F  </i>
    <v name="SAXIS">      0.00000000      0.00000000      1.00000000</v>
    <i type="logical" name="LSPIRAL"> F  </i>
    <v name="QSPIRAL">      0.00000000      0.00000000      0.00000000</v>
    <i type="logical" name="LZEROZ"> F  </i>
   </separator>
   <separator name="electronic exchange-correlation" >
    <i type="logical" name="LASPH"> F  </i>
    <i type="logical" name="LMETAGGA"> F  </i>
   </separator>
   <separator name="electronic convergence" >
    <i type="int" name="NELM">    60</i>
    <i type="int" name="NELMDL">    -5</i>
    <i type="int" name="NELMIN">     2</i>
    <i name="ENINI">    400.00000000</i>
    <separator name="electronic convergence detail" >
     <i type="logical" name="LDIAG"> T  </i>
     <i type="logical" name="LSUBROT"> F  </i>
     <i name="WEIMIN">      0.00000000</i>
     <i name="EBREAK">      0.00000001</i>
     <i name="DEPER">      0.30000000</i>
     <i type="int" name="NRMM">     4</i>
     <i name="TIME">      0.40000000</i>
    </separator>
   </separator>
   <separator name="electronic mixer" >
    <i name="AMIX">      0.40000000</i>
    <i name="BMIX">      1.00000000</i>
    <i name="AMIN">      0.10000000</i>
    <i name="AMIX_MAG">      1.60000000</i>
    <i name="BMIX_MAG">      1.00000000</i>
    <separator name="electronic mixer details" >
     <i type="int" name="IMIX">     4</i>
     <i type="logical" name="MIXFIRST"> F  </i>
     <i type="int" name="MAXMIX">   -45</i>
     <i name="WC">    100.00000000</i>
     <i type="int" name="INIMIX">     1</i>
     <i type="int" name="MIXPRE">     1</i>
     <i type="int" name="MREMOVE">     5</i>
    </separator>
   </separator>
   <separator name="electronic dipolcorrection" >
    <i type="logical" name="LDIPOL"> F  </i>
    <i type="logical" name="LMONO"> F  </i>
    <i type="int" name="IDIPOL">     0</i>
    <i name="EPSILON">      1.00000000</i>
    <v name="DIPOL">   -100.00000000   -100.00000000   -100.00000000</v>
    <i name="EFIELD">      0.00000000</i>
   </separator>
  </separator>
  <separator name="grids" >
   <i type="int" name="NGX">    24</i>
   <i type="int" name="NGY">    24</i>
   <i type="int" name="NGZ">    24</i>
   <i type="int" name="NGXF">    48</i>
   <i type="int" name="NGYF">    48</i>
   <i type="int" name="NGZF">    48</i>
   <i type="logical" name="ADDGRID"> F  </i>
  </separator>
  <separator name="ionic" >
   <i type="int" name="NSW">     0</i>
   <i type="int" name="IBRION">    -1</i>
   <i type="int" name="MDALGO">     0</i>
   <i type="int" name="ISIF">     2</i>
   <i name="PSTRESS">      0.00000000</i>
   <i name="EDIFFG">      0.00001000</i>
   <i type="int" name="NFREE">     0</i>
   <i name="POTIM">      0.02000000</i>
   <i name="SMASS">     -3.00000000</i>
   <i name="SCALEE">      1.00000000</i>
  </separator>
  <separator name="ionic md" >
   <i name="TEBEG">      0.00010000</i>
   <i name="TEEND">      0.00010000</i>
   <i type="int" name="NBLOCK">     1</i>
   <i type="int" name="KBLOCK">     1</i>
   <i type="int" name="NPACO">   256</i>
   <i name="APACO">     16.00000000</i>
  </separator>
  <separator name="symmetry" >
   <i type="int" name="ISYM">     2</i>
   <i name="SYMPREC">      0.00001000</i>
  </separator>
  <separator name="dos" >
   <i type="int" name="LORBIT">     0</i>
   <v name="RWIGS">     -1.00000000</v>
   <i type="int" name="NEDOS">   301</i>
   <i name="EMIN">     10.00000000</i>
   <i name="EMAX">    -10.00000000</i>
   <i name="EFERMI">      0.00000000</i>
  </separator>
  <separator name="writing" >
   <i type="int" name="NWRITE">     2</i>
   <i type="logical" name="LWAVE"> F  </i>
   <i type="logical" name="LDOWNSAMPLE"> F  </i>
   <i type="logical" name="LCHARG"> F  </i>
   <i type="logical" name="LPARD"> F  </i>
   <i type="logical" name="LVTOT"> F  </i>
   <i type="logical" name="LVHAR"> F  </i>
   <i type="logical" name="LELF"> F  </i>
   <i type="logical" name="LOPTICS"> F  </i>
   <v name="STM">      0.00000000      0.00000000      0.00000000      0.00000000      0.00000000      0.00000000      0.00000000</v>
  </separator>
  <separator name="performance" >
   <i type="int" name="NPAR">     4</i>
   <i type="int" name="NSIM">     4</i>
   <i type="int" name="NBLK">    -1</i>
   <i type="logical" name="LPLANE"> T  </i>
   <i type="logical" name="LSCALAPACK"> T  </i>
   <i type="logical" name="LSCAAWARE"> F  </i>
   <i type="logical" name="LSCALU"> F  </i>
   <i type="logical" name="LASYNC"> F  </i>
   <i type="logical" name="LORBITALREAL"> F  </i>
  </separator>
  <separator name="miscellaneous" >
   <i type="int" name="IDIOT">     3</i>
   <i type="int" name="ISPECIAL">     0</i>
   <i type="logical" name="LMUSIC"> F  </i>
   <v name="POMASS">     12.01100000</v>
   <v name="DARWINR">      0.00000000</v>
   <v name="DARWINV">      1.00000000</v>
   <i type="logical" name="LCORR"> T  </i>
  </separator>
  <i type="logical" name="GGA_COMPAT"> T  </i>
  <i type="logical" name="LBERRY"> F  </i>
  <i type="int" name="ICORELEVEL">     0</i>
  <i type="logical" name="LDAU"> F  </i>
  <i type="int" name="I_CONSTRAINED_M">     0</i>
  <separator name="electronic exchange-correlation" >
   <i type="string" name="GGA">--</i>
   <i type="int" name="VOSKOWN">     0</i>
   <i type="logical" name="LHFCALC"> F  </i>
   <i type="string" name="PRECFOCK"></i>
   <i type="logical" name="LSYMGRAD"> F  </i>
   <i type="logical" name="LHFONE"> F  </i>
   <i type="logical" name="LRHFCALC"> F  </i>
   <i type="logical" name="LTHOMAS"> F  </i>
   <i type="logical" name="LMODELHF"> F  </i>
   <i name="ENCUT4O">     -1.00000000</i>
   <i type="int" name="EXXOEP">     0</i>
   <i type="int" name="FOURORBIT">     0</i>
   <i name="AEXX">      0.00000000</i>
   <i name="HFALPHA">      0.00000000</i>
   <i name="MCALPHA">      0.00000000</i>
   <i name="ALDAX">      1.00000000</i>
   <i name="AGGAX">      1.00000000</i>
   <i name="ALDAC">      1.00000000</i>
   <i name="AGGAC">      1.00000000</i>
   <i type="int" name="NKREDX">     1</i>
   <i type="int" name="NKREDY">     1</i>
   <i type="int" name="NKREDZ">     1</i>
   <i type="logical" name="SHIFTRED"> F  </i>
   <i type="logical" name="ODDONLY"> F  </i>
   <i type="logical" name="EVENONLY"> F  </i>
   <i type="int" name="LMAXFOCK">     0</i>
   <i type="int" name="NMAXFOCKAE">     0</i>
   <i type="logical" name="LFOCKAEDFT"> F  </i>
   <i name="HFSCREEN">      0.00000000</i>
   <i name="HFSCREENC">      0.00000000</i>
   <i type="int" name="NBANDSGWLOW">     0</i>
  </separator>
  <separator name="vdW DFT" >
   <i type="logical" name="LUSE_VDW"> F  </i>
   <i name="Zab_VDW">     -0.84910000</i>
   <i name="PARAM1">      0.12340000</i>
   <i name="PARAM2">      1.00000000</i>
   <i name="PARAM3">      0.00000000</i>
  </separator>
  <separator name="model GW" >
   <i type="int" name="MODEL_GW">     0</i>
   <i name="MODEL_EPS0">      3.32091798</i>
   <i name="MODEL_ALPHA">      1.00000000</i>
  </separator>
  <separator name="linear response parameters" >
   <i type="logical" name="LEPSILON"> F  </i>
   <i type="logical" name="LRPA"> F  </i>
   <i type="logical" name="LNABLA"> F  </i>
   <i type="logical" name="LVEL"> F  </i>
   <i type="int" name="KINTER">     0</i>
   <i name="CSHIFT">      0.10000000</i>
   <i name="OMEGAMAX">     -1.00000000</i>
   <i name="DEG_THRESHOLD">      0.00200000</i>
   <i name="RTIME">     -0.10000000</i>
   <i name="WPLASMAI">      0.00000000</i>
   <v name="DFIELD">      0.00000000      0.00000000      0.00000000</v>
   <v name="WPLASMA">      0.00000000      0.00000000      0.00000000      0.00000000      0.00000000      0.00000000      0.00000000      0.00000000      0.00000000</v>
  </separator>
  <separator name="orbital magnetization" >
   <i type="logical" name="NUCIND"> F  </i>
   <v name="MAGPOS">      0.00000000      0.00000000      0.00000000</v>
   <i type="logical" name="LNICSALL"> T  </i>
   <i type="logical" name="ORBITALMAG"> F  </i>
   <i type="logical" name="LMAGBLOCH"> F  </i>
   <i type="logical" name="LCHIMAG"> F  </i>
   <i type="logical" name="LGAUGE"> T  </i>
   <i type="int" name="MAGATOM">     0</i>
   <v name="MAGDIPOL">      0.00000000      0.00000000      0.00000000</v>
   <v name="AVECCONST">      0.00000000      0.00000000      0.00000000</v>
  </separator>
  <separator name="response functions" >
   <i type="logical" name="LADDER"> F  </i>
   <i type="logical" name="LRPAFORCE"> F  </i>
   <i type="logical" name="LFXC"> F  </i>
   <i type="logical" name="LHARTREE"> T  </i>
   <i type="int" name="IBSE">     0</i>
   <v type="int" name="KPOINT">    -1     0     0     0</v>
   <i type="logical" name="LTCTE"> F  </i>
   <i type="logical" name="LTETE"> F  </i>
   <i type="logical" name="LTRIPLET"> F  </i>
   <i type="logical" name="LFXCEPS"> F  </i>
   <i type="logical" name="LFXHEG"> F  </i>
   <i type="int" name="NATURALO">     2</i>
   <i type="logical" name="L2ORDER"> F  </i>
   <i type="logical" name="LMP2LT"> F  </i>
   <i type="logical" name="LUSEW"> F  </i>
   <i name="ENCUTGW">     -2.00000000</i>
   <i name="ENCUTGWSOFT">     -2.00000000</i>
[...]
       <r>   -5.8343    1.0000 </r>
       <r>   -5.8343    1.0000 </r>
       <r>   -3.1278    1.0000 </r>
       <r>   -3.1278    1.0000 </r>
       <r>   -3.1278    1.0000 </r>
       <r>   -1.9794    1.0000 </r>
       <r>    6.6006    1.0000 </r>
       <r>    6.6006    1.0000 </r>
       <r>    6.6006    1.0000 </r>
       <r>    6.8985    1.0000 </r>
       <r>    6.8985    1.0000 </r>
       <r>    6.8985    1.0000 </r>
       <r>    7.3808    1.0000 </r>
       <r>    7.3808    1.0000 </r>
       <r>   18.3088    0.0000 </r>
       <r>   18.3088    0.0000 </r>
       <r>   18.3088    0.0000 </r>
       <r>   18.6702    0.0000 </r>
       <r>   18.6702    0.0000 </r>
       <r>   19.2189    0.0000 </r>
       <r>   19.3488    0.0000 </r>
       <r>   19.3488    0.0000 </r>
      </set>
      <set comment="kpoint 82">
       <r>   -6.4211    1.0000 </r>
       <r>   -6.4211    1.0000 </r>
       <r>   -5.6646    1.0000 </r>
       <r>   -5.6646    1.0000 </r>
       <r>   -3.4114    1.0000 </r>
       <r>   -3.4114    1.0000 </r>
       <r>   -2.6692    1.0000 </r>
       <r>   -2.6692    1.0000 </r>
       <r>    6.6911    1.0000 </r>
       <r>    6.6911    1.0000 </r>
       <r>    7.0293    1.0000 </r>
       <r>    7.0293    1.0000 </r>
       <r>    7.1471    1.0000 </r>
       <r>    7.1471    1.0000 </r>
       <r>    7.2049    1.0000 </r>
       <r>    7.2049    1.0000 </r>
       <r>   18.5242    0.0000 </r>
       <r>   18.5242    0.0000 </r>
       <r>   18.5787    0.0000 </r>
       <r>   18.5787    0.0000 </r>
       <r>   18.9276    0.0000 </r>
       <r>   18.9285    0.0000 </r>
       <r>   18.9757    0.0000 </r>
       <r>   18.9767    0.0000 </r>
      </set>
      <set comment="kpoint 83">
       <r>   -5.9513    1.0000 </r>
       <r>   -5.9513    1.0000 </r>
       <r>   -5.9513    1.0000 </r>
       <r>   -5.9513    1.0000 </r>
       <r>   -3.2461    1.0000 </r>
       <r>   -3.2461    1.0000 </r>
       <r>   -3.2461    1.0000 </r>
       <r>   -3.2461    1.0000 </r>
       <r>    7.0272    1.0000 </r>
       <r>    7.0272    1.0000 </r>
       <r>    7.0272    1.0000 </r>
       <r>    7.0272    1.0000 </r>
       <r>    7.2412    1.0000 </r>
       <r>    7.2412    1.0000 </r>
       <r>    7.2412    1.0000 </r>
       <r>    7.2412    1.0000 </r>
       <r>   18.6889    0.0000 </r>
       <r>   18.6889    0.0000 </r>
       <r>   18.6889    0.0000 </r>
       <r>   18.6914    0.0000 </r>
       <r>   18.7817    0.0000 </r>
       <r>   18.7817    0.0000 </r>
       <r>   18.7817    0.0000 </r>
       <r>   18.7831    0.0000 </r>
      </set>
      <set comment="kpoint 84">
       <r>   -5.7795    1.0000 </r>
       <r>   -5.7795    1.0000 </r>
       <r>   -5.7795    1.0000 </r>
       <r>   -5.7795    1.0000 </r>
       <r>   -3.5328    1.0000 </r>
       <r>   -3.5328    1.0000 </r>
       <r>   -3.5328    1.0000 </r>
       <r>   -3.5328    1.0000 </r>
       <r>    7.2561    1.0000 </r>
       <r>    7.2561    1.0000 </r>
       <r>    7.2561    1.0000 </r>
       <r>    7.2561    1.0000 </r>
       <r>    7.2561    1.0000 </r>
       <r>    7.2561    1.0000 </r>
       <r>    7.2561    1.0000 </r>
       <r>    7.2561    1.0000 </r>
       <r>   18.6839    0.0000 </r>
       <r>   18.6839    0.0000 </r>
       <r>   18.6839    0.0000 </r>
       <r>   18.6839    0.0000 </r>
       <r>   18.6839    0.0000 </r>
       <r>   18.6839    0.0000 </r>
       <r>   18.6839    0.0000 </r>
       <r>   18.6839    0.0000 </r>
      </set>
     </set>
    </set>
   </array>
  </eigenvalues>
  <separator name="orbital magnetization" >
   <v name="MAGDIPOLOUT">      0.00000000      0.00000000      0.00000000</v>
  </separator>
  <dos>
   <i name="efermi">     10.24893522 </i>
   <total>
    <array>
     <dimension dim="1">gridpoints</dimension>
     <dimension dim="2">spin</dimension>
     <field>energy</field>
     <field>total</field>
     <field>integrated</field>
     <set>
      <set comment="spin 1">
       <r>   -13.3819     0.0000     0.0000 </r>
       <r>   -13.2582     0.0000     0.0000 </r>
       <r>   -13.1345     0.0000     0.0000 </r>
       <r>   -13.0108     0.0000     0.0000 </r>
       <r>   -12.8871     0.0000     0.0000 </r>
       <r>   -12.7635     0.0000     0.0000 </r>
       <r>   -12.6398     0.0000     0.0000 </r>
       <r>   -12.5161     0.0000     0.0000 </r>
       <r>   -12.3924     0.0000     0.0000 </r>
       <r>   -12.2687     0.0000     0.0000 </r>
       <r>   -12.1451     0.0000     0.0000 </r>
       <r>   -12.0214     0.0000     0.0000 </r>
       <r>   -11.8977     0.0000     0.0000 </r>
       <r>   -11.7740     0.0000     0.0000 </r>
       <r>   -11.6503     0.0338     0.0005 </r>
       <r>   -11.5266     0.1504     0.0148 </r>
       <r>   -11.4030     0.2357     0.0386 </r>
       <r>   -11.2793     0.2664     0.0694 </r>
       <r>   -11.1556     0.3125     0.1052 </r>
       <r>   -11.0319     0.3524     0.1468 </r>
       <r>   -10.9082     0.3805     0.1920 </r>
       <r>   -10.7846     0.4104     0.2408 </r>
       <r>   -10.6609     0.4477     0.2939 </r>
       <r>   -10.5372     0.4707     0.3509 </r>
       <r>   -10.4135     0.4934     0.4105 </r>
       <r>   -10.2898     0.5183     0.4730 </r>
       <r>   -10.1662     0.5458     0.5388 </r>
       <r>   -10.0425     0.5727     0.6080 </r>
       <r>    -9.9188     0.5911     0.6799 </r>
       <r>    -9.7951     0.6105     0.7543 </r>
       <r>    -9.6714     0.6316     0.8311 </r>
       <r>    -9.5478     0.6535     0.9105 </r>
       <r>    -9.4241     0.6769     0.9928 </r>
       <r>    -9.3004     0.6983     1.0779 </r>
       <r>    -9.1767     0.7154     1.1653 </r>
       <r>    -9.0530     0.7322     1.2548 </r>
       <r>    -8.9293     0.7515     1.3466 </r>
       <r>    -8.8057     0.7712     1.4407 </r>
       <r>    -8.6820     0.7919     1.5374 </r>
       <r>    -8.5583     0.8133     1.6366 </r>
       <r>    -8.4346     0.8303     1.7384 </r>
       <r>    -8.3109     0.8472     1.8421 </r>
       <r>    -8.1873     0.8648     1.9480 </r>
       <r>    -8.0636     0.8833     2.0561 </r>
       <r>    -7.9399     0.9020     2.1665 </r>
       <r>    -7.8162     0.9214     2.2792 </r>
       <r>    -7.6925     0.9833     2.3979 </r>
       <r>    -7.5689     1.0084     2.5212 </r>
       <r>    -7.4452     1.0555     2.6497 </r>
       <r>    -7.3215     1.0579     2.7806 </r>
       <r>    -7.1978     1.0337     2.9101 </r>
       <r>    -7.0741     1.0025     3.0359 </r>
       <r>    -6.9505     1.0315     3.1622 </r>
       <r>    -6.8268     1.0439     3.2905 </r>
       <r>    -6.7031     1.0486     3.4199 </r>
       <r>    -6.5794     1.0681     3.5503 </r>
       <r>    -6.4557     1.1220     3.6856 </r>
       <r>    -6.3320     1.1632     3.8281 </r>
       <r>    -6.2084     1.2575     3.9786 </r>
       <r>    -6.0847     1.3009     4.1378 </r>
       <r>    -5.9610     1.3329     4.3000 </r>
       <r>    -5.8373     1.4941     4.4741 </r>
       <r>    -5.7136     1.6269     4.6674 </r>
       <r>    -5.5900     1.5018     4.8593 </r>
       <r>    -5.4663     1.5129     5.0432 </r>
       <r>    -5.3426     1.3623     5.2186 </r>
       <r>    -5.2189     1.3795     5.3912 </r>
       <r>    -5.0952     1.3500     5.5584 </r>
       <r>    -4.9716     1.4177     5.7292 </r>
       <r>    -4.8479     1.2722     5.8951 </r>
       <r>    -4.7242     1.1874     6.0470 </r>
       <r>    -4.6005     1.1768     6.1934 </r>
       <r>    -4.4768     1.1434     6.3370 </r>
       <r>    -4.3532     1.1777     6.4787 </r>
       <r>    -4.2295     1.0789     6.6197 </r>
       <r>    -4.1058     1.0918     6.7516 </r>
       <r>    -3.9821     1.0794     6.8831 </r>
       <r>    -3.8584     0.9898     7.0107 </r>
       <r>    -3.7347     0.9462     7.1305 </r>
       <r>    -3.6111     0.9404     7.2459 </r>
       <r>    -3.4874     0.9393     7.3629 </r>
       <r>    -3.3637     1.0247     7.4840 </r>
       <r>    -3.2400     1.0025     7.6124 </r>
       <r>    -3.1163     1.0616     7.7378 </r>
       <r>    -2.9927     1.0038     7.8672 </r>
       <r>    -2.8690     0.9848     7.9902 </r>
       <r>    -2.7453     1.1255     8.1216 </r>
       <r>    -2.6216     1.0055     8.2546 </r>
       <r>    -2.4979     0.9761     8.3785 </r>
       <r>    -2.3743     0.9698     8.4976 </r>
       <r>    -2.2506     1.0290     8.6207 </r>
       <r>    -2.1269     1.1910     8.7575 </r>
       <r>    -2.0032     1.3228     8.9120 </r>
       <r>    -1.8795     1.5265     9.0882 </r>
       <r>    -1.7559     1.7588     9.2908 </r>
       <r>    -1.6322     2.2348     9.5340 </r>
       <r>    -1.5085     2.7564     9.8461 </r>
       <r>    -1.3848     2.8083    10.1939 </r>
       <r>    -1.2611     2.1467    10.5148 </r>
       <r>    -1.1374     1.7919    10.7648 </r>
       <r>    -1.0138     1.6384    10.9765 </r>
       <r>    -0.8901     1.5283    11.1719 </r>
       <r>    -0.7664     1.4441    11.3555 </r>
       <r>    -0.6427     1.3762    11.5298 </r>
       <r>    -0.5190     1.3387    11.6973 </r>
       <r>    -0.3954     1.3080    11.8610 </r>
       <r>    -0.2717     1.2741    12.0207 </r>
       <r>    -0.1480     1.2628    12.1768 </r>
       <r>    -0.0243     1.3622    12.3339 </r>
       <r>     0.0994     1.1153    12.4808 </r>
       <r>     0.2230     1.0998    12.6176 </r>
       <r>     0.3467     1.0971    12.7533 </r>
       <r>     0.4704     1.0776    12.8889 </r>
       <r>     0.5941     0.9538    13.0169 </r>
       <r>     0.7178     1.2054    13.1469 </r>
       <r>     0.8415     1.5142    13.3154 </r>
       <r>     0.9651     1.7688    13.5194 </r>
       <r>     1.0888     2.0542    13.7572 </r>
       <r>     1.2125     2.2492    14.0316 </r>
       <r>     1.3362     2.1408    14.3006 </r>
       <r>     1.4599     2.0508    14.5626 </r>
       <r>     1.5835     2.1640    14.8244 </r>
       <r>     1.7072     2.2075    15.0955 </r>
       <r>     1.8309     1.9986    15.3568 </r>
       <r>     1.9546     1.5852    15.5805 </r>
       <r>     2.0783     1.3935    15.7591 </r>
       <r>     2.2019     1.6592    15.9462 </r>
       <r>     2.3256     1.9843    16.1718 </r>
       <r>     2.4493     2.1550    16.4302 </r>
       <r>     2.5730     2.3173    16.7082 </r>
       <r>     2.6967     2.2898    16.9874 </r>
       <r>     2.8203     2.3027    17.2735 </r>
       <r>     2.9440     2.3137    17.5581 </r>
       <r>     3.0677     2.4295    17.8504 </r>
       <r>     3.1914     2.7679    18.1772 </r>
       <r>     3.3151     3.2855    18.5464 </r>
       <r>     3.4388     2.7273    18.8993 </r>
       <r>     3.5624     2.5154    19.2200 </r>
       <r>     3.6861     2.4689    19.5112 </r>
       <r>     3.8098     2.9310    19.8490 </r>
       <r>     3.9335     2.6925    20.1880 </r>
       <r>     4.0572     3.1336    20.5368 </r>
       <r>     4.1808     3.7003    20.9595 </r>
       <r>     4.3045     3.7151    21.4352 </r>
       <r>     4.4282     3.1871    21.8623 </r>
       <r>     4.5519     2.6646    22.2341 </r>
       <r>     4.6756     2.5381    22.5512 </r>
       <r>     4.7992     2.7022    22.8667 </r>
       <r>     4.9229     2.8495    23.2220 </r>
       <r>     5.0466     2.6804    23.5561 </r>
       <r>     5.1703     2.9041    23.8983 </r>
       <r>     5.2940     2.8970    24.2600 </r>
       <r>     5.4176     2.8941    24.6168 </r>
       <r>     5.5413     2.9375    24.9754 </r>
       <r>     5.6650     3.0389    25.3450 </r>
       <r>     5.7887     2.8476    25.7142 </r>
       <r>     5.9124     2.4798    26.0437 </r>
       <r>     6.0361     2.3098    26.3398 </r>
       <r>     6.1597     2.4364    26.6258 </r>
       <r>     6.2834     2.3526    26.9125 </r>
       <r>     6.4071     2.6960    27.2294 </r>
       <r>     6.5308     2.7306    27.5712 </r>
       <r>     6.6545     2.6643    27.9029 </r>
       <r>     6.7781     2.6172    28.2320 </r>
       <r>     6.9018     2.3897    28.5449 </r>
       <r>     7.0255     2.3242    28.8367 </r>
       <r>     7.1492     2.4119    29.1232 </r>
       <r>     7.2729     2.8051    29.4877 </r>
       <r>     7.3965     1.8314    29.7557 </r>
       <r>     7.5202     1.6590    29.9710 </r>
       <r>     7.6439     1.5382    30.1696 </r>
       <r>     7.7676     1.3879    30.3509 </r>
       <r>     7.8913     1.3125    30.5177 </r>
       <r>     8.0149     1.2439    30.6759 </r>
       <r>     8.1386     1.1672    30.8248 </r>
       <r>     8.2623     1.0708    30.9643 </r>
       <r>     8.3860     0.9604    31.0895 </r>
       <r>     8.5097     0.8733    31.2026 </r>
       <r>     8.6334     0.8369    31.3089 </r>
       <r>     8.7570     0.7956    31.4095 </r>
       <r>     8.8807     0.7284    31.5044 </r>
       <r>     9.0044     0.6565    31.5901 </r>
       <r>     9.1281     0.5818    31.6666 </r>
       <r>     9.2518     0.5259    31.7343 </r>
       <r>     9.3754     0.4959    31.7989 </r>
       <r>     9.4991     0.3813    31.8525 </r>
       <r>     9.6228     0.3567    31.8958 </r>
       <r>     9.7465     0.3704    31.9419 </r>
       <r>     9.8702     0.1774    31.9749 </r>
       <r>     9.9938     0.1435    31.9919 </r>
       <r>    10.1175     0.0015    32.0000 </r>
       <r>    10.2412     0.0000    32.0000 </r>
       <r>    10.3649     0.0000    32.0000 </r>
       <r>    10.4886     0.0000    32.0000 </r>
       <r>    10.6122     0.0000    32.0000 </r>
       <r>    10.7359     0.0000    32.0000 </r>
       <r>    10.8596     0.0000    32.0000 </r>
       <r>    10.9833     0.0000    32.0000 </r>
       <r>    11.1070     0.0000    32.0000 </r>
       <r>    11.2307     0.0000    32.0000 </r>
       <r>    11.3543     0.0000    32.0000 </r>
       <r>    11.4780     0.0000    32.0000 </r>
       <r>    11.6017     0.0000    32.0000 </r>
       <r>    11.7254     0.0000    32.0000 </r>
       <r>    11.8491     0.0000    32.0000 </r>
       <r>    11.9727     0.0000    32.0000 </r>
       <r>    12.0964     0.0000    32.0000 </r>
       <r>    12.2201     0.0000    32.0000 </r>
       <r>    12.3438     0.0000    32.0000 </r>
       <r>    12.4675     0.0000    32.0000 </r>
       <r>    12.5911     0.0000    32.0000 </r>
       <r>    12.7148     0.0000    32.0000 </r>
       <r>    12.8385     0.0000    32.0000 </r>
       <r>    12.9622     0.0000    32.0000 </r>
       <r>    13.0859     0.0000    32.0000 </r>
       <r>    13.2095     0.0000    32.0000 </r>
       <r>    13.3332     0.0000    32.0000 </r>
       <r>    13.4569     0.0000    32.0000 </r>
       <r>    13.5806     0.0000    32.0000 </r>
       <r>    13.7043     0.0000    32.0000 </r>
       <r>    13.8280     0.0000    32.0000 </r>
       <r>    13.9516     0.0000    32.0000 </r>
       <r>    14.0753     0.0000    32.0000 </r>
       <r>    14.1990     0.0000    32.0000 </r>
       <r>    14.3227     0.0037    32.0000 </r>
       <r>    14.4464     0.1147    32.0063 </r>
       <r>    14.5700     0.3013    32.0314 </r>
       <r>    14.6937     0.5228    32.0840 </r>
       <r>    14.8174     0.6005    32.1546 </r>
       <r>    14.9411     0.5998    32.2275 </r>
       <r>    15.0648     0.7948    32.3138 </r>
       <r>    15.1884     0.8787    32.4186 </r>
       <r>    15.3121     1.0138    32.5350 </r>
       <r>    15.4358     1.4497    32.7077 </r>
       <r>    15.5595     1.4190    32.8850 </r>
       <r>    15.6832     1.4189    33.0599 </r>
       <r>    15.8068     1.5114    33.2401 </r>
       <r>    15.9305     1.4907    33.4256 </r>
       <r>    16.0542     1.6368    33.6190 </r>
       <r>    16.1779     1.7750    33.8287 </r>
       <r>    16.3016     1.9431    34.0535 </r>
       <r>    16.4253     2.1410    34.3047 </r>
       <r>    16.5489     2.3228    34.5835 </r>
       <r>    16.6726     2.0532    34.8508 </r>
       <r>    16.7963     2.0273    35.1021 </r>
       <r>    16.9200     2.0604    35.3543 </r>
       <r>    17.0437     2.1480    35.6139 </r>
       <r>    17.1673     2.2778    35.8869 </r>
       <r>    17.2910     2.4414    36.1796 </r>
       <r>    17.4147     2.5843    36.4905 </r>
       <r>    17.5384     2.7262    36.8231 </r>
       <r>    17.6621     2.7448    37.1599 </r>
       <r>    17.7857     2.8595    37.5057 </r>
       <r>    17.9094     3.0615    37.8704 </r>
       <r>    18.0331     3.3740    38.2700 </r>
       <r>    18.1568     3.7146    38.7044 </r>
       <r>    18.2805     4.2198    39.1921 </r>
       <r>    18.4042     4.3882    39.7317 </r>
       <r>    18.5278     4.3953    40.2755 </r>
       <r>    18.6515     3.2813    40.7506 </r>
       <r>    18.7752     2.8252    41.1209 </r>
       <r>    18.8989     3.1534    41.4726 </r>
       <r>    19.0226     3.5847    41.9026 </r>
       <r>    19.1462     3.4791    42.3575 </r>
       <r>    19.2699     3.6674    42.7954 </r>
       <r>    19.3936     3.6933    43.2447 </r>
       <r>    19.5173     3.6320    43.7056 </r>
       <r>    19.6410     3.1991    44.1292 </r>
       <r>    19.7646     2.7591    44.4929 </r>
       <r>    19.8883     2.5756    44.8206 </r>
       <r>    20.0120     2.5129    45.1347 </r>
       <r>    20.1357     2.6567    45.4560 </r>
       <r>    20.2594     2.8212    45.7918 </r>
       <r>    20.3830     2.6734    46.1305 </r>
       <r>    20.5067     2.7581    46.4718 </r>
       <r>    20.6304     2.6311    46.8054 </r>
       <r>    20.7541     2.5068    47.1273 </r>
       <r>    20.8778     1.9314    47.4032 </r>
       <r>    21.0015     1.4636    47.6117 </r>
       <r>    21.1251     1.0296    47.7670 </r>
       <r>    21.2488     0.5164    47.8563 </r>
       <r>    21.3725     0.3824    47.9106 </r>
       <r>    21.4962     0.2082    47.9469 </r>
       <r>    21.6199     0.1549    47.9694 </r>
       <r>    21.7435     0.1046    47.9854 </r>
       <r>    21.8672     0.0575    47.9954 </r>
       <r>    21.9909     0.0135    47.9997 </r>
       <r>    22.1146     0.0000    48.0000 </r>
       <r>    22.2383     0.0000    48.0000 </r>
       <r>    22.3619     0.0000    48.0000 </r>
       <r>    22.4856     0.0000    48.0000 </r>
       <r>    22.6093     0.0000    48.0000 </r>
       <r>    22.7330     0.0000    48.0000 </r>
       <r>    22.8567     0.0000    48.0000 </r>
       <r>    22.9803     0.0000    48.0000 </r>
       <r>    23.1040     0.0000    48.0000 </r>
       <r>    23.2277     0.0000    48.0000 </r>
       <r>    23.3514     0.0000    48.0000 </r>
       <r>    23.4751     0.0000    48.0000 </r>
       <r>    23.5988     0.0000    48.0000 </r>
       <r>    23.7224     0.0000    48.0000 </r>
      </set>
     </set>
    </array>
   </total>
  </dos>
 </calculation>
 <structure name="finalpos" >
  <crystal>
   <varray name="basis" >
    <v>       3.53779200       0.00000000       0.00000000 </v>
    <v>       0.00000000       3.53779200       0.00000000 </v>
    <v>       0.00000000       0.00000000       3.53779200 </v>
   </varray>
   <i name="volume">     44.27890645 </i>
   <varray name="rec_basis" >
    <v>       0.28266218       0.00000000       0.00000000 </v>
    <v>       0.00000000       0.28266218       0.00000000 </v>
    <v>       0.00000000       0.00000000       0.28266218 </v>
   </varray>
  </crystal>
  <varray name="positions" >
   <v>       0.25000000       0.75000000       0.25000000 </v>
   <v>       0.00000000       0.00000000       0.50000000 </v>
   <v>       0.25000000       0.25000000       0.75000000 </v>
   <v>       0.00000000       0.50000000       0.00000000 </v>
   <v>       0.75000000       0.75000000       0.75000000 </v>
   <v>       0.50000000       0.00000000       0.00000000 </v>
   <v>       0.75000000       0.25000000       0.25000000 </v>
   <v>       0.50000000       0.50000000       0.50000000 </v>
  </varray>
 </structure>
</modeling>
