   8   8   0   0
  0.5704299E+01  0.3573710E-09  0.3573710E-09  0.3573710E-09  0.2000000E-16
  1.000000000000000E-004
  CAR 
 unknown system                          
     23.06122900    -13.38542871  301      9.71264062      1.00000000
    -13.385  0.0000E+00  0.0000E+00
    -13.264  0.0000E+00  0.0000E+00
    -13.142  0.0000E+00  0.0000E+00
    -13.021  0.0000E+00  0.0000E+00
    -12.899  0.0000E+00  0.0000E+00
    -12.778  0.0000E+00  0.0000E+00
    -12.656  0.0000E+00  0.0000E+00
    -12.535  0.0000E+00  0.0000E+00
    -12.414  0.0000E+00  0.0000E+00
    -12.292  0.0000E+00  0.0000E+00
    -12.171  0.0000E+00  0.0000E+00
    -12.049  0.0000E+00  0.0000E+00
    -11.928  0.0000E+00  0.0000E+00
    -11.806  0.0000E+00  0.0000E+00
    -11.685  0.3486E-01  0.5133E-03
    -11.563  0.1539E+00  0.1489E-01
    -11.442  0.2409E+00  0.3886E-01
    -11.320  0.2725E+00  0.6974E-01
    -11.199  0.3199E+00  0.1057E+00
    -11.077  0.3602E+00  0.1475E+00
    -10.956  0.3892E+00  0.1930E+00
    -10.834  0.4201E+00  0.2420E+00
    -10.713  0.4583E+00  0.2954E+00
    -10.591  0.4815E+00  0.3526E+00
    -10.470  0.5049E+00  0.4126E+00
    -10.348  0.5306E+00  0.4754E+00
    -10.227  0.5588E+00  0.5416E+00
    -10.105  0.5863E+00  0.6112E+00
     -9.984  0.6057E+00  0.6835E+00
     -9.862  0.6266E+00  0.7584E+00
     -9.741  0.6500E+00  0.8359E+00
     -9.619  0.6746E+00  0.9164E+00
     -9.498  0.7011E+00  0.9999E+00
     -9.376  0.7167E+00  0.1086E+01
     -9.255  0.7327E+00  0.1175E+01
     -9.133  0.7499E+00  0.1264E+01
     -9.012  0.7688E+00  0.1357E+01
     -8.890  0.7881E+00  0.1451E+01
     -8.769  0.8113E+00  0.1548E+01
     -8.647  0.8334E+00  0.1648E+01
     -8.526  0.8499E+00  0.1751E+01
     -8.404  0.8694E+00  0.1855E+01
     -8.283  0.8885E+00  0.1962E+01
     -8.161  0.9072E+00  0.2071E+01
     -8.040  0.9257E+00  0.2182E+01
     -7.918  0.9442E+00  0.2296E+01
     -7.797  0.1011E+01  0.2415E+01
     -7.675  0.1064E+01  0.2540E+01
     -7.554  0.1094E+01  0.2671E+01
     -7.432  0.1091E+01  0.2804E+01
     -7.311  0.1063E+01  0.2935E+01
     -7.189  0.1036E+01  0.3062E+01
     -7.068  0.1064E+01  0.3189E+01
     -6.947  0.1079E+01  0.3320E+01
     -6.825  0.1088E+01  0.3451E+01
     -6.704  0.1127E+01  0.3585E+01
     -6.582  0.1189E+01  0.3726E+01
     -6.461  0.1228E+01  0.3871E+01
     -6.339  0.1321E+01  0.4026E+01
     -6.218  0.1337E+01  0.4188E+01
     -6.096  0.1488E+01  0.4359E+01
     -5.975  0.1538E+01  0.4545E+01
     -5.853  0.1560E+01  0.4731E+01
     -5.732  0.1560E+01  0.4922E+01
     -5.610  0.1439E+01  0.5104E+01
     -5.489  0.1427E+01  0.5275E+01
     -5.367  0.1417E+01  0.5450E+01
     -5.246  0.1421E+01  0.5622E+01
     -5.124  0.1377E+01  0.5792E+01
     -5.003  0.1271E+01  0.5953E+01
     -4.881  0.1215E+01  0.6102E+01
     -4.760  0.1197E+01  0.6250E+01
     -4.638  0.1202E+01  0.6395E+01
     -4.517  0.1141E+01  0.6539E+01
     -4.395  0.1072E+01  0.6673E+01
     -4.274  0.1083E+01  0.6806E+01
     -4.152  0.1065E+01  0.6939E+01
     -4.031  0.1009E+01  0.7064E+01
     -3.909  0.9747E+00  0.7183E+01
     -3.788  0.9680E+00  0.7302E+01
     -3.666  0.9331E+00  0.7419E+01
     -3.545  0.8866E+00  0.7529E+01
     -3.423  0.1008E+01  0.7644E+01
     -3.302  0.9564E+00  0.7762E+01
     -3.180  0.1023E+01  0.7886E+01
     -3.059  0.1027E+01  0.8008E+01
     -2.937  0.1028E+01  0.8126E+01
     -2.816  0.1011E+01  0.8246E+01
     -2.694  0.9531E+00  0.8365E+01
     -2.573  0.9365E+00  0.8477E+01
     -2.451  0.1020E+01  0.8596E+01
     -2.330  0.1196E+01  0.8729E+01
     -2.208  0.1400E+01  0.8887E+01
     -2.087  0.1635E+01  0.9071E+01
     -1.965  0.1965E+01  0.9287E+01
     -1.844  0.2435E+01  0.9553E+01
     -1.722  0.2836E+01  0.9879E+01
     -1.601  0.2826E+01  0.1023E+02
     -1.480  0.2264E+01  0.1053E+02
     -1.358  0.1826E+01  0.1078E+02
     -1.237  0.1668E+01  0.1099E+02
     -1.115  0.1565E+01  0.1119E+02
     -0.994  0.1478E+01  0.1137E+02
     -0.872  0.1413E+01  0.1155E+02
     -0.751  0.1369E+01  0.1172E+02
     -0.629  0.1334E+01  0.1188E+02
     -0.508  0.1306E+01  0.1204E+02
     -0.386  0.1244E+01  0.1220E+02
     -0.265  0.1261E+01  0.1235E+02
     -0.143  0.1113E+01  0.1249E+02
     -0.022  0.1094E+01  0.1262E+02
      0.100  0.1082E+01  0.1276E+02
      0.221  0.1076E+01  0.1289E+02
      0.343  0.1021E+01  0.1302E+02
      0.464  0.1079E+01  0.1314E+02
      0.586  0.1384E+01  0.1329E+02
      0.707  0.1657E+01  0.1347E+02
      0.829  0.1920E+01  0.1369E+02
      0.950  0.2350E+01  0.1395E+02
      1.072  0.2240E+01  0.1423E+02
      1.193  0.2104E+01  0.1449E+02
      1.315  0.2192E+01  0.1475E+02
      1.436  0.2245E+01  0.1502E+02
      1.558  0.2117E+01  0.1529E+02
      1.679  0.1734E+01  0.1552E+02
      1.801  0.1416E+01  0.1571E+02
      1.922  0.1639E+01  0.1589E+02
      2.044  0.1942E+01  0.1611E+02
      2.165  0.2180E+01  0.1636E+02
      2.287  0.2377E+01  0.1664E+02
      2.408  0.2354E+01  0.1693E+02
      2.530  0.2309E+01  0.1721E+02
      2.651  0.2316E+01  0.1749E+02
      2.773  0.2405E+01  0.1778E+02
      2.894  0.2674E+01  0.1808E+02
      3.016  0.3077E+01  0.1843E+02
      3.137  0.2933E+01  0.1881E+02
      3.259  0.2467E+01  0.1914E+02
      3.380  0.2432E+01  0.1943E+02
      3.502  0.2592E+01  0.1977E+02
      3.623  0.2828E+01  0.2009E+02
      3.745  0.2985E+01  0.2044E+02
      3.866  0.3626E+01  0.2085E+02
      3.987  0.4153E+01  0.2132E+02
      4.109  0.3363E+01  0.2176E+02
      4.230  0.2944E+01  0.2214E+02
      4.352  0.2587E+01  0.2248E+02
      4.473  0.2693E+01  0.2279E+02
      4.595  0.2974E+01  0.2314E+02
      4.716  0.2786E+01  0.2349E+02
      4.838  0.2909E+01  0.2383E+02
      4.959  0.2943E+01  0.2419E+02
      5.081  0.2950E+01  0.2455E+02
      5.202  0.3011E+01  0.2491E+02
      5.324  0.3107E+01  0.2528E+02
      5.445  0.2994E+01  0.2565E+02
      5.567  0.2622E+01  0.2599E+02
      5.688  0.2353E+01  0.2629E+02
      5.810  0.2499E+01  0.2658E+02
      5.931  0.2445E+01  0.2688E+02
      6.053  0.2765E+01  0.2720E+02
      6.174  0.2873E+01  0.2754E+02
      6.296  0.2762E+01  0.2788E+02
      6.417  0.2679E+01  0.2821E+02
      6.539  0.2613E+01  0.2853E+02
      6.660  0.2441E+01  0.2883E+02
      6.782  0.2296E+01  0.2912E+02
      6.903  0.2796E+01  0.2943E+02
      7.025  0.2027E+01  0.2972E+02
      7.146  0.1782E+01  0.2995E+02
      7.268  0.1624E+01  0.3016E+02
      7.389  0.1468E+01  0.3035E+02
      7.511  0.1357E+01  0.3052E+02
      7.632  0.1281E+01  0.3068E+02
      7.754  0.1203E+01  0.3083E+02
      7.875  0.1096E+01  0.3097E+02
      7.997  0.9834E+00  0.3109E+02
      8.118  0.9045E+00  0.3121E+02
      8.240  0.8566E+00  0.3132E+02
      8.361  0.8155E+00  0.3142E+02
      8.483  0.7364E+00  0.3151E+02
      8.604  0.6655E+00  0.3160E+02
      8.726  0.5898E+00  0.3167E+02
      8.847  0.5437E+00  0.3174E+02
      8.969  0.4937E+00  0.3181E+02
      9.090  0.3804E+00  0.3186E+02
      9.211  0.3734E+00  0.3190E+02
      9.333  0.3750E+00  0.3195E+02
      9.454  0.1681E+00  0.3198E+02
      9.576  0.1468E+00  0.3199E+02
      9.697  0.7177E-04  0.3200E+02
      9.819  0.0000E+00  0.3200E+02
      9.940  0.0000E+00  0.3200E+02
     10.062  0.0000E+00  0.3200E+02
     10.183  0.0000E+00  0.3200E+02
     10.305  0.0000E+00  0.3200E+02
     10.426  0.0000E+00  0.3200E+02
     10.548  0.0000E+00  0.3200E+02
     10.669  0.0000E+00  0.3200E+02
     10.791  0.0000E+00  0.3200E+02
     10.912  0.0000E+00  0.3200E+02
     11.034  0.0000E+00  0.3200E+02
     11.155  0.0000E+00  0.3200E+02
     11.277  0.0000E+00  0.3200E+02
     11.398  0.0000E+00  0.3200E+02
     11.520  0.0000E+00  0.3200E+02
     11.641  0.0000E+00  0.3200E+02
     11.763  0.0000E+00  0.3200E+02
     11.884  0.0000E+00  0.3200E+02
     12.006  0.0000E+00  0.3200E+02
     12.127  0.0000E+00  0.3200E+02
     12.249  0.0000E+00  0.3200E+02
     12.370  0.0000E+00  0.3200E+02
     12.492  0.0000E+00  0.3200E+02
     12.613  0.0000E+00  0.3200E+02
     12.735  0.0000E+00  0.3200E+02
     12.856  0.0000E+00  0.3200E+02
     12.978  0.0000E+00  0.3200E+02
     13.099  0.0000E+00  0.3200E+02
     13.221  0.0000E+00  0.3200E+02
     13.342  0.0000E+00  0.3200E+02
     13.464  0.0000E+00  0.3200E+02
     13.585  0.0000E+00  0.3200E+02
     13.707  0.0000E+00  0.3200E+02
     13.828  0.1615E-01  0.3200E+02
     13.950  0.1510E+00  0.3201E+02
     14.071  0.3857E+00  0.3204E+02
     14.193  0.6139E+00  0.3210E+02
     14.314  0.5756E+00  0.3218E+02
     14.436  0.7000E+00  0.3226E+02
     14.557  0.7716E+00  0.3235E+02
     14.678  0.8963E+00  0.3245E+02
     14.800  0.1174E+01  0.3258E+02
     14.921  0.1293E+01  0.3273E+02
     15.043  0.1652E+01  0.3290E+02
     15.164  0.1506E+01  0.3309E+02
     15.286  0.1532E+01  0.3327E+02
     15.407  0.1580E+01  0.3346E+02
     15.529  0.1670E+01  0.3366E+02
     15.650  0.1809E+01  0.3387E+02
     15.772  0.1990E+01  0.3410E+02
     15.893  0.2206E+01  0.3435E+02
     16.015  0.2317E+01  0.3463E+02
     16.136  0.2098E+01  0.3489E+02
     16.258  0.2098E+01  0.3515E+02
     16.379  0.2107E+01  0.3540E+02
     16.501  0.2200E+01  0.3566E+02
     16.622  0.2357E+01  0.3594E+02
     16.744  0.2515E+01  0.3623E+02
     16.865  0.2709E+01  0.3655E+02
     16.987  0.2816E+01  0.3689E+02
     17.108  0.2921E+01  0.3724E+02
     17.230  0.3073E+01  0.3760E+02
     17.351  0.3159E+01  0.3798E+02
     17.473  0.3448E+01  0.3838E+02
     17.594  0.3859E+01  0.3883E+02
     17.716  0.4050E+01  0.3931E+02
     17.837  0.4374E+01  0.3983E+02
     17.959  0.4668E+01  0.4039E+02
     18.080  0.3050E+01  0.4087E+02
     18.202  0.3422E+01  0.4126E+02
     18.323  0.3582E+01  0.4169E+02
     18.445  0.3511E+01  0.4212E+02
     18.566  0.3940E+01  0.4257E+02
     18.688  0.3662E+01  0.4303E+02
     18.809  0.3670E+01  0.4347E+02
     18.931  0.3458E+01  0.4391E+02
     19.052  0.2914E+01  0.4429E+02
     19.174  0.2713E+01  0.4463E+02
     19.295  0.2624E+01  0.4495E+02
     19.417  0.2607E+01  0.4527E+02
     19.538  0.2732E+01  0.4560E+02
     19.660  0.2787E+01  0.4593E+02
     19.781  0.2847E+01  0.4628E+02
     19.903  0.2774E+01  0.4662E+02
     20.024  0.2585E+01  0.4695E+02
     20.145  0.2298E+01  0.4725E+02
     20.267  0.1841E+01  0.4750E+02
     20.388  0.1323E+01  0.4769E+02
     20.510  0.8563E+00  0.4783E+02
     20.631  0.3917E+00  0.4789E+02
     20.753  0.2664E+00  0.4793E+02
     20.874  0.1939E+00  0.4796E+02
     20.996  0.1219E+00  0.4798E+02
     21.117  0.7200E-01  0.4799E+02
     21.239  0.3684E-01  0.4800E+02
     21.360  0.1589E-01  0.4800E+02
     21.482  0.0000E+00  0.4800E+02
     21.603  0.0000E+00  0.4800E+02
     21.725  0.0000E+00  0.4800E+02
     21.846  0.0000E+00  0.4800E+02
     21.968  0.0000E+00  0.4800E+02
     22.089  0.0000E+00  0.4800E+02
     22.211  0.0000E+00  0.4800E+02
     22.332  0.0000E+00  0.4800E+02
     22.454  0.0000E+00  0.4800E+02
     22.575  0.0000E+00  0.4800E+02
     22.697  0.0000E+00  0.4800E+02
     22.818  0.0000E+00  0.4800E+02
     22.940  0.0000E+00  0.4800E+02
     23.061  0.0000E+00  0.4800E+02
