       N       E                     dE             d eps       ncg     rms          rms(c)
DAV:   1     0.574724019526E+02    0.57472E+02   -0.14351E+04  9072   0.105E+03
DAV:   2    -0.709917931090E+02   -0.12846E+03   -0.12171E+03 12560   0.222E+02
DAV:   3    -0.751741684090E+02   -0.41824E+01   -0.41620E+01 11776   0.374E+01
DAV:   4    -0.752171974546E+02   -0.43029E-01   -0.42989E-01 11400   0.413E+00
DAV:   5    -0.752180442932E+02   -0.84684E-03   -0.84650E-03 11720   0.531E-01    0.944E+00
DAV:   6    -0.733483199407E+02    0.18697E+01   -0.12390E+00 10352   0.633E+00    0.518E+00
DAV:   7    -0.727168487066E+02    0.63147E+00   -0.14014E+00 10544   0.692E+00    0.696E-01
DAV:   8    -0.727242654640E+02   -0.74168E-02   -0.27974E-02 11616   0.974E-01    0.796E-02
DAV:   9    -0.727244808997E+02   -0.21544E-03   -0.43261E-04 10888   0.140E-01    0.285E-02
DAV:  10    -0.727245360264E+02   -0.55127E-04   -0.46837E-05 11544   0.519E-02    0.267E-03
DAV:  11    -0.727245367261E+02   -0.69970E-06   -0.10413E-06  8408   0.722E-03
   1 F= -.72724537E+02 E0= -.72724537E+02  d E =0.000000E+00
