 vasp.5.4.4.18Apr17-6-g9f103f2a35 (build Mar 12 2022 03:36:41) complex          
  
 executed on IFC19.0.3.199_CrayMP date 2022.11.30  12:44:41
 running on   16 total cores
 distrk:  each k-point on   16 cores,    1 groups
 distr:  one band on NCORES_PER_BAND=   4 cores,    4 groups


--------------------------------------------------------------------------------------------------------


 INCAR:
 POTCAR:   PAW_PBE C 08Apr2002                    
 POTCAR:   PAW_PBE C 08Apr2002                    
   VRHFIN =C: s2p2                                                              
   LEXCH  = PE                                                                  
   EATOM  =   147.1560 eV,   10.8157 Ry                                         
                                                                                
   TITEL  = PAW_PBE C 08Apr2002                                                 
   LULTRA =        F    use ultrasoft PP ?                                      
   IUNSCR =        0    unscreen: 0-lin 1-nonlin 2-no                           
   RPACOR =     .000    partial core radius                                     
   POMASS =   12.011; ZVAL   =    4.000    mass and valenz                      
   RCORE  =    1.500    outmost cutoff radius                                   
   RWIGS  =    1.630; RWIGS  =     .863    wigner-seitz radius (au A)           
   ENMAX  =  400.000; ENMIN  =  300.000 eV                                      
   ICORE  =        2    local potential                                         
   LCOR   =        T    correct aug charges                                     
   LPAW   =        T    paw PP                                                  
   EAUG   =  644.873                                                            
   DEXC   =     .000                                                            
   RMAX   =    2.266    core radius for proj-oper                               
   RAUG   =    1.300    factor for augmentation sphere                          
   RDEP   =    1.501    radius for radial grids                                 
   RDEPT  =    1.300    core radius for aug-charge                              
   QCUT   =   -5.516; QGAM   =   11.032    optimization parameters              
                                                                                
   Description                                                                  
     l     E      TYP  RCUT    TYP  RCUT                                        
     0   .000     23  1.200                                                     
     0   .000     23  1.200                                                     
     1   .000     23  1.500                                                     
     1  2.500     23  1.500                                                     
     2   .000      7  1.500                                                     
  local pseudopotential read in
  atomic valenz-charges read in
  non local Contribution for L=           0  read in
    real space projection operators read in
  non local Contribution for L=           0  read in
    real space projection operators read in
  non local Contribution for L=           1  read in
    real space projection operators read in
  non local Contribution for L=           1  read in
    real space projection operators read in
    PAW grid and wavefunctions read in
 
   number of l-projection  operators is LMAX  =           4
   number of lm-projection operators is LMMAX =           8
 
 PAW_PBE C 08Apr2002                    :
 energy of atom  1       EATOM= -147.1560
 kinetic energy error for atom=    0.0288 (will be added to EATOM!!)
 
 
 POSCAR: C8                                      
  positions in direct lattice
  No initial velocities read in
 exchange correlation table for  LEXCH =        8
   RHO(1)=    0.500       N(1)  =     2000
   RHO(2)=  100.500       N(2)  =     4000
 


--------------------------------------------------------------------------------------------------------


 ion  position               nearest neighbor table
   1  0.250  0.750  0.250-   4 1.53   6 1.55   8 1.55   2 1.55
   2  0.000  0.000  0.500-   3 1.53   5 1.55   7 1.55   1 1.55
   3  0.250  0.250  0.750-   2 1.53   6 1.55   8 1.55   4 1.55
   4  0.000  0.500  0.000-   1 1.53   5 1.55   7 1.55   3 1.55
   5  0.750  0.750  0.750-   8 1.53   4 1.55   2 1.55   6 1.55
   6  0.500  0.000  0.000-   7 1.53   3 1.55   1 1.55   5 1.55
   7  0.750  0.250  0.250-   6 1.53   4 1.55   2 1.55   8 1.55
   8  0.500  0.500  0.500-   5 1.53   3 1.55   1 1.55   7 1.55
 
  LATTYP: Found a trigonal (rhomboedric) cell.
 ALAT       =     3.5737096890
 COS(alpha) =    -0.0099999729
  
  Lattice vectors:
  
 A1 = (   3.5737100000,   0.0000000000,   0.0000000000)
 A2 = (  -0.0357370000,   3.5735310000,   0.0000000000)
 A3 = (  -0.0357370000,  -0.0360960000,   3.5733490000)


Analysis of symmetry for initial positions (statically):
=====================================================================
 Subroutine PRICEL returns following result:
 
  LATTYP: Found a trigonal (rhomboedric) cell.
 ALAT       =     2.5143278420
 COS(alpha) =     0.4898990521
  
  Lattice vectors:
  
 A1 = (  -0.0357370000,   1.7687175000,   1.7866745000)
 A2 = (   1.7689865000,  -0.0180480000,   1.7866745000)
 A3 = (   1.7689865000,   1.7867655000,  -0.0000000000)
 
   4 primitive cells build up your supercell.
 

 Routine SETGRP: Setting up the symmetry group for a 
 trigonal (rhombohedral) supercell.


 Subroutine GETGRP returns: Found 12 space group operations
 (whereof  6 operations were pure point group operations)
 out of a pool of 12 trial point group operations.


The static configuration has the point symmetry C_3v.
 The point group associated with its full space group is D_3d.


Analysis of symmetry for dynamics (positions and initial velocities):
=====================================================================
 Subroutine PRICEL returns following result:
 
  LATTYP: Found a trigonal (rhomboedric) cell.
 ALAT       =     2.5143278420
 COS(alpha) =     0.4898990521
  
  Lattice vectors:
  
 A1 = (  -0.0357370000,   1.7687175000,   1.7866745000)
 A2 = (   1.7689865000,  -0.0180480000,   1.7866745000)
 A3 = (   1.7689865000,   1.7867655000,  -0.0000000000)
 
   4 primitive cells build up your supercell.
 

 Routine SETGRP: Setting up the symmetry group for a 
 trigonal (rhombohedral) supercell.


 Subroutine GETGRP returns: Found 12 space group operations
 (whereof  6 operations were pure point group operations)
 out of a pool of 12 trial point group operations.


The dynamic configuration has the point symmetry C_3v.
 The point group associated with its full space group is D_3d.


 Subroutine INISYM returns: Found 12 space group operations
 (whereof  6 operations are pure point group operations),
 and found     4 'primitive' translations

 
 
 KPOINTS: kpt_density=1000                        

Automatic generation of k-mesh.
Space group operators:
 irot       det(A)        alpha          n_x          n_y          n_z        tau_x        tau_y        tau_z
    1     1.000000     0.000000     1.000000     0.000000     0.000000     0.000000     0.000000     0.000000
    2    -1.000000   180.000000     0.000000    -0.710669     0.703526     0.000000     0.000000     0.000000
    3     1.000000   120.000000    -0.571548    -0.577292    -0.583153     0.000000     0.000000     0.000000
    4    -1.000000   180.000000    -0.710633     0.703562    -0.000000     0.000000     0.000000     0.000000
    5     1.000000   120.000000     0.571548     0.577292     0.583153     0.000000     0.000000     0.000000
    6    -1.000000   180.000000     0.710634     0.007107    -0.703526     0.000000     0.000000     0.000000
    7    -1.000000     0.000000     1.000000     0.000000     0.000000     0.250000     0.250000     0.250000
    8     1.000000   180.000000     0.000000    -0.710669     0.703526     0.250000     0.250000     0.250000
    9    -1.000000   120.000000    -0.571548    -0.577292    -0.583153     0.250000     0.250000     0.250000
   10     1.000000   180.000000    -0.710633     0.703562    -0.000000     0.250000     0.250000     0.250000
   11    -1.000000   120.000000     0.571548     0.577292     0.583153     0.250000     0.250000     0.250000
   12     1.000000   180.000000     0.710634     0.007107    -0.703526     0.250000     0.250000     0.250000
 
 Subroutine IBZKPT returns following result:
 ===========================================
 
 Found    189 irreducible k-points:
 
 Following reciprocal coordinates:
            Coordinates               Weight
  0.000000  0.000000  0.000000      1.000000
  0.083333 -0.000000  0.000000      6.000000
  0.166667 -0.000000  0.000000      6.000000
  0.250000 -0.000000  0.000000      6.000000
  0.333333 -0.000000  0.000000      6.000000
  0.416667 -0.000000  0.000000      6.000000
  0.500000 -0.000000  0.000000      3.000000
  0.083333  0.083333  0.000000      6.000000
  0.166667  0.083333  0.000000     12.000000
  0.250000  0.083333  0.000000     12.000000
  0.333333  0.083333  0.000000     12.000000
  0.416667  0.083333 -0.000000     12.000000
  0.500000  0.083333  0.000000     12.000000
 -0.416667  0.083333  0.000000     12.000000
 -0.333333  0.083333 -0.000000     12.000000
 -0.250000  0.083333  0.000000     12.000000
 -0.166667  0.083333 -0.000000     12.000000
 -0.083333  0.083333 -0.000000      6.000000
  0.166667  0.166667  0.000000      6.000000
  0.250000  0.166667  0.000000     12.000000
  0.333333  0.166667  0.000000     12.000000
  0.416667  0.166667  0.000000     12.000000
  0.500000  0.166667  0.000000     12.000000
 -0.416667  0.166667 -0.000000     12.000000
 -0.333333  0.166667 -0.000000     12.000000
 -0.250000  0.166667  0.000000     12.000000
 -0.166667  0.166667 -0.000000      6.000000
  0.250000  0.250000  0.000000      6.000000
  0.333333  0.250000  0.000000     12.000000
  0.416667  0.250000  0.000000     12.000000
  0.500000  0.250000  0.000000     12.000000
 -0.416667  0.250000  0.000000     12.000000
 -0.333333  0.250000 -0.000000     12.000000
 -0.250000  0.250000  0.000000      6.000000
  0.333333  0.333333  0.000000      6.000000
  0.416667  0.333333  0.000000     12.000000
  0.500000  0.333333  0.000000     12.000000
 -0.416667  0.333333 -0.000000     12.000000
 -0.333333  0.333333  0.000000      6.000000
  0.416667  0.416667  0.000000      6.000000
  0.500000  0.416667  0.000000     12.000000
 -0.416667  0.416667  0.000000      6.000000
  0.500000  0.500000  0.000000      3.000000
  0.083333  0.083333  0.083333      2.000000
  0.166667  0.083333  0.083333      6.000000
  0.250000  0.083333  0.083333      6.000000
  0.333333  0.083333  0.083333      6.000000
  0.416667  0.083333  0.083333      6.000000
  0.500000  0.083333  0.083333      6.000000
 -0.416667  0.083333  0.083333      6.000000
 -0.333333  0.083333  0.083333      6.000000
 -0.250000  0.083333  0.083333      6.000000
 -0.166667  0.083333  0.083333      6.000000
 -0.083333  0.083333  0.083333      6.000000
  0.166667  0.166667  0.083333      6.000000
  0.250000  0.166667  0.083333     12.000000
  0.333333  0.166667  0.083333     12.000000
  0.416667  0.166667  0.083333     12.000000
  0.500000  0.166667  0.083333     12.000000
 -0.416667  0.166667  0.083333     12.000000
 -0.333333  0.166667  0.083333     12.000000
 -0.250000  0.166667  0.083333     12.000000
 -0.166667  0.166667  0.083333     12.000000
 -0.083333  0.166667  0.083333     12.000000
  0.250000  0.250000  0.083333      6.000000
  0.333333  0.250000  0.083333     12.000000
  0.416667  0.250000  0.083333     12.000000
  0.500000  0.250000  0.083333     12.000000
 -0.416667  0.250000  0.083333     12.000000
 -0.333333  0.250000  0.083333     12.000000
 -0.250000  0.250000  0.083333     12.000000
 -0.166667  0.250000  0.083333     12.000000
 -0.083333  0.250000  0.083333     12.000000
  0.333333  0.333333  0.083333      6.000000
  0.416667  0.333333  0.083333     12.000000
  0.500000  0.333333  0.083333     12.000000
 -0.416667  0.333333  0.083333     12.000000
 -0.333333  0.333333  0.083333     12.000000
 -0.250000  0.333333  0.083333     12.000000
 -0.166667  0.333333  0.083333     12.000000
 -0.083333  0.333333  0.083333     12.000000
  0.416667  0.416667  0.083333      6.000000
  0.500000  0.416667  0.083333     12.000000
 -0.416667  0.416667  0.083333     12.000000
 -0.333333  0.416667  0.083333     12.000000
 -0.250000  0.416667  0.083333     12.000000
 -0.166667  0.416667  0.083333     12.000000
 -0.083333  0.416667  0.083333     12.000000
  0.500000  0.500000  0.083333      6.000000
 -0.416667  0.500000  0.083333     12.000000
 -0.333333  0.500000  0.083333     12.000000
 -0.250000  0.500000  0.083333     12.000000
 -0.166667  0.500000  0.083333     12.000000
 -0.083333  0.500000  0.083333      6.000000
 -0.416667 -0.416667  0.083333      6.000000
 -0.333333 -0.416667  0.083333     12.000000
 -0.250000 -0.416667  0.083333     12.000000
 -0.166667 -0.416667  0.083333     12.000000
 -0.333333 -0.333333  0.083333      6.000000
 -0.250000 -0.333333  0.083333     12.000000
 -0.166667 -0.333333  0.083333     12.000000
 -0.250000 -0.250000  0.083333      6.000000
 -0.166667 -0.250000  0.083333     12.000000
 -0.166667 -0.166667  0.083333      6.000000
  0.166667  0.166667  0.166667      2.000000
  0.250000  0.166667  0.166667      6.000000
  0.333333  0.166667  0.166667      6.000000
  0.416667  0.166667  0.166667      6.000000
  0.500000  0.166667  0.166667      6.000000
 -0.416667  0.166667  0.166667      6.000000
 -0.333333  0.166667  0.166667      6.000000
 -0.250000  0.166667  0.166667      6.000000
 -0.166667  0.166667  0.166667      6.000000
  0.250000  0.250000  0.166667      6.000000
  0.333333  0.250000  0.166667     12.000000
  0.416667  0.250000  0.166667     12.000000
  0.500000  0.250000  0.166667     12.000000
 -0.416667  0.250000  0.166667     12.000000
 -0.333333  0.250000  0.166667     12.000000
 -0.250000  0.250000  0.166667     12.000000
 -0.166667  0.250000  0.166667     12.000000
  0.333333  0.333333  0.166667      6.000000
  0.416667  0.333333  0.166667     12.000000
  0.500000  0.333333  0.166667     12.000000
 -0.416667  0.333333  0.166667     12.000000
 -0.333333  0.333333  0.166667     12.000000
 -0.250000  0.333333  0.166667     12.000000
 -0.166667  0.333333  0.166667     12.000000
  0.416667  0.416667  0.166667      6.000000
  0.500000  0.416667  0.166667     12.000000
 -0.416667  0.416667  0.166667     12.000000
 -0.333333  0.416667  0.166667     12.000000
 -0.250000  0.416667  0.166667     12.000000
 -0.166667  0.416667  0.166667     12.000000
  0.500000  0.500000  0.166667      6.000000
 -0.416667  0.500000  0.166667     12.000000
 -0.333333  0.500000  0.166667     12.000000
 -0.250000  0.500000  0.166667     12.000000
 -0.166667  0.500000  0.166667      6.000000
 -0.416667 -0.416667  0.166667      6.000000
 -0.333333 -0.416667  0.166667     12.000000
 -0.250000 -0.416667  0.166667     12.000000
 -0.333333 -0.333333  0.166667      6.000000
 -0.250000 -0.333333  0.166667     12.000000
 -0.250000 -0.250000  0.166667      6.000000
  0.250000  0.250000  0.250000      2.000000
  0.333333  0.250000  0.250000      6.000000
  0.416667  0.250000  0.250000      6.000000
  0.500000  0.250000  0.250000      6.000000
 -0.416667  0.250000  0.250000      6.000000
 -0.333333  0.250000  0.250000      6.000000
 -0.250000  0.250000  0.250000      6.000000
  0.333333  0.333333  0.250000      6.000000
  0.416667  0.333333  0.250000     12.000000
  0.500000  0.333333  0.250000     12.000000
 -0.416667  0.333333  0.250000     12.000000
 -0.333333  0.333333  0.250000     12.000000
 -0.250000  0.333333  0.250000     12.000000
  0.416667  0.416667  0.250000      6.000000
  0.500000  0.416667  0.250000     12.000000
 -0.416667  0.416667  0.250000     12.000000
 -0.333333  0.416667  0.250000     12.000000
 -0.250000  0.416667  0.250000     12.000000
  0.500000  0.500000  0.250000      6.000000
 -0.416667  0.500000  0.250000     12.000000
 -0.333333  0.500000  0.250000     12.000000
 -0.250000  0.500000  0.250000      6.000000
 -0.416667 -0.416667  0.250000      6.000000
 -0.333333 -0.416667  0.250000     12.000000
 -0.333333 -0.333333  0.250000      6.000000
  0.333333  0.333333  0.333333      2.000000
  0.416667  0.333333  0.333333      6.000000
  0.500000  0.333333  0.333333      6.000000
 -0.416667  0.333333  0.333333      6.000000
 -0.333333  0.333333  0.333333      6.000000
  0.416667  0.416667  0.333333      6.000000
  0.500000  0.416667  0.333333     12.000000
 -0.416667  0.416667  0.333333     12.000000
 -0.333333  0.416667  0.333333     12.000000
  0.500000  0.500000  0.333333      6.000000
 -0.416667  0.500000  0.333333     12.000000
 -0.333333  0.500000  0.333333      6.000000
 -0.416667 -0.416667  0.333333      6.000000
  0.416667  0.416667  0.416667      2.000000
  0.500000  0.416667  0.416667      6.000000
 -0.416667  0.416667  0.416667      6.000000
  0.500000  0.500000  0.416667      6.000000
 -0.416667  0.500000  0.416667      6.000000
  0.500000  0.500000  0.500000      1.000000
 
 Following cartesian coordinates:
            Coordinates               Weight
  0.000000  0.000000  0.000000      1.000000
  0.023318  0.000233  0.000236      6.000000
  0.046637  0.000466  0.000471      6.000000
  0.069955  0.000700  0.000707      6.000000
  0.093274  0.000933  0.000942      6.000000
  0.116592  0.001166  0.001178      6.000000
  0.139911  0.001399  0.001413      3.000000
  0.023318  0.023553  0.000471      6.000000
  0.046637  0.023786  0.000707     12.000000
  0.069955  0.024019  0.000942     12.000000
  0.093274  0.024252  0.001178     12.000000
  0.116592  0.024486  0.001413     12.000000
  0.139911  0.024719  0.001649     12.000000
 -0.116592  0.022154 -0.000942     12.000000
 -0.093274  0.022387 -0.000707     12.000000
 -0.069955  0.022620 -0.000471     12.000000
 -0.046637  0.022853 -0.000236     12.000000
 -0.023318  0.023086 -0.000000      6.000000
  0.046637  0.047106  0.000942      6.000000
  0.069955  0.047339  0.001178     12.000000
  0.093274  0.047572  0.001413     12.000000
  0.116592  0.047805  0.001649     12.000000
  0.139911  0.048038  0.001885     12.000000
 -0.116592  0.045473 -0.000707     12.000000
 -0.093274  0.045706 -0.000471     12.000000
 -0.069955  0.045940 -0.000236     12.000000
 -0.046637  0.046173 -0.000000      6.000000
  0.069955  0.070658  0.001413      6.000000
  0.093274  0.070892  0.001649     12.000000
  0.116592  0.071125  0.001884     12.000000
  0.139911  0.071358  0.002120     12.000000
 -0.116592  0.068793 -0.000471     12.000000
 -0.093274  0.069026 -0.000236     12.000000
 -0.069955  0.069259 -0.000000      6.000000
  0.093274  0.094211  0.001884      6.000000
  0.116592  0.094444  0.002120     12.000000
  0.139911  0.094678  0.002356     12.000000
 -0.116592  0.092112 -0.000236     12.000000
 -0.093274  0.092346 -0.000000      6.000000
  0.116592  0.117764  0.002356      6.000000
  0.139911  0.117997  0.002591     12.000000
 -0.116592  0.115432 -0.000000      6.000000
  0.139911  0.141317  0.002827      3.000000
  0.023318  0.023553  0.023792      2.000000
  0.046637  0.023786  0.024027      6.000000
  0.069955  0.024019  0.024263      6.000000
  0.093274  0.024252  0.024499      6.000000
  0.116592  0.024486  0.024734      6.000000
  0.139911  0.024719  0.024970      6.000000
 -0.116592  0.022154  0.022379      6.000000
 -0.093274  0.022387  0.022614      6.000000
 -0.069955  0.022620  0.022850      6.000000
 -0.046637  0.022853  0.023085      6.000000
 -0.023318  0.023086  0.023321      6.000000
  0.046637  0.047106  0.024263      6.000000
  0.069955  0.047339  0.024499     12.000000
  0.093274  0.047572  0.024734     12.000000
  0.116592  0.047805  0.024970     12.000000
  0.139911  0.048038  0.025205     12.000000
 -0.116592  0.045473  0.022614     12.000000
 -0.093274  0.045706  0.022850     12.000000
 -0.069955  0.045940  0.023085     12.000000
 -0.046637  0.046173  0.023321     12.000000
 -0.023318  0.046406  0.023556     12.000000
  0.069955  0.070658  0.024734      6.000000
  0.093274  0.070892  0.024970     12.000000
  0.116592  0.071125  0.025205     12.000000
  0.139911  0.071358  0.025441     12.000000
 -0.116592  0.068793  0.022850     12.000000
 -0.093274  0.069026  0.023085     12.000000
 -0.069955  0.069259  0.023321     12.000000
 -0.046637  0.069492  0.023556     12.000000
 -0.023318  0.069726  0.023792     12.000000
  0.093274  0.094211  0.025205      6.000000
  0.116592  0.094444  0.025441     12.000000
  0.139911  0.094678  0.025676     12.000000
 -0.116592  0.092112  0.023085     12.000000
 -0.093274  0.092346  0.023321     12.000000
 -0.069955  0.092579  0.023556     12.000000
 -0.046637  0.092812  0.023792     12.000000
 -0.023318  0.093045  0.024027     12.000000
  0.116592  0.117764  0.025676      6.000000
  0.139911  0.117997  0.025912     12.000000
 -0.116592  0.115432  0.023321     12.000000
 -0.093274  0.115665  0.023556     12.000000
 -0.069955  0.115898  0.023792     12.000000
 -0.046637  0.116132  0.024027     12.000000
 -0.023318  0.116365  0.024263     12.000000
  0.139911  0.141317  0.026148      6.000000
 -0.116592  0.138752  0.023556     12.000000
 -0.093274  0.138985  0.023792     12.000000
 -0.069955  0.139218  0.024027     12.000000
 -0.046637  0.139451  0.024263     12.000000
 -0.023318  0.139684  0.024499      6.000000
 -0.116592 -0.117764  0.020965      6.000000
 -0.093274 -0.117531  0.021201     12.000000
 -0.069955 -0.117298  0.021436     12.000000
 -0.046637 -0.117064  0.021672     12.000000
 -0.093274 -0.094211  0.021436      6.000000
 -0.069955 -0.093978  0.021672     12.000000
 -0.046637 -0.093745  0.021907     12.000000
 -0.069955 -0.070658  0.021907      6.000000
 -0.046637 -0.070425  0.022143     12.000000
 -0.046637 -0.047106  0.022379      6.000000
  0.046637  0.047106  0.047584      2.000000
  0.069955  0.047339  0.047819      6.000000
  0.093274  0.047572  0.048055      6.000000
  0.116592  0.047805  0.048291      6.000000
  0.139911  0.048038  0.048526      6.000000
 -0.116592  0.045473  0.045935      6.000000
 -0.093274  0.045706  0.046170      6.000000
 -0.069955  0.045940  0.046406      6.000000
 -0.046637  0.046173  0.046642      6.000000
  0.069955  0.070658  0.048055      6.000000
  0.093274  0.070892  0.048291     12.000000
  0.116592  0.071125  0.048526     12.000000
  0.139911  0.071358  0.048762     12.000000
 -0.116592  0.068793  0.046170     12.000000
 -0.093274  0.069026  0.046406     12.000000
 -0.069955  0.069259  0.046642     12.000000
 -0.046637  0.069492  0.046877     12.000000
  0.093274  0.094211  0.048526      6.000000
  0.116592  0.094444  0.048762     12.000000
  0.139911  0.094678  0.048997     12.000000
 -0.116592  0.092112  0.046406     12.000000
 -0.093274  0.092346  0.046642     12.000000
 -0.069955  0.092579  0.046877     12.000000
 -0.046637  0.092812  0.047113     12.000000
  0.116592  0.117764  0.048997      6.000000
  0.139911  0.117997  0.049233     12.000000
 -0.116592  0.115432  0.046642     12.000000
 -0.093274  0.115665  0.046877     12.000000
 -0.069955  0.115898  0.047113     12.000000
 -0.046637  0.116132  0.047348     12.000000
  0.139911  0.141317  0.049468      6.000000
 -0.116592  0.138752  0.046877     12.000000
 -0.093274  0.138985  0.047113     12.000000
 -0.069955  0.139218  0.047348     12.000000
 -0.046637  0.139451  0.047584      6.000000
 -0.116592 -0.117764  0.044286      6.000000
 -0.093274 -0.117531  0.044522     12.000000
 -0.069955 -0.117298  0.044757     12.000000
 -0.093274 -0.094211  0.044757      6.000000
 -0.069955 -0.093978  0.044993     12.000000
 -0.069955 -0.070658  0.045228      6.000000
  0.069955  0.070658  0.071376      2.000000
  0.093274  0.070892  0.071611      6.000000
  0.116592  0.071125  0.071847      6.000000
  0.139911  0.071358  0.072082      6.000000
 -0.116592  0.068793  0.069491      6.000000
 -0.093274  0.069026  0.069727      6.000000
 -0.069955  0.069259  0.069962      6.000000
  0.093274  0.094211  0.071847      6.000000
  0.116592  0.094444  0.072082     12.000000
  0.139911  0.094678  0.072318     12.000000
 -0.116592  0.092112  0.069727     12.000000
 -0.093274  0.092346  0.069962     12.000000
 -0.069955  0.092579  0.070198     12.000000
  0.116592  0.117764  0.072318      6.000000
  0.139911  0.117997  0.072554     12.000000
 -0.116592  0.115432  0.069962     12.000000
 -0.093274  0.115665  0.070198     12.000000
 -0.069955  0.115898  0.070434     12.000000
  0.139911  0.141317  0.072789      6.000000
 -0.116592  0.138752  0.070198     12.000000
 -0.093274  0.138985  0.070433     12.000000
 -0.069955  0.139218  0.070669      6.000000
 -0.116592 -0.117764  0.067607      6.000000
 -0.093274 -0.117531  0.067842     12.000000
 -0.093274 -0.094211  0.068078      6.000000
  0.093274  0.094211  0.095168      2.000000
  0.116592  0.094444  0.095403      6.000000
  0.139911  0.094678  0.095639      6.000000
 -0.116592  0.092112  0.093048      6.000000
 -0.093274  0.092346  0.093283      6.000000
  0.116592  0.117764  0.095639      6.000000
  0.139911  0.117997  0.095874     12.000000
 -0.116592  0.115432  0.093283     12.000000
 -0.093274  0.115665  0.093519     12.000000
  0.139911  0.141317  0.096110      6.000000
 -0.116592  0.138752  0.093519     12.000000
 -0.093274  0.138985  0.093754      6.000000
 -0.116592 -0.117764  0.090928      6.000000
  0.116592  0.117764  0.118960      2.000000
  0.139911  0.117997  0.119195      6.000000
 -0.116592  0.115432  0.116604      6.000000
  0.139911  0.141317  0.119431      6.000000
 -0.116592  0.138752  0.116840      6.000000
  0.139911  0.141317  0.142752      1.000000
 
 TETIRR: Found   2550 inequivalent tetrahedra from    10368


--------------------------------------------------------------------------------------------------------




 Dimension of arrays:
   k-points           NKPTS =    189   k-points in BZ     NKDIM =    189   number of bands    NBANDS=     24
   number of dos      NEDOS =    301   number of ions     NIONS =      8
   non local maximal  LDIM  =      4   non local SUM 2l+1 LMDIM =      8
   total plane-waves  NPLWV =  13824
   max r-space proj   IRMAX =      1   max aug-charges    IRDMAX=   3774
   dimension x,y,z NGX =    24 NGY =   24 NGZ =   24
   dimension x,y,z NGXF=    48 NGYF=   48 NGZF=   48
   support grid    NGXF=    48 NGYF=   48 NGZF=   48
   ions per type =               8
   NGX,Y,Z   is equivalent  to a cutoff of  11.16, 11.16, 11.16 a.u.
   NGXF,Y,Z  is equivalent  to a cutoff of  22.33, 22.33, 22.33 a.u.

 SYSTEM =  unknown system                          
 POSCAR =  C8                                      

 Startparameter for this run:
   NWRITE =      2    write-flag & timer
   PREC   = accura    normal or accurate (medium, high low for compatibility)
   ISTART =      0    job   : 0-new  1-cont  2-samecut
   ICHARG =      2    charge: 1-file 2-atom 10-const
   ISPIN  =      1    spin polarized calculation?
   LNONCOLLINEAR =      F non collinear calculations
   LSORBIT =      F    spin-orbit coupling
   INIWAV =      1    electr: 0-lowe 1-rand  2-diag
   LASPH  =      F    aspherical Exc in radial PAW
   METAGGA=      F    non-selfconsistent MetaGGA calc.

 Electronic Relaxation 1
   ENCUT  =  400.0 eV  29.40 Ry    5.42 a.u.   5.83  5.83  5.83*2*pi/ulx,y,z
   ENINI  =  400.0     initial cutoff
   ENAUG  =  644.9 eV  augmentation charge cutoff
   NELM   =     60;   NELMIN=  2; NELMDL= -5     # of ELM steps 
   EDIFF  = 0.1E-05   stopping-criterion for ELM
   LREAL  =      F    real-space projection
   NLSPLINE    = F    spline interpolate recip. space projectors
   LCOMPAT=      F    compatible to vasp.4.4
   GGA_COMPAT  = T    GGA compatible to vasp.4.4-vasp.4.6
   LMAXPAW     = -100 max onsite density
   LMAXMIX     =    2 max onsite mixed and CHGCAR
   VOSKOWN=      0    Vosko Wilk Nusair interpolation
   ROPT   =    0.00000
 Ionic relaxation
   EDIFFG = 0.1E-04   stopping-criterion for IOM
   NSW    =      0    number of steps for IOM
   NBLOCK =      1;   KBLOCK =      1    inner block; outer block 
   IBRION =     -1    ionic relax: 0-MD 1-quasi-New 2-CG
   NFREE  =      0    steps in history (QN), initial steepest desc. (CG)
   ISIF   =      2    stress and relaxation
   IWAVPR =     10    prediction:  0-non 1-charg 2-wave 3-comb
   ISYM   =      2    0-nonsym 1-usesym 2-fastsym
   LCORR  =      T    Harris-Foulkes like correction to forces

   POTIM  = 0.0200    time-step for ionic-motion
   TEIN   =    0.0    initial temperature
   TEBEG  =    0.0;   TEEND  =   0.0 temperature during run
   SMASS  =  -3.00    Nose mass-parameter (am)
   estimated Nose-frequenzy (Omega)   =  0.10E-29 period in steps =****** mass=  -0.292E-27a.u.
   SCALEE = 1.0000    scale energy and forces
   NPACO  =    256;   APACO  = 16.0  distance and # of slots for P.C.
   PSTRESS=    0.0 pullay stress

  Mass of Ions in am
   POMASS =  12.01
  Ionic Valenz
   ZVAL   =   4.00
  Atomic Wigner-Seitz radii
   RWIGS  =  -1.00
  virtual crystal weights 
   VCA    =   1.00
   NELECT =      32.0000    total number of electrons
   NUPDOWN=      -1.0000    fix difference up-down

 DOS related values:
   EMIN   =  10.00;   EMAX   =-10.00  energy-range for DOS
   EFERMI =   0.00
   ISMEAR =    -5;   SIGMA  =   0.06  broadening in eV -4-tet -1-fermi 0-gaus

 Electronic relaxation 2 (details)
   IALGO  =     38    algorithm
   LDIAG  =      T    sub-space diagonalisation (order eigenvalues)
   LSUBROT=      F    optimize rotation matrix (better conditioning)
   TURBO    =      0    0=normal 1=particle mesh
   IRESTART =      0    0=no restart 2=restart with 2 vectors
   NREBOOT  =      0    no. of reboots
   NMIN     =      0    reboot dimension
   EREF     =   0.00    reference energy to select bands
   IMIX   =      4    mixing-type and parameters
     AMIX     =   0.40;   BMIX     =  1.00
     AMIX_MAG =   1.60;   BMIX_MAG =  1.00
     AMIN     =   0.10
     WC   =   100.;   INIMIX=   1;  MIXPRE=   1;  MAXMIX= -45

 Intra band minimization:
   WEIMIN = 0.0000     energy-eigenvalue tresh-hold
   EBREAK =  0.10E-07  absolut break condition
   DEPER  =   0.30     relativ break condition  

   TIME   =   0.40     timestep for ELM

  volume/ion in A,a.u.               =       5.70        38.49
  Fermi-wavevector in a.u.,A,eV,Ry     =   1.454434  2.748482 28.781474  2.115379
  Thomas-Fermi vector in A             =   2.571585
 
 Write flags
   LWAVE        =      F    write WAVECAR
   LDOWNSAMPLE  =      F    k-point downsampling of WAVECAR
   LCHARG       =      F    write CHGCAR
   LVTOT        =      F    write LOCPOT, total local potential
   LVHAR        =      F    write LOCPOT, Hartree potential only
   LELF         =      F    write electronic localiz. function (ELF)
   LORBIT       =      0    0 simple, 1 ext, 2 COOP (PROOUT), +10 PAW based schemes


 Dipole corrections
   LMONO  =      F    monopole corrections only (constant potential shift)
   LDIPOL =      F    correct potential (dipole corrections)
   IDIPOL =      0    1-x, 2-y, 3-z, 4-all directions 
   EPSILON=  1.0000000 bulk dielectric constant

 Exchange correlation treatment:
   GGA     =    --    GGA type
   LEXCH   =     8    internal setting for exchange type
   VOSKOWN=      0    Vosko Wilk Nusair interpolation
   LHFCALC =     F    Hartree Fock is set to
   LHFONE  =     F    Hartree Fock one center treatment
   AEXX    =    0.0000 exact exchange contribution

 Linear response parameters
   LEPSILON=     F    determine dielectric tensor
   LRPA    =     F    only Hartree local field effects (RPA)
   LNABLA  =     F    use nabla operator in PAW spheres
   LVEL    =     F    velocity operator in full k-point grid
   LINTERFAST=   F  fast interpolation
   KINTER  =     0    interpolate to denser k-point grid
   CSHIFT  =0.1000    complex shift for real part using Kramers Kronig
   OMEGAMAX=  -1.0    maximum frequency
   DEG_THRESHOLD= 0.2000000E-02 threshold for treating states as degnerate
   RTIME   =   -0.100 relaxation time in fs
  (WPLASMAI=    0.000 imaginary part of plasma frequency in eV, 0.658/RTIME)
   DFIELD  = 0.0000000 0.0000000 0.0000000 field for delta impulse in time
 
 Orbital magnetization related:
   ORBITALMAG=     F  switch on orbital magnetization
   LCHIMAG   =     F  perturbation theory with respect to B field
   DQ        =  0.001000  dq finite difference perturbation B field
   LLRAUG    =     F  two centre corrections for induced B field



--------------------------------------------------------------------------------------------------------


 Static calculation
 charge density and potential will be updated during run
 non-spin polarized calculation
 Variant of blocked Davidson
 Davidson routine will perform the subspace rotation
 perform sub-space diagonalisation
    after iterative eigenvector-optimisation
 modified Broyden-mixing scheme, WC =      100.0
 initial mixing is a Kerker type mixing with AMIX =  0.4000 and BMIX =      1.0000
 Hartree-type preconditioning will be used
 using additional bands            8
 reciprocal scheme for non local part
 calculate Harris-corrections to forces 
   (improved forces if not selfconsistent)
 use gradient corrections 
 use of overlap-Matrix (Vanderbilt PP)
 Fermi weights with tetrahedron method with Bloechl corrections


--------------------------------------------------------------------------------------------------------


  energy-cutoff  :      400.00
  volume of cell :       45.63
      direct lattice vectors                 reciprocal lattice vectors
     3.573710000  0.000000000  0.000000000     0.279821250  0.002798345  0.002826755
    -0.035737000  3.573531000  0.000000000     0.000000000  0.279835267  0.002826741
    -0.035737000 -0.036096000  3.573349000     0.000000000  0.000000000  0.279849519

  length of vectors
     3.573710000  3.573709689  3.573709995     0.279849519  0.279849543  0.279849519


 
 k-points in units of 2pi/SCALE and weight: kpt_density=1000                        
   0.00000000  0.00000000  0.00000000       0.001
   0.02331844  0.00023320  0.00023556       0.003
   0.04663688  0.00046639  0.00047113       0.003
   0.06995531  0.00069959  0.00070669       0.003
   0.09327375  0.00093278  0.00094225       0.003
   0.11659219  0.00116598  0.00117781       0.003
   0.13991063  0.00139917  0.00141338       0.002
   0.02331844  0.02355280  0.00047112       0.003
   0.04663688  0.02378600  0.00070669       0.007
   0.06995531  0.02401919  0.00094225       0.007
   0.09327375  0.02425239  0.00117781       0.007
   0.11659219  0.02448558  0.00141338       0.007
   0.13991063  0.02471878  0.00164894       0.007
  -0.11659219  0.02215363 -0.00094225       0.007
  -0.09327375  0.02238682 -0.00070669       0.007
  -0.06995531  0.02262002 -0.00047113       0.007
  -0.04663688  0.02285321 -0.00023556       0.007
  -0.02331844  0.02308641 -0.00000000       0.003
   0.04663688  0.04710560  0.00094225       0.003
   0.06995531  0.04733880  0.00117781       0.007
   0.09327375  0.04757199  0.00141338       0.007
   0.11659219  0.04780519  0.00164894       0.007
   0.13991063  0.04803838  0.00188450       0.007
  -0.11659219  0.04547323 -0.00070669       0.007
  -0.09327375  0.04570643 -0.00047113       0.007
  -0.06995531  0.04593962 -0.00023557       0.007
  -0.04663688  0.04617282 -0.00000000       0.003
   0.06995531  0.07065840  0.00141337       0.003
   0.09327375  0.07089160  0.00164894       0.007
   0.11659219  0.07112479  0.00188450       0.007
   0.13991063  0.07135799  0.00212006       0.007
  -0.11659219  0.06879284 -0.00047113       0.007
  -0.09327375  0.06902604 -0.00023557       0.007
  -0.06995531  0.06925923 -0.00000000       0.003
   0.09327375  0.09421120  0.00188450       0.003
   0.11659219  0.09444440  0.00212006       0.007
   0.13991063  0.09467759  0.00235562       0.007
  -0.11659219  0.09211245 -0.00023557       0.007
  -0.09327375  0.09234564 -0.00000000       0.003
   0.11659219  0.11776400  0.00235562       0.003
   0.13991063  0.11799720  0.00259119       0.007
  -0.11659219  0.11543205 -0.00000001       0.003
   0.13991063  0.14131681  0.00282675       0.002
   0.02331844  0.02355280  0.02379192       0.001
   0.04663688  0.02378600  0.02402748       0.003
   0.06995531  0.02401919  0.02426304       0.003
   0.09327375  0.02425239  0.02449861       0.003
   0.11659219  0.02448558  0.02473417       0.003
   0.13991063  0.02471878  0.02496973       0.003
  -0.11659219  0.02215363  0.02237854       0.003
  -0.09327375  0.02238682  0.02261410       0.003
  -0.06995531  0.02262002  0.02284967       0.003
  -0.04663688  0.02285321  0.02308523       0.003
  -0.02331844  0.02308641  0.02332079       0.003
   0.04663688  0.04710560  0.02426304       0.003
   0.06995531  0.04733880  0.02449861       0.007
   0.09327375  0.04757199  0.02473417       0.007
   0.11659219  0.04780519  0.02496973       0.007
   0.13991063  0.04803838  0.02520529       0.007
  -0.11659219  0.04547323  0.02261410       0.007
  -0.09327375  0.04570643  0.02284967       0.007
  -0.06995531  0.04593962  0.02308523       0.007
  -0.04663688  0.04617282  0.02332079       0.007
  -0.02331844  0.04640602  0.02355635       0.007
   0.06995531  0.07065840  0.02473417       0.003
   0.09327375  0.07089160  0.02496973       0.007
   0.11659219  0.07112479  0.02520529       0.007
   0.13991063  0.07135799  0.02544086       0.007
  -0.11659219  0.06879284  0.02284966       0.007
  -0.09327375  0.06902604  0.02308523       0.007
  -0.06995531  0.06925923  0.02332079       0.007
  -0.04663688  0.06949243  0.02355635       0.007
  -0.02331844  0.06972562  0.02379192       0.007
   0.09327375  0.09421120  0.02520529       0.003
   0.11659219  0.09444440  0.02544085       0.007
   0.13991063  0.09467759  0.02567642       0.007
  -0.11659219  0.09211245  0.02308523       0.007
  -0.09327375  0.09234564  0.02332079       0.007
  -0.06995531  0.09257884  0.02355635       0.007
  -0.04663688  0.09281203  0.02379191       0.007
  -0.02331844  0.09304523  0.02402748       0.007
   0.11659219  0.11776400  0.02567642       0.003
   0.13991063  0.11799720  0.02591198       0.007
  -0.11659219  0.11543205  0.02332079       0.007
  -0.09327375  0.11566525  0.02355635       0.007
  -0.06995531  0.11589844  0.02379191       0.007
  -0.04663688  0.11613164  0.02402748       0.007
  -0.02331844  0.11636483  0.02426304       0.007
   0.13991063  0.14131681  0.02614754       0.003
  -0.11659219  0.13875166  0.02355635       0.007
  -0.09327375  0.13898485  0.02379191       0.007
  -0.06995531  0.13921805  0.02402748       0.007
  -0.04663688  0.13945124  0.02426304       0.007
  -0.02331844  0.13968444  0.02449860       0.003
  -0.11659219 -0.11776400  0.02096517       0.003
  -0.09327375 -0.11753081  0.02120073       0.007
  -0.06995531 -0.11729761  0.02143630       0.007
  -0.04663688 -0.11706442  0.02167186       0.007
  -0.09327375 -0.09421120  0.02143629       0.003
  -0.06995531 -0.09397801  0.02167186       0.007
  -0.04663688 -0.09374481  0.02190742       0.007
  -0.06995531 -0.07065840  0.02190742       0.003
  -0.04663688 -0.07042521  0.02214298       0.007
  -0.04663688 -0.04710560  0.02237854       0.003
   0.04663688  0.04710560  0.04758384       0.001
   0.06995531  0.04733880  0.04781940       0.003
   0.09327375  0.04757199  0.04805496       0.003
   0.11659219  0.04780519  0.04829052       0.003
   0.13991063  0.04803838  0.04852609       0.003
  -0.11659219  0.04547323  0.04593490       0.003
  -0.09327375  0.04570643  0.04617046       0.003
  -0.06995531  0.04593962  0.04640602       0.003
  -0.04663688  0.04617282  0.04664158       0.003
   0.06995531  0.07065840  0.04805496       0.003
   0.09327375  0.07089160  0.04829052       0.007
   0.11659219  0.07112479  0.04852609       0.007
   0.13991063  0.07135799  0.04876165       0.007
  -0.11659219  0.06879284  0.04617046       0.007
  -0.09327375  0.06902604  0.04640602       0.007
  -0.06995531  0.06925923  0.04664158       0.007
  -0.04663688  0.06949243  0.04687715       0.007
   0.09327375  0.09421120  0.04852609       0.003
   0.11659219  0.09444440  0.04876165       0.007
   0.13991063  0.09467759  0.04899721       0.007
  -0.11659219  0.09211245  0.04640602       0.007
  -0.09327375  0.09234564  0.04664158       0.007
  -0.06995531  0.09257884  0.04687715       0.007
  -0.04663688  0.09281203  0.04711271       0.007
   0.11659219  0.11776400  0.04899721       0.003
   0.13991063  0.11799720  0.04923277       0.007
  -0.11659219  0.11543205  0.04664158       0.007
  -0.09327375  0.11566525  0.04687714       0.007
  -0.06995531  0.11589844  0.04711271       0.007
  -0.04663688  0.11613164  0.04734827       0.007
   0.13991063  0.14131681  0.04946833       0.003
  -0.11659219  0.13875166  0.04687714       0.007
  -0.09327375  0.13898485  0.04711271       0.007
  -0.06995531  0.13921805  0.04734827       0.007
  -0.04663688  0.13945124  0.04758383       0.003
  -0.11659219 -0.11776400  0.04428596       0.003
  -0.09327375 -0.11753081  0.04452153       0.007
  -0.06995531 -0.11729761  0.04475709       0.007
  -0.09327375 -0.09421120  0.04475709       0.003
  -0.06995531 -0.09397801  0.04499265       0.007
  -0.06995531 -0.07065840  0.04522821       0.003
   0.06995531  0.07065840  0.07137575       0.001
   0.09327375  0.07089160  0.07161132       0.003
   0.11659219  0.07112479  0.07184688       0.003
   0.13991063  0.07135799  0.07208244       0.003
  -0.11659219  0.06879284  0.06949125       0.003
  -0.09327375  0.06902604  0.06972681       0.003
  -0.06995531  0.06925923  0.06996238       0.003
   0.09327375  0.09421120  0.07184688       0.003
   0.11659219  0.09444440  0.07208244       0.007
   0.13991063  0.09467759  0.07231800       0.007
  -0.11659219  0.09211245  0.06972681       0.007
  -0.09327375  0.09234564  0.06996238       0.007
  -0.06995531  0.09257884  0.07019794       0.007
   0.11659219  0.11776400  0.07231800       0.003
   0.13991063  0.11799720  0.07255357       0.007
  -0.11659219  0.11543205  0.06996237       0.007
  -0.09327375  0.11566525  0.07019794       0.007
  -0.06995531  0.11589844  0.07043350       0.007
   0.13991063  0.14131681  0.07278913       0.003
  -0.11659219  0.13875166  0.07019794       0.007
  -0.09327375  0.13898485  0.07043350       0.007
  -0.06995531  0.13921805  0.07066906       0.003
  -0.11659219 -0.11776400  0.06760676       0.003
  -0.09327375 -0.11753081  0.06784232       0.007
  -0.09327375 -0.09421120  0.06807788       0.003
   0.09327375  0.09421120  0.09516767       0.001
   0.11659219  0.09444440  0.09540323       0.003
   0.13991063  0.09467759  0.09563880       0.003
  -0.11659219  0.09211245  0.09304761       0.003
  -0.09327375  0.09234564  0.09328317       0.003
   0.11659219  0.11776400  0.09563880       0.003
   0.13991063  0.11799720  0.09587436       0.007
  -0.11659219  0.11543205  0.09328317       0.007
  -0.09327375  0.11566525  0.09351873       0.007
   0.13991063  0.14131681  0.09610992       0.003
  -0.11659219  0.13875166  0.09351873       0.007
  -0.09327375  0.13898485  0.09375429       0.003
  -0.11659219 -0.11776400  0.09092755       0.003
   0.11659219  0.11776400  0.11895959       0.001
   0.13991063  0.11799720  0.11919515       0.003
  -0.11659219  0.11543205  0.11660396       0.003
   0.13991063  0.14131681  0.11943071       0.003
  -0.11659219  0.13875166  0.11683952       0.003
   0.13991063  0.14131681  0.14275151       0.001
 
 k-points in reciprocal lattice and weights: kpt_density=1000                        
   0.00000000  0.00000000  0.00000000       0.001
   0.08333333 -0.00000000  0.00000000       0.003
   0.16666667 -0.00000000  0.00000000       0.003
   0.25000000 -0.00000000  0.00000000       0.003
   0.33333333 -0.00000000  0.00000000       0.003
   0.41666667 -0.00000000  0.00000000       0.003
   0.50000000 -0.00000000  0.00000000       0.002
   0.08333333  0.08333333  0.00000000       0.003
   0.16666667  0.08333333  0.00000000       0.007
   0.25000000  0.08333333  0.00000000       0.007
   0.33333333  0.08333333  0.00000000       0.007
   0.41666667  0.08333333 -0.00000000       0.007
   0.50000000  0.08333333  0.00000000       0.007
  -0.41666667  0.08333333  0.00000000       0.007
  -0.33333333  0.08333333 -0.00000000       0.007
  -0.25000000  0.08333333  0.00000000       0.007
  -0.16666667  0.08333333 -0.00000000       0.007
  -0.08333333  0.08333333 -0.00000000       0.003
   0.16666667  0.16666667  0.00000000       0.003
   0.25000000  0.16666667  0.00000000       0.007
   0.33333333  0.16666667  0.00000000       0.007
   0.41666667  0.16666667  0.00000000       0.007
   0.50000000  0.16666667  0.00000000       0.007
  -0.41666667  0.16666667 -0.00000000       0.007
  -0.33333333  0.16666667 -0.00000000       0.007
  -0.25000000  0.16666667  0.00000000       0.007
  -0.16666667  0.16666667 -0.00000000       0.003
   0.25000000  0.25000000  0.00000000       0.003
   0.33333333  0.25000000  0.00000000       0.007
   0.41666667  0.25000000  0.00000000       0.007
   0.50000000  0.25000000  0.00000000       0.007
  -0.41666667  0.25000000  0.00000000       0.007
  -0.33333333  0.25000000 -0.00000000       0.007
  -0.25000000  0.25000000  0.00000000       0.003
   0.33333333  0.33333333  0.00000000       0.003
   0.41666667  0.33333333  0.00000000       0.007
   0.50000000  0.33333333  0.00000000       0.007
  -0.41666667  0.33333333 -0.00000000       0.007
  -0.33333333  0.33333333  0.00000000       0.003
   0.41666667  0.41666667  0.00000000       0.003
   0.50000000  0.41666667  0.00000000       0.007
  -0.41666667  0.41666667  0.00000000       0.003
   0.50000000  0.50000000  0.00000000       0.002
   0.08333333  0.08333333  0.08333333       0.001
   0.16666667  0.08333333  0.08333333       0.003
   0.25000000  0.08333333  0.08333333       0.003
   0.33333333  0.08333333  0.08333333       0.003
   0.41666667  0.08333333  0.08333333       0.003
   0.50000000  0.08333333  0.08333333       0.003
  -0.41666667  0.08333333  0.08333333       0.003
  -0.33333333  0.08333333  0.08333333       0.003
  -0.25000000  0.08333333  0.08333333       0.003
  -0.16666667  0.08333333  0.08333333       0.003
  -0.08333333  0.08333333  0.08333333       0.003
   0.16666667  0.16666667  0.08333333       0.003
   0.25000000  0.16666667  0.08333333       0.007
   0.33333333  0.16666667  0.08333333       0.007
   0.41666667  0.16666667  0.08333333       0.007
   0.50000000  0.16666667  0.08333333       0.007
  -0.41666667  0.16666667  0.08333333       0.007
  -0.33333333  0.16666667  0.08333333       0.007
  -0.25000000  0.16666667  0.08333333       0.007
  -0.16666667  0.16666667  0.08333333       0.007
  -0.08333333  0.16666667  0.08333333       0.007
   0.25000000  0.25000000  0.08333333       0.003
   0.33333333  0.25000000  0.08333333       0.007
   0.41666667  0.25000000  0.08333333       0.007
   0.50000000  0.25000000  0.08333333       0.007
  -0.41666667  0.25000000  0.08333333       0.007
  -0.33333333  0.25000000  0.08333333       0.007
  -0.25000000  0.25000000  0.08333333       0.007
  -0.16666667  0.25000000  0.08333333       0.007
  -0.08333333  0.25000000  0.08333333       0.007
   0.33333333  0.33333333  0.08333333       0.003
   0.41666667  0.33333333  0.08333333       0.007
   0.50000000  0.33333333  0.08333333       0.007
  -0.41666667  0.33333333  0.08333333       0.007
  -0.33333333  0.33333333  0.08333333       0.007
  -0.25000000  0.33333333  0.08333333       0.007
  -0.16666667  0.33333333  0.08333333       0.007
  -0.08333333  0.33333333  0.08333333       0.007
   0.41666667  0.41666667  0.08333333       0.003
   0.50000000  0.41666667  0.08333333       0.007
  -0.41666667  0.41666667  0.08333333       0.007
  -0.33333333  0.41666667  0.08333333       0.007
  -0.25000000  0.41666667  0.08333333       0.007
  -0.16666667  0.41666667  0.08333333       0.007
  -0.08333333  0.41666667  0.08333333       0.007
   0.50000000  0.50000000  0.08333333       0.003
  -0.41666667  0.50000000  0.08333333       0.007
  -0.33333333  0.50000000  0.08333333       0.007
  -0.25000000  0.50000000  0.08333333       0.007
  -0.16666667  0.50000000  0.08333333       0.007
  -0.08333333  0.50000000  0.08333333       0.003
  -0.41666667 -0.41666667  0.08333333       0.003
  -0.33333333 -0.41666667  0.08333333       0.007
  -0.25000000 -0.41666667  0.08333333       0.007
  -0.16666667 -0.41666667  0.08333333       0.007
  -0.33333333 -0.33333333  0.08333333       0.003
  -0.25000000 -0.33333333  0.08333333       0.007
  -0.16666667 -0.33333333  0.08333333       0.007
  -0.25000000 -0.25000000  0.08333333       0.003
  -0.16666667 -0.25000000  0.08333333       0.007
  -0.16666667 -0.16666667  0.08333333       0.003
   0.16666667  0.16666667  0.16666667       0.001
   0.25000000  0.16666667  0.16666667       0.003
   0.33333333  0.16666667  0.16666667       0.003
   0.41666667  0.16666667  0.16666667       0.003
   0.50000000  0.16666667  0.16666667       0.003
  -0.41666667  0.16666667  0.16666667       0.003
  -0.33333333  0.16666667  0.16666667       0.003
  -0.25000000  0.16666667  0.16666667       0.003
  -0.16666667  0.16666667  0.16666667       0.003
   0.25000000  0.25000000  0.16666667       0.003
   0.33333333  0.25000000  0.16666667       0.007
   0.41666667  0.25000000  0.16666667       0.007
   0.50000000  0.25000000  0.16666667       0.007
  -0.41666667  0.25000000  0.16666667       0.007
  -0.33333333  0.25000000  0.16666667       0.007
  -0.25000000  0.25000000  0.16666667       0.007
  -0.16666667  0.25000000  0.16666667       0.007
   0.33333333  0.33333333  0.16666667       0.003
   0.41666667  0.33333333  0.16666667       0.007
   0.50000000  0.33333333  0.16666667       0.007
  -0.41666667  0.33333333  0.16666667       0.007
  -0.33333333  0.33333333  0.16666667       0.007
  -0.25000000  0.33333333  0.16666667       0.007
  -0.16666667  0.33333333  0.16666667       0.007
   0.41666667  0.41666667  0.16666667       0.003
   0.50000000  0.41666667  0.16666667       0.007
  -0.41666667  0.41666667  0.16666667       0.007
  -0.33333333  0.41666667  0.16666667       0.007
  -0.25000000  0.41666667  0.16666667       0.007
  -0.16666667  0.41666667  0.16666667       0.007
   0.50000000  0.50000000  0.16666667       0.003
  -0.41666667  0.50000000  0.16666667       0.007
  -0.33333333  0.50000000  0.16666667       0.007
  -0.25000000  0.50000000  0.16666667       0.007
  -0.16666667  0.50000000  0.16666667       0.003
  -0.41666667 -0.41666667  0.16666667       0.003
  -0.33333333 -0.41666667  0.16666667       0.007
  -0.25000000 -0.41666667  0.16666667       0.007
  -0.33333333 -0.33333333  0.16666667       0.003
  -0.25000000 -0.33333333  0.16666667       0.007
  -0.25000000 -0.25000000  0.16666667       0.003
   0.25000000  0.25000000  0.25000000       0.001
   0.33333333  0.25000000  0.25000000       0.003
   0.41666667  0.25000000  0.25000000       0.003
   0.50000000  0.25000000  0.25000000       0.003
  -0.41666667  0.25000000  0.25000000       0.003
  -0.33333333  0.25000000  0.25000000       0.003
  -0.25000000  0.25000000  0.25000000       0.003
   0.33333333  0.33333333  0.25000000       0.003
   0.41666667  0.33333333  0.25000000       0.007
   0.50000000  0.33333333  0.25000000       0.007
  -0.41666667  0.33333333  0.25000000       0.007
  -0.33333333  0.33333333  0.25000000       0.007
  -0.25000000  0.33333333  0.25000000       0.007
   0.41666667  0.41666667  0.25000000       0.003
   0.50000000  0.41666667  0.25000000       0.007
  -0.41666667  0.41666667  0.25000000       0.007
  -0.33333333  0.41666667  0.25000000       0.007
  -0.25000000  0.41666667  0.25000000       0.007
   0.50000000  0.50000000  0.25000000       0.003
  -0.41666667  0.50000000  0.25000000       0.007
  -0.33333333  0.50000000  0.25000000       0.007
  -0.25000000  0.50000000  0.25000000       0.003
  -0.41666667 -0.41666667  0.25000000       0.003
  -0.33333333 -0.41666667  0.25000000       0.007
  -0.33333333 -0.33333333  0.25000000       0.003
   0.33333333  0.33333333  0.33333333       0.001
   0.41666667  0.33333333  0.33333333       0.003
   0.50000000  0.33333333  0.33333333       0.003
  -0.41666667  0.33333333  0.33333333       0.003
  -0.33333333  0.33333333  0.33333333       0.003
   0.41666667  0.41666667  0.33333333       0.003
   0.50000000  0.41666667  0.33333333       0.007
  -0.41666667  0.41666667  0.33333333       0.007
  -0.33333333  0.41666667  0.33333333       0.007
   0.50000000  0.50000000  0.33333333       0.003
  -0.41666667  0.50000000  0.33333333       0.007
  -0.33333333  0.50000000  0.33333333       0.003
  -0.41666667 -0.41666667  0.33333333       0.003
   0.41666667  0.41666667  0.41666667       0.001
   0.50000000  0.41666667  0.41666667       0.003
  -0.41666667  0.41666667  0.41666667       0.003
   0.50000000  0.50000000  0.41666667       0.003
  -0.41666667  0.50000000  0.41666667       0.003
   0.50000000  0.50000000  0.50000000       0.001
 
 position of ions in fractional coordinates (direct lattice) 
   0.25000000  0.75000000  0.25000000
   0.00000000  0.00000000  0.50000000
   0.25000000  0.25000000  0.75000000
   0.00000000  0.50000000  0.00000000
   0.75000000  0.75000000  0.75000000
   0.50000000  0.00000000  0.00000000
   0.75000000  0.25000000  0.25000000
   0.50000000  0.50000000  0.50000000
 
 position of ions in cartesian coordinates  (Angst):
   0.85769050  2.67112425  0.89333725
  -0.01786850 -0.01804800  1.78667450
   0.85769050  0.86631075  2.68001175
  -0.01786850  1.78676550  0.00000000
   2.62667700  2.65307625  2.68001175
   1.78685500  0.00000000  0.00000000
   2.66241400  0.88435875  0.89333725
   1.75111800  1.76871750  1.78667450
 


--------------------------------------------------------------------------------------------------------


 k-point  1 :   0.0000 0.0000 0.0000  plane waves:     829
 k-point  2 :   0.0833-0.0000 0.0000  plane waves:     821
 k-point  3 :   0.1667-0.0000 0.0000  plane waves:     821
 k-point  4 :   0.2500-0.0000 0.0000  plane waves:     825
 k-point  5 :   0.3333-0.0000 0.0000  plane waves:     826
 k-point  6 :   0.4167-0.0000 0.0000  plane waves:     826
 k-point  7 :   0.5000-0.0000 0.0000  plane waves:     828
 k-point  8 :   0.0833 0.0833 0.0000  plane waves:     822
 k-point  9 :   0.1667 0.0833 0.0000  plane waves:     823
 k-point 10 :   0.2500 0.0833 0.0000  plane waves:     824
 k-point 11 :   0.3333 0.0833 0.0000  plane waves:     831
 k-point 12 :   0.4167 0.0833-0.0000  plane waves:     833
 k-point 13 :   0.5000 0.0833 0.0000  plane waves:     828
 k-point 14 :  -0.4167 0.0833 0.0000  plane waves:     829
 k-point 15 :  -0.3333 0.0833-0.0000  plane waves:     829
 k-point 16 :  -0.2500 0.0833 0.0000  plane waves:     825
 k-point 17 :  -0.1667 0.0833-0.0000  plane waves:     820
 k-point 18 :  -0.0833 0.0833-0.0000  plane waves:     815
 k-point 19 :   0.1667 0.1667 0.0000  plane waves:     825
 k-point 20 :   0.2500 0.1667 0.0000  plane waves:     827
 k-point 21 :   0.3333 0.1667 0.0000  plane waves:     831
 k-point 22 :   0.4167 0.1667 0.0000  plane waves:     834
 k-point 23 :   0.5000 0.1667 0.0000  plane waves:     829
 k-point 24 :  -0.4167 0.1667-0.0000  plane waves:     833
 k-point 25 :  -0.3333 0.1667-0.0000  plane waves:     833
 k-point 26 :  -0.2500 0.1667 0.0000  plane waves:     824
 k-point 27 :  -0.1667 0.1667-0.0000  plane waves:     820
 k-point 28 :   0.2500 0.2500 0.0000  plane waves:     830
 k-point 29 :   0.3333 0.2500 0.0000  plane waves:     834
 k-point 30 :   0.4167 0.2500 0.0000  plane waves:     831
 k-point 31 :   0.5000 0.2500 0.0000  plane waves:     821
 k-point 32 :  -0.4167 0.2500 0.0000  plane waves:     829
 k-point 33 :  -0.3333 0.2500-0.0000  plane waves:     829
 k-point 34 :  -0.2500 0.2500 0.0000  plane waves:     830
 k-point 35 :   0.3333 0.3333 0.0000  plane waves:     834
 k-point 36 :   0.4167 0.3333 0.0000  plane waves:     833
 k-point 37 :   0.5000 0.3333 0.0000  plane waves:     825
 k-point 38 :  -0.4167 0.3333-0.0000  plane waves:     827
 k-point 39 :  -0.3333 0.3333 0.0000  plane waves:     834
 k-point 40 :   0.4167 0.4167 0.0000  plane waves:     834
 k-point 41 :   0.5000 0.4167 0.0000  plane waves:     837
 k-point 42 :  -0.4167 0.4167 0.0000  plane waves:     826
 k-point 43 :   0.5000 0.5000 0.0000  plane waves:     830
 k-point 44 :   0.0833 0.0833 0.0833  plane waves:     820
 k-point 45 :   0.1667 0.0833 0.0833  plane waves:     824
 k-point 46 :   0.2500 0.0833 0.0833  plane waves:     826
 k-point 47 :   0.3333 0.0833 0.0833  plane waves:     832
 k-point 48 :   0.4167 0.0833 0.0833  plane waves:     836
 k-point 49 :   0.5000 0.0833 0.0833  plane waves:     835
 k-point 50 :  -0.4167 0.0833 0.0833  plane waves:     827
 k-point 51 :  -0.3333 0.0833 0.0833  plane waves:     834
 k-point 52 :  -0.2500 0.0833 0.0833  plane waves:     825
 k-point 53 :  -0.1667 0.0833 0.0833  plane waves:     814
 k-point 54 :  -0.0833 0.0833 0.0833  plane waves:     817
 k-point 55 :   0.1667 0.1667 0.0833  plane waves:     831
 k-point 56 :   0.2500 0.1667 0.0833  plane waves:     830
 k-point 57 :   0.3333 0.1667 0.0833  plane waves:     828
 k-point 58 :   0.4167 0.1667 0.0833  plane waves:     830
 k-point 59 :   0.5000 0.1667 0.0833  plane waves:     831
 k-point 60 :  -0.4167 0.1667 0.0833  plane waves:     827
 k-point 61 :  -0.3333 0.1667 0.0833  plane waves:     826
 k-point 62 :  -0.2500 0.1667 0.0833  plane waves:     821
 k-point 63 :  -0.1667 0.1667 0.0833  plane waves:     820
 k-point 64 :  -0.0833 0.1667 0.0833  plane waves:     824
 k-point 65 :   0.2500 0.2500 0.0833  plane waves:     835
 k-point 66 :   0.3333 0.2500 0.0833  plane waves:     834
 k-point 67 :   0.4167 0.2500 0.0833  plane waves:     827
 k-point 68 :   0.5000 0.2500 0.0833  plane waves:     823
 k-point 69 :  -0.4167 0.2500 0.0833  plane waves:     831
 k-point 70 :  -0.3333 0.2500 0.0833  plane waves:     829
 k-point 71 :  -0.2500 0.2500 0.0833  plane waves:     829
 k-point 72 :  -0.1667 0.2500 0.0833  plane waves:     826
 k-point 73 :  -0.0833 0.2500 0.0833  plane waves:     822
 k-point 74 :   0.3333 0.3333 0.0833  plane waves:     836
 k-point 75 :   0.4167 0.3333 0.0833  plane waves:     829
 k-point 76 :   0.5000 0.3333 0.0833  plane waves:     823
 k-point 77 :  -0.4167 0.3333 0.0833  plane waves:     830
 k-point 78 :  -0.3333 0.3333 0.0833  plane waves:     835
 k-point 79 :  -0.2500 0.3333 0.0833  plane waves:     833
 k-point 80 :  -0.1667 0.3333 0.0833  plane waves:     831
 k-point 81 :  -0.0833 0.3333 0.0833  plane waves:     828
 k-point 82 :   0.4167 0.4167 0.0833  plane waves:     830
 k-point 83 :   0.5000 0.4167 0.0833  plane waves:     828
 k-point 84 :  -0.4167 0.4167 0.0833  plane waves:     830
 k-point 85 :  -0.3333 0.4167 0.0833  plane waves:     829
 k-point 86 :  -0.2500 0.4167 0.0833  plane waves:     830
 k-point 87 :  -0.1667 0.4167 0.0833  plane waves:     832
 k-point 88 :  -0.0833 0.4167 0.0833  plane waves:     831
 k-point 89 :   0.5000 0.5000 0.0833  plane waves:     835
 k-point 90 :  -0.4167 0.5000 0.0833  plane waves:     831
 k-point 91 :  -0.3333 0.5000 0.0833  plane waves:     828
 k-point 92 :  -0.2500 0.5000 0.0833  plane waves:     827
 k-point 93 :  -0.1667 0.5000 0.0833  plane waves:     831
 k-point 94 :  -0.0833 0.5000 0.0833  plane waves:     826
 k-point 95 :  -0.4167-0.4167 0.0833  plane waves:     836
 k-point 96 :  -0.3333-0.4167 0.0833  plane waves:     831
 k-point 97 :  -0.2500-0.4167 0.0833  plane waves:     828
 k-point 98 :  -0.1667-0.4167 0.0833  plane waves:     832
 k-point 99 :  -0.3333-0.3333 0.0833  plane waves:     836
 k-point ** :  -0.2500-0.3333 0.0833  plane waves:     830
 k-point ** :  -0.1667-0.3333 0.0833  plane waves:     826
 k-point ** :  -0.2500-0.2500 0.0833  plane waves:     832
 k-point ** :  -0.1667-0.2500 0.0833  plane waves:     827
 k-point ** :  -0.1667-0.1667 0.0833  plane waves:     821
 k-point ** :   0.1667 0.1667 0.1667  plane waves:     826
 k-point ** :   0.2500 0.1667 0.1667  plane waves:     829
 k-point ** :   0.3333 0.1667 0.1667  plane waves:     831
 k-point ** :   0.4167 0.1667 0.1667  plane waves:     832
 k-point ** :   0.5000 0.1667 0.1667  plane waves:     822
 k-point ** :  -0.4167 0.1667 0.1667  plane waves:     831
 k-point ** :  -0.3333 0.1667 0.1667  plane waves:     826
 k-point ** :  -0.2500 0.1667 0.1667  plane waves:     825
 k-point ** :  -0.1667 0.1667 0.1667  plane waves:     823
 k-point ** :   0.2500 0.2500 0.1667  plane waves:     829
 k-point ** :   0.3333 0.2500 0.1667  plane waves:     826
 k-point ** :   0.4167 0.2500 0.1667  plane waves:     828
 k-point ** :   0.5000 0.2500 0.1667  plane waves:     824
 k-point ** :  -0.4167 0.2500 0.1667  plane waves:     826
 k-point ** :  -0.3333 0.2500 0.1667  plane waves:     828
 k-point ** :  -0.2500 0.2500 0.1667  plane waves:     830
 k-point ** :  -0.1667 0.2500 0.1667  plane waves:     827
 k-point ** :   0.3333 0.3333 0.1667  plane waves:     837
 k-point ** :   0.4167 0.3333 0.1667  plane waves:     829
 k-point ** :   0.5000 0.3333 0.1667  plane waves:     828
 k-point ** :  -0.4167 0.3333 0.1667  plane waves:     825
 k-point ** :  -0.3333 0.3333 0.1667  plane waves:     828
 k-point ** :  -0.2500 0.3333 0.1667  plane waves:     835
 k-point ** :  -0.1667 0.3333 0.1667  plane waves:     829
 k-point ** :   0.4167 0.4167 0.1667  plane waves:     829
 k-point ** :   0.5000 0.4167 0.1667  plane waves:     831
 k-point ** :  -0.4167 0.4167 0.1667  plane waves:     828
 k-point ** :  -0.3333 0.4167 0.1667  plane waves:     825
 k-point ** :  -0.2500 0.4167 0.1667  plane waves:     826
 k-point ** :  -0.1667 0.4167 0.1667  plane waves:     829
 k-point ** :   0.5000 0.5000 0.1667  plane waves:     834
 k-point ** :  -0.4167 0.5000 0.1667  plane waves:     833
 k-point ** :  -0.3333 0.5000 0.1667  plane waves:     823
 k-point ** :  -0.2500 0.5000 0.1667  plane waves:     823
 k-point ** :  -0.1667 0.5000 0.1667  plane waves:     822
 k-point ** :  -0.4167-0.4167 0.1667  plane waves:     825
 k-point ** :  -0.3333-0.4167 0.1667  plane waves:     822
 k-point ** :  -0.2500-0.4167 0.1667  plane waves:     826
 k-point ** :  -0.3333-0.3333 0.1667  plane waves:     822
 k-point ** :  -0.2500-0.3333 0.1667  plane waves:     830
 k-point ** :  -0.2500-0.2500 0.1667  plane waves:     832
 k-point ** :   0.2500 0.2500 0.2500  plane waves:     832
 k-point ** :   0.3333 0.2500 0.2500  plane waves:     832
 k-point ** :   0.4167 0.2500 0.2500  plane waves:     830
 k-point ** :   0.5000 0.2500 0.2500  plane waves:     827
 k-point ** :  -0.4167 0.2500 0.2500  plane waves:     826
 k-point ** :  -0.3333 0.2500 0.2500  plane waves:     826
 k-point ** :  -0.2500 0.2500 0.2500  plane waves:     835
 k-point ** :   0.3333 0.3333 0.2500  plane waves:     834
 k-point ** :   0.4167 0.3333 0.2500  plane waves:     830
 k-point ** :   0.5000 0.3333 0.2500  plane waves:     834
 k-point ** :  -0.4167 0.3333 0.2500  plane waves:     830
 k-point ** :  -0.3333 0.3333 0.2500  plane waves:     829
 k-point ** :  -0.2500 0.3333 0.2500  plane waves:     831
 k-point ** :   0.4167 0.4167 0.2500  plane waves:     835
 k-point ** :   0.5000 0.4167 0.2500  plane waves:     834
 k-point ** :  -0.4167 0.4167 0.2500  plane waves:     829
 k-point ** :  -0.3333 0.4167 0.2500  plane waves:     828
 k-point ** :  -0.2500 0.4167 0.2500  plane waves:     825
 k-point ** :   0.5000 0.5000 0.2500  plane waves:     840
 k-point ** :  -0.4167 0.5000 0.2500  plane waves:     834
 k-point ** :  -0.3333 0.5000 0.2500  plane waves:     830
 k-point ** :  -0.2500 0.5000 0.2500  plane waves:     828
 k-point ** :  -0.4167-0.4167 0.2500  plane waves:     827
 k-point ** :  -0.3333-0.4167 0.2500  plane waves:     825
 k-point ** :  -0.3333-0.3333 0.2500  plane waves:     826
 k-point ** :   0.3333 0.3333 0.3333  plane waves:     828
 k-point ** :   0.4167 0.3333 0.3333  plane waves:     831
 k-point ** :   0.5000 0.3333 0.3333  plane waves:     833
 k-point ** :  -0.4167 0.3333 0.3333  plane waves:     832
 k-point ** :  -0.3333 0.3333 0.3333  plane waves:     827
 k-point ** :   0.4167 0.4167 0.3333  plane waves:     835
 k-point ** :   0.5000 0.4167 0.3333  plane waves:     836
 k-point ** :  -0.4167 0.4167 0.3333  plane waves:     835
 k-point ** :  -0.3333 0.4167 0.3333  plane waves:     829
 k-point ** :   0.5000 0.5000 0.3333  plane waves:     837
 k-point ** :  -0.4167 0.5000 0.3333  plane waves:     836
 k-point ** :  -0.3333 0.5000 0.3333  plane waves:     832
 k-point ** :  -0.4167-0.4167 0.3333  plane waves:     826
 k-point ** :   0.4167 0.4167 0.4167  plane waves:     834
 k-point ** :   0.5000 0.4167 0.4167  plane waves:     837
 k-point ** :  -0.4167 0.4167 0.4167  plane waves:     844
 k-point ** :   0.5000 0.5000 0.4167  plane waves:     850
 k-point ** :  -0.4167 0.5000 0.4167  plane waves:     854
 k-point ** :   0.5000 0.5000 0.5000  plane waves:     840

 maximum and minimum number of plane-waves per node :       228      189

 maximum number of plane-waves:       854
 maximum index in each direction: 
   IXMAX=    6   IYMAX=    6   IZMAX=    5
   IXMIN=   -6   IYMIN=   -6   IZMIN=   -6


 parallel 3D FFT for wavefunctions:
    minimum data exchange during FFTs selected (reduces bandwidth)
 parallel 3D FFT for charge:
    minimum data exchange during FFTs selected (reduces bandwidth)


 total amount of memory used by VASP MPI-rank0    37682. kBytes
=======================================================================

   base      :      30000. kBytes
   nonl-proj :       2640. kBytes
   fftplans  :        346. kBytes
   grid      :        481. kBytes
   one-center:          6. kBytes
   wavefun   :       4209. kBytes
 
     INWAV:  cpu time    0.0004: real time    0.0005
 Broyden mixing: mesh for mixing (old mesh)
   NGX = 11   NGY = 11   NGZ = 11
  (NGX  = 48   NGY  = 48   NGZ  = 48)
  gives a total of   1331 points

 initial charge density was supplied:
 charge density of overlapping atoms calculated
 number of electron      32.0000000 magnetization 
 keeping initial charge density in first step


--------------------------------------------------------------------------------------------------------


 Maximum index for augmentation-charges          277 (set IRDMAX)


--------------------------------------------------------------------------------------------------------


 First call to EWALD:  gamma=   0.496
 Maximum number of real-space cells 3x 3x 3
 Maximum number of reciprocal cells 3x 3x 3

    FEWALD:  cpu time    0.0054: real time    0.0054


--------------------------------------- Iteration      1(   1)  ---------------------------------------


    POTLOK:  cpu time    0.0274: real time    0.0320
    SETDIJ:  cpu time    0.0065: real time    0.0065
     EDDAV:  cpu time    9.5585: real time    9.5681
 BZINTS: Fermi energy: 18.564973; 32.000000 electrons
         Band energy: 121.271326;  BLOECHL correction: -0.185958
       DOS:  cpu time    0.4917: real time    0.4917
    --------------------------------------------
      LOOP:  cpu time   10.0842: real time   10.0984

 eigenvalue-minimisations  :  9072
 total energy-change (2. order) : 0.5747240E+02  (-0.1435146E+04)
 number of electron      32.0000000 magnetization 
 augmentation part       32.0000000 magnetization 

 Free energy of the ion-electron system (eV)
  ---------------------------------------------------
  alpha Z        PSCENC =       114.27193261
  Ewald energy   TEWEN  =     -1389.13579772
  -Hartree energ DENC   =       -70.99062690
  -exchange      EXHF   =         0.00000000
  -V(xc)+E(xc)   XCENC  =       114.24161432
  PAW double counting   =       302.65154477     -311.85538214
  entropy T*S    EENTRO =         0.00000000
  eigenvalues    EBANDS =       121.27132603
  atomic energy  EATOM  =      1177.01779097
  Solvation  Ediel_sol  =         0.00000000
  ---------------------------------------------------
  free energy    TOTEN  =        57.47240195 eV

  energy without entropy =       57.47240195  energy(sigma->0) =       57.47240195


--------------------------------------------------------------------------------------------------------




--------------------------------------- Iteration      1(   2)  ---------------------------------------


     EDDAV:  cpu time   12.0092: real time   12.0127
 BZINTS: Fermi energy:  8.844840; 32.000000 electrons
         Band energy:  -7.192869;  BLOECHL correction:  0.000000
       DOS:  cpu time    0.1085: real time    0.1085
    --------------------------------------------
      LOOP:  cpu time   12.1177: real time   12.1212

 eigenvalue-minimisations  : 12560
 total energy-change (2. order) :-0.1284642E+03  (-0.1217136E+03)
 number of electron      32.0000000 magnetization 
 augmentation part       32.0000000 magnetization 

 Free energy of the ion-electron system (eV)
  ---------------------------------------------------
  alpha Z        PSCENC =       114.27193261
  Ewald energy   TEWEN  =     -1389.13579772
  -Hartree energ DENC   =       -70.99062690
  -exchange      EXHF   =         0.00000000
  -V(xc)+E(xc)   XCENC  =       114.24161432
  PAW double counting   =       302.65154477     -311.85538214
  entropy T*S    EENTRO =         0.00000000
  eigenvalues    EBANDS =        -7.19286903
  atomic energy  EATOM  =      1177.01779097
  Solvation  Ediel_sol  =         0.00000000
  ---------------------------------------------------
  free energy    TOTEN  =       -70.99179311 eV

  energy without entropy =      -70.99179311  energy(sigma->0) =      -70.99179311


--------------------------------------------------------------------------------------------------------




--------------------------------------- Iteration      1(   3)  ---------------------------------------


     EDDAV:  cpu time   11.2794: real time   11.2805
 BZINTS: Fermi energy:  8.425037; 32.000000 electrons
         Band energy: -11.375244;  BLOECHL correction:  0.000000
       DOS:  cpu time    0.1219: real time    0.1219
    --------------------------------------------
      LOOP:  cpu time   11.4013: real time   11.4024

 eigenvalue-minimisations  : 11776
 total energy-change (2. order) :-0.4182375E+01  (-0.4161991E+01)
 number of electron      32.0000000 magnetization 
 augmentation part       32.0000000 magnetization 

 Free energy of the ion-electron system (eV)
  ---------------------------------------------------
  alpha Z        PSCENC =       114.27193261
  Ewald energy   TEWEN  =     -1389.13579772
  -Hartree energ DENC   =       -70.99062690
  -exchange      EXHF   =         0.00000000
  -V(xc)+E(xc)   XCENC  =       114.24161432
  PAW double counting   =       302.65154477     -311.85538214
  entropy T*S    EENTRO =         0.00000000
  eigenvalues    EBANDS =       -11.37524433
  atomic energy  EATOM  =      1177.01779097
  Solvation  Ediel_sol  =         0.00000000
  ---------------------------------------------------
  free energy    TOTEN  =       -75.17416841 eV

  energy without entropy =      -75.17416841  energy(sigma->0) =      -75.17416841


--------------------------------------------------------------------------------------------------------




--------------------------------------- Iteration      1(   4)  ---------------------------------------


     EDDAV:  cpu time   11.0110: real time   11.0125
 BZINTS: Fermi energy:  8.367019; 32.000000 electrons
         Band energy: -11.418273;  BLOECHL correction:  0.000000
       DOS:  cpu time    0.1218: real time    0.1218
    --------------------------------------------
      LOOP:  cpu time   11.1328: real time   11.1343

 eigenvalue-minimisations  : 11400
 total energy-change (2. order) :-0.4302905E-01  (-0.4298865E-01)
 number of electron      32.0000000 magnetization 
 augmentation part       32.0000000 magnetization 

 Free energy of the ion-electron system (eV)
  ---------------------------------------------------
  alpha Z        PSCENC =       114.27193261
  Ewald energy   TEWEN  =     -1389.13579772
  -Hartree energ DENC   =       -70.99062690
  -exchange      EXHF   =         0.00000000
  -V(xc)+E(xc)   XCENC  =       114.24161432
  PAW double counting   =       302.65154477     -311.85538214
  entropy T*S    EENTRO =         0.00000000
  eigenvalues    EBANDS =       -11.41827337
  atomic energy  EATOM  =      1177.01779097
  Solvation  Ediel_sol  =         0.00000000
  ---------------------------------------------------
  free energy    TOTEN  =       -75.21719745 eV

  energy without entropy =      -75.21719745  energy(sigma->0) =      -75.21719745


--------------------------------------------------------------------------------------------------------




--------------------------------------- Iteration      1(   5)  ---------------------------------------


     EDDAV:  cpu time   11.3899: real time   11.3916
 BZINTS: Fermi energy:  8.326716; 32.000000 electrons
         Band energy: -11.419120;  BLOECHL correction:  0.000000
       DOS:  cpu time    0.1081: real time    0.1081
    CHARGE:  cpu time    0.2671: real time    0.2671
    MIXING:  cpu time    0.0018: real time    0.0018
    --------------------------------------------
      LOOP:  cpu time   11.7669: real time   11.7685

 eigenvalue-minimisations  : 11720
 total energy-change (2. order) :-0.8468386E-03  (-0.8464996E-03)
 number of electron      32.0000026 magnetization 
 augmentation part        0.7846246 magnetization 

 Broyden mixing:
  rms(total) = 0.94431E+00    rms(broyden)= 0.94413E+00
  rms(prec ) = 0.22311E+01
  weight for this iteration     100.00

 Free energy of the ion-electron system (eV)
  ---------------------------------------------------
  alpha Z        PSCENC =       114.27193261
  Ewald energy   TEWEN  =     -1389.13579772
  -Hartree energ DENC   =       -70.99062690
  -exchange      EXHF   =         0.00000000
  -V(xc)+E(xc)   XCENC  =       114.24161432
  PAW double counting   =       302.65154477     -311.85538214
  entropy T*S    EENTRO =         0.00000000
  eigenvalues    EBANDS =       -11.41912021
  atomic energy  EATOM  =      1177.01779097
  Solvation  Ediel_sol  =         0.00000000
  ---------------------------------------------------
  free energy    TOTEN  =       -75.21804429 eV

  energy without entropy =      -75.21804429  energy(sigma->0) =      -75.21804429


--------------------------------------------------------------------------------------------------------




--------------------------------------- Iteration      1(   6)  ---------------------------------------


    POTLOK:  cpu time    0.0220: real time    0.0224
    SETDIJ:  cpu time    0.0059: real time    0.0059
     EDDAV:  cpu time   10.3673: real time   10.3681
 BZINTS: Fermi energy:  8.963353; 32.000000 electrons
         Band energy:   4.685435;  BLOECHL correction:  0.000000
       DOS:  cpu time    0.1084: real time    0.1084
    CHARGE:  cpu time    0.2666: real time    0.2666
    MIXING:  cpu time    0.0020: real time    0.0019
    --------------------------------------------
      LOOP:  cpu time   10.7721: real time   10.7734

 eigenvalue-minimisations  : 10352
 total energy-change (2. order) : 0.1869724E+01  (-0.1238996E+00)
 number of electron      32.0000025 magnetization 
 augmentation part        0.7669151 magnetization 

 Broyden mixing:
  rms(total) = 0.51792E+00    rms(broyden)= 0.51790E+00
  rms(prec ) = 0.12066E+01
  weight for this iteration     100.00

 eigenvalues of (default mixing * dielectric matrix)
  average eigenvalue GAMMA=   2.1676
  2.1676

 Free energy of the ion-electron system (eV)
  ---------------------------------------------------
  alpha Z        PSCENC =       114.27193261
  Ewald energy   TEWEN  =     -1389.13579772
  -Hartree energ DENC   =       -86.10455191
  -exchange      EXHF   =         0.00000000
  -V(xc)+E(xc)   XCENC  =       115.65601804
  PAW double counting   =       393.09495035     -402.83409767
  entropy T*S    EENTRO =         0.00000000
  eigenvalues    EBANDS =         4.68543538
  atomic energy  EATOM  =      1177.01779097
  Solvation  Ediel_sol  =         0.00000000
  ---------------------------------------------------
  free energy    TOTEN  =       -73.34831994 eV

  energy without entropy =      -73.34831994  energy(sigma->0) =      -73.34831994


--------------------------------------------------------------------------------------------------------




--------------------------------------- Iteration      1(   7)  ---------------------------------------


    POTLOK:  cpu time    0.0201: real time    0.0204
    SETDIJ:  cpu time    0.0059: real time    0.0059
     EDDAV:  cpu time   10.7456: real time   10.7465
 BZINTS: Fermi energy:  9.731267; 32.000000 electrons
         Band energy:  23.295643;  BLOECHL correction:  0.000000
       DOS:  cpu time    0.1093: real time    0.1093
    CHARGE:  cpu time    0.2682: real time    0.2682
    MIXING:  cpu time    0.0020: real time    0.0020
    --------------------------------------------
      LOOP:  cpu time   11.1512: real time   11.1523

 eigenvalue-minimisations  : 10544
 total energy-change (2. order) : 0.6314712E+00  (-0.1401407E+00)
 number of electron      32.0000024 magnetization 
 augmentation part        0.7478305 magnetization 

 Broyden mixing:
  rms(total) = 0.69557E-01    rms(broyden)= 0.69227E-01
  rms(prec ) = 0.12126E+00
  weight for this iteration     100.00

 eigenvalues of (default mixing * dielectric matrix)
  average eigenvalue GAMMA=   2.2685
  2.0035  2.5334

 Free energy of the ion-electron system (eV)
  ---------------------------------------------------
  alpha Z        PSCENC =       114.27193261
  Ewald energy   TEWEN  =     -1389.13579772
  -Hartree energ DENC   =      -105.40262744
  -exchange      EXHF   =         0.00000000
  -V(xc)+E(xc)   XCENC  =       117.48312540
  PAW double counting   =       516.02019254     -526.26710810
  entropy T*S    EENTRO =         0.00000000
  eigenvalues    EBANDS =        23.29564302
  atomic energy  EATOM  =      1177.01779097
  Solvation  Ediel_sol  =         0.00000000
  ---------------------------------------------------
  free energy    TOTEN  =       -72.71684871 eV

  energy without entropy =      -72.71684871  energy(sigma->0) =      -72.71684871


--------------------------------------------------------------------------------------------------------




--------------------------------------- Iteration      1(   8)  ---------------------------------------


    POTLOK:  cpu time    0.0206: real time    0.0210
    SETDIJ:  cpu time    0.0058: real time    0.0058
     EDDAV:  cpu time   11.3306: real time   11.3314
 BZINTS: Fermi energy:  9.731479; 32.000000 electrons
         Band energy:  23.608756;  BLOECHL correction:  0.000000
       DOS:  cpu time    0.1089: real time    0.1090
    CHARGE:  cpu time    0.2751: real time    0.2751
    MIXING:  cpu time    0.0020: real time    0.0020
    --------------------------------------------
      LOOP:  cpu time   11.7430: real time   11.7442

 eigenvalue-minimisations  : 11616
 total energy-change (2. order) :-0.7416757E-02  (-0.2797351E-02)
 number of electron      32.0000024 magnetization 
 augmentation part        0.7482224 magnetization 

 Broyden mixing:
  rms(total) = 0.79616E-02    rms(broyden)= 0.78583E-02
  rms(prec ) = 0.13808E-01
  weight for this iteration     100.00

 eigenvalues of (default mixing * dielectric matrix)
  average eigenvalue GAMMA=   2.0951
  1.4451  2.6754  2.1649

 Free energy of the ion-electron system (eV)
  ---------------------------------------------------
  alpha Z        PSCENC =       114.27193261
  Ewald energy   TEWEN  =     -1389.13579772
  -Hartree energ DENC   =      -105.90190264
  -exchange      EXHF   =         0.00000000
  -V(xc)+E(xc)   XCENC  =       117.53412164
  PAW double counting   =       525.39250757     -535.51167343
[...]

 k-point   177 :       0.5000    0.4167    0.3333
  band No.  band energies     occupation 
      1      -7.0909      2.00000
      2      -6.9152      2.00000
      3      -5.9895      2.00000
      4      -5.9622      2.00000
      5      -3.1512      2.00000
      6      -3.1232      2.00000
      7      -2.0475      2.00000
      8      -1.9719      2.00000
      9       5.6329      2.00000
     10       5.6556      2.00000
     11       6.2202      2.00000
     12       6.3762      2.00000
     13       6.5333      2.00000
     14       6.5406      2.00000
     15       6.7862      2.00000
     16       6.9378      2.00000
     17      17.7723      0.00000
     18      17.8900      0.00000
     19      17.9191      0.00000
     20      17.9713      0.00000
     21      18.2582      0.00000
     22      18.3772      0.00000
     23      18.4845      0.00000
     24      18.5017      0.00000

 k-point   178 :      -0.4167    0.4167    0.3333
  band No.  band energies     occupation 
      1      -7.6969      2.00000
      2      -6.3895      2.00000
      3      -6.2053      2.00000
      4      -5.7218      2.00000
      5      -3.2834      2.00000
      6      -2.6320      2.00000
      7      -2.5592      2.00000
      8      -1.3578      2.00000
      9       5.3737      2.00000
     10       5.6802      2.00000
     11       5.8288      2.00000
     12       6.2669      2.00000
     13       6.3638      2.00000
     14       6.4615      2.00000
     15       6.7853      2.00000
     16       7.2414      2.00000
     17      17.4688      0.00000
     18      17.5343      0.00000
     19      17.6419      0.00000
     20      17.9856      0.00000
     21      18.2395      0.00000
     22      18.6583      0.00000
     23      18.6592      0.00000
     24      18.7564      0.00000

 k-point   179 :      -0.3333    0.4167    0.3333
  band No.  band energies     occupation 
      1      -8.2093      2.00000
      2      -6.8302      2.00000
      3      -5.7498      2.00000
      4      -5.5017      2.00000
      5      -2.9319      2.00000
      6      -2.9242      2.00000
      7      -1.8834      2.00000
      8      -0.5455      2.00000
      9       4.8150      2.00000
     10       4.9972      2.00000
     11       5.8359      2.00000
     12       5.8584      2.00000
     13       5.9654      2.00000
     14       6.1618      2.00000
     15       6.9920      2.00000
     16       7.3036      2.00000
     17      17.1481      0.00000
     18      17.1706      0.00000
     19      17.3852      0.00000
     20      17.6731      0.00000
     21      18.3546      0.00000
     22      18.6582      0.00000
     23      19.2394      0.00000
     24      19.6444      0.00000

 k-point   180 :       0.5000    0.5000    0.3333
  band No.  band energies     occupation 
      1      -6.5327      2.00000
      2      -6.5327      2.00000
      3      -6.5056      2.00000
      4      -6.3216      2.00000
      5      -2.7380      2.00000
      6      -2.7094      2.00000
      7      -2.7094      2.00000
      8      -2.6625      2.00000
      9       5.9057      2.00000
     10       6.0758      2.00000
     11       6.0758      2.00000
     12       6.0853      2.00000
     13       6.7174      2.00000
     14       6.8774      2.00000
     15       6.8774      2.00000
     16       6.8958      2.00000
     17      17.8814      0.00000
     18      18.0025      0.00000
     19      18.0089      0.00000
     20      18.0089      0.00000
     21      18.3422      0.00000
     22      18.3681      0.00000
     23      18.5718      0.00000
     24      18.5721      0.00000

 k-point   181 :      -0.4167    0.5000    0.3333
  band No.  band energies     occupation 
      1      -7.0812      2.00000
      2      -7.0659      2.00000
      3      -5.9857      2.00000
      4      -5.7288      2.00000
      5      -3.1392      2.00000
      6      -3.1362      2.00000
      7      -2.0862      2.00000
      8      -2.0699      2.00000
      9       5.4945      2.00000
     10       5.6866      2.00000
     11       6.3616      2.00000
     12       6.3988      2.00000
     13       6.4081      2.00000
     14       6.4979      2.00000
     15       6.9337      2.00000
     16       6.9711      2.00000
     17      17.7618      0.00000
     18      17.8425      0.00000
     19      17.8531      0.00000
     20      17.8673      0.00000
     21      18.3722      0.00000
     22      18.3952      0.00000
     23      18.7073      0.00000
     24      18.9086      0.00000

 k-point   182 :      -0.3333    0.5000    0.3333
  band No.  band energies     occupation 
      1      -7.5641      2.00000
      2      -7.5641      2.00000
      3      -5.6133      2.00000
      4      -5.3266      2.00000
      5      -3.2035      2.00000
      6      -3.1746      2.00000
      7      -1.2793      2.00000
      8      -1.2793      2.00000
      9       4.8791      2.00000
     10       5.0876      2.00000
     11       5.9089      2.00000
     12       6.0164      2.00000
     13       6.5637      2.00000
     14       6.5637      2.00000
     15       6.7526      2.00000
     16       6.7526      2.00000
     17      17.4567      0.00000
     18      17.4567      0.00000
     19      17.7417      0.00000
     20      17.8637      0.00000
     21      18.4333      0.00000
     22      18.9282      0.00000
     23      18.9292      0.00000
     24      19.0086      0.00000

 k-point   183 :      -0.4167   -0.4167    0.3333
  band No.  band energies     occupation 
      1      -7.6836      2.00000
      2      -6.4058      2.00000
      3      -6.4058      2.00000
      4      -5.4373      2.00000
      5      -3.3139      2.00000
      6      -2.6206      2.00000
      7      -2.6206      2.00000
      8      -1.3782      2.00000
      9       5.2196      2.00000
     10       5.8845      2.00000
     11       5.8845      2.00000
     12       6.1922      2.00000
     13       6.3937      2.00000
     14       6.3937      2.00000
     15       6.7907      2.00000
     16       7.2780      2.00000
     17      17.3193      0.00000
     18      17.6379      0.00000
     19      17.6379      0.00000
     20      17.8685      0.00000
     21      18.2235      0.00000
     22      18.7481      0.00000
     23      19.0946      0.00000
     24      19.0984      0.00000

 k-point   184 :       0.4167    0.4167    0.4167
  band No.  band energies     occupation 
      1      -7.0326      2.00000
      2      -6.1014      2.00000
      3      -6.1014      2.00000
      4      -6.1014      2.00000
      5      -3.2375      2.00000
      6      -3.2375      2.00000
      7      -3.2375      2.00000
      8      -2.0758      2.00000
      9       6.2681      2.00000
     10       6.2681      2.00000
     11       6.2681      2.00000
     12       6.5959      2.00000
     13       6.5959      2.00000
     14       6.5959      2.00000
     15       6.8876      2.00000
     16       6.8876      2.00000
     17      17.7339      0.00000
     18      17.7339      0.00000
     19      17.7339      0.00000
     20      18.0243      0.00000
     21      18.0243      0.00000
     22      18.0481      0.00000
     23      18.6487      0.00000
     24      18.6487      0.00000

 k-point   185 :       0.5000    0.4167    0.4167
  band No.  band energies     occupation 
      1      -6.6474      2.00000
      2      -6.4363      2.00000
      3      -5.9446      2.00000
      4      -5.9446      2.00000
      5      -3.5117      2.00000
      6      -3.5117      2.00000
      7      -2.8214      2.00000
      8      -2.7723      2.00000
      9       6.3614      2.00000
     10       6.3614      2.00000
     11       6.6560      2.00000
     12       6.7107      2.00000
     13       6.7362      2.00000
     14       6.7362      2.00000
     15       6.8519      2.00000
     16       6.8575      2.00000
     17      17.8452      0.00000
     18      17.9929      0.00000
     19      18.0723      0.00000
     20      18.0724      0.00000
     21      18.2270      0.00000
     22      18.2344      0.00000
     23      18.2355      0.00000
     24      18.2646      0.00000

 k-point   186 :      -0.4167    0.4167    0.4167
  band No.  band energies     occupation 
      1      -7.1986      2.00000
      2      -6.0885      2.00000
      3      -6.0885      2.00000
      4      -5.8404      2.00000
      5      -3.2631      2.00000
      6      -3.2631      2.00000
      7      -3.2487      2.00000
      8      -2.1761      2.00000
      9       6.1221      2.00000
     10       6.2948      2.00000
     11       6.2948      2.00000
     12       6.4188      2.00000
     13       6.5934      2.00000
     14       6.5934      2.00000
     15       7.0388      2.00000
     16       7.0852      2.00000
     17      17.5949      0.00000
     18      17.7481      0.00000
     19      17.7481      0.00000
     20      17.9600      0.00000
     21      18.1563      0.00000
     22      18.6222      0.00000
     23      18.6667      0.00000
     24      18.8040      0.00000

 k-point   187 :       0.5000    0.5000    0.4167
  band No.  band energies     occupation 
      1      -6.2110      2.00000
      2      -6.2110      2.00000
      3      -6.2019      2.00000
      4      -5.9538      2.00000
      5      -3.3759      2.00000
      6      -3.3666      2.00000
      7      -3.3666      2.00000
      8      -3.3601      2.00000
      9       6.5323      2.00000
     10       6.6986      2.00000
     11       6.7179      2.00000
     12       6.7179      2.00000
     13       6.7499      2.00000
     14       6.9178      2.00000
     15       6.9178      2.00000
     16       6.9496      2.00000
     17      17.9970      0.00000
     18      18.0118      0.00000
     19      18.0119      0.00000
     20      18.0786      0.00000
     21      18.1203      0.00000
     22      18.1349      0.00000
     23      18.2718      0.00000
     24      18.3027      0.00000

 k-point   188 :      -0.4167    0.5000    0.4167
  band No.  band energies     occupation 
      1      -6.6367      2.00000
      2      -6.6367      2.00000
      3      -5.9471      2.00000
      4      -5.6595      2.00000
      5      -3.5393      2.00000
      6      -3.5152      2.00000
      7      -2.8389      2.00000
      8      -2.8389      2.00000
      9       6.2046      2.00000
     10       6.4116      2.00000
     11       6.5456      2.00000
     12       6.6849      2.00000
     13       6.8220      2.00000
     14       6.8220      2.00000
     15       6.9056      2.00000
     16       6.9056      2.00000
     17      17.8912      0.00000
     18      17.8912      0.00000
     19      17.9106      0.00000
     20      17.9161      0.00000
     21      18.1563      0.00000
     22      18.3827      0.00000
     23      18.3828      0.00000
     24      18.6752      0.00000

 k-point   189 :       0.5000    0.5000    0.5000
  band No.  band energies     occupation 
      1      -6.0589      2.00000
      2      -6.0589      2.00000
      3      -6.0589      2.00000
      4      -5.7710      2.00000
      5      -3.6536      2.00000
      6      -3.6310      2.00000
      7      -3.6310      2.00000
      8      -3.6310      2.00000
      9       6.7631      2.00000
     10       6.7631      2.00000
     11       6.9173      2.00000
     12       6.9173      2.00000
     13       6.9173      2.00000
     14       6.9686      2.00000
     15       6.9686      2.00000
     16       6.9686      2.00000
     17      17.9861      0.00000
     18      17.9861      0.00000
     19      17.9883      0.00000
     20      18.0332      0.00000
     21      18.0354      0.00000
     22      18.1014      0.00000
     23      18.1887      0.00000
     24      18.1887      0.00000


--------------------------------------------------------------------------------------------------------


 soft charge-density along one line, spin component           1
         0         1         2         3         4         5         6         7         8         9
 total charge-density along one line
 
 pseudopotential strength for first ion, spin component:           1
  9.443  -0.005  -0.000  -0.000  -0.000   0.000   0.000   0.000
 -0.005  -0.002  -0.000  -0.000  -0.000   0.000   0.000   0.000
 -0.000  -0.000  -3.664   0.000   0.000  -0.009  -0.000  -0.000
 -0.000  -0.000   0.000  -3.664   0.000  -0.000  -0.009  -0.000
 -0.000  -0.000   0.000   0.000  -3.664  -0.000  -0.000  -0.009
  0.000   0.000  -0.009  -0.000  -0.000  -0.757   0.000   0.000
  0.000   0.000  -0.000  -0.009  -0.000   0.000  -0.757   0.000
  0.000   0.000  -0.000  -0.000  -0.009   0.000   0.000  -0.757
 total augmentation occupancy for first ion, spin component:           1
  1.423  -1.030  -0.003  -0.003  -0.003  -0.002  -0.002  -0.002
 -1.030   1.024   0.008   0.009   0.008   0.003   0.003   0.003
 -0.003   0.008   1.097   0.007   0.007   0.184   0.001   0.001
 -0.003   0.009   0.007   1.097   0.007   0.001   0.184   0.001
 -0.003   0.008   0.007   0.007   1.096   0.001   0.001   0.184
 -0.002   0.003   0.184   0.001   0.001   0.036   0.000   0.000
 -0.002   0.003   0.001   0.184   0.001   0.000   0.036   0.000
 -0.002   0.003   0.001   0.001   0.184   0.000   0.000   0.036


------------------------ aborting loop because EDIFF is reached ----------------------------------------


    CHARGE:  cpu time    0.2624: real time    0.2624
    FORLOC:  cpu time    0.0021: real time    0.0021
    FORNL :  cpu time    0.4627: real time    0.4627
    STRESS:  cpu time    1.0785: real time    1.0788
    FORHAR:  cpu time    0.0057: real time    0.0057
    MIXING:  cpu time    0.0022: real time    0.0022
    OFIELD:  cpu time    0.0001: real time    0.0001

  FORCE on cell =-STRESS in cart. coord.  units (eV):
  Direction    XX          YY          ZZ          XY          YZ          ZX
  --------------------------------------------------------------------------------------
  Alpha Z   114.27193   114.27193   114.27193
  Ewald    -463.15042  -463.04716  -462.94062     5.16580     5.27066     5.21824
  Hartree    35.25827    35.28413    35.31080     1.29335     1.31961     1.30648
  E(xc)    -119.56202  -119.56189  -119.56176     0.00639     0.00652     0.00645
  Local     -46.96563   -47.08411   -47.20636    -5.92730    -6.04765    -5.98748
  n-local   -28.05815   -28.39410   -28.05340    -0.29348     0.24980    -0.64267
  augment    -2.82529    -2.82531    -2.82533    -0.00114    -0.00117    -0.00115
  Kinetic   504.07537   509.59777   516.18190     1.85056    -2.51126     4.54000
  Fock        0.00000     0.00000     0.00000     0.00000     0.00000     0.00000
  -------------------------------------------------------------------------------------
  Total      -1.21186    -1.17950    -1.14614     1.61802     1.65087     1.63445
  in kB     -42.54713   -41.41092   -40.23996    56.80705    57.96052    57.38379
  external pressure =      -41.40 kB  Pullay stress =        0.00 kB


 VOLUME and BASIS-vectors are now :
 -----------------------------------------------------------------------------
  energy-cutoff  :      400.00
  volume of cell :       45.63
      direct lattice vectors                 reciprocal lattice vectors
     3.573710000  0.000000000  0.000000000     0.279821250  0.002798345  0.002826755
    -0.035737000  3.573531000  0.000000000     0.000000000  0.279835267  0.002826741
    -0.035737000 -0.036096000  3.573349000     0.000000000  0.000000000  0.279849519

  length of vectors
     3.573710000  3.573709689  3.573709995     0.279849519  0.279849543  0.279849519


 FORCES acting on ions
    electron-ion (+dipol)            ewald-force                    non-local-force                 convergence-correction
 -----------------------------------------------------------------------------------------------
   -.176E+01 -.178E+01 -.180E+01   0.181E+01 0.183E+01 0.185E+01   -.127E-01 -.128E-01 -.130E-01   -.290E-04 -.293E-04 -.296E-04
   0.176E+01 0.178E+01 0.180E+01   -.181E+01 -.183E+01 -.185E+01   0.127E-01 0.128E-01 0.130E-01   0.290E-04 0.293E-04 0.296E-04
   -.176E+01 -.178E+01 -.180E+01   0.181E+01 0.183E+01 0.185E+01   -.127E-01 -.128E-01 -.130E-01   -.290E-04 -.293E-04 -.296E-04
   0.176E+01 0.178E+01 0.180E+01   -.181E+01 -.183E+01 -.185E+01   0.127E-01 0.128E-01 0.130E-01   0.290E-04 0.293E-04 0.296E-04
   -.176E+01 -.178E+01 -.180E+01   0.181E+01 0.183E+01 0.185E+01   -.127E-01 -.128E-01 -.130E-01   -.290E-04 -.293E-04 -.296E-04
   0.176E+01 0.178E+01 0.180E+01   -.181E+01 -.183E+01 -.185E+01   0.127E-01 0.128E-01 0.130E-01   0.290E-04 0.293E-04 0.296E-04
   -.176E+01 -.178E+01 -.180E+01   0.181E+01 0.183E+01 0.185E+01   -.127E-01 -.128E-01 -.130E-01   -.290E-04 -.293E-04 -.296E-04
   0.176E+01 0.178E+01 0.180E+01   -.181E+01 -.183E+01 -.185E+01   0.127E-01 0.128E-01 0.130E-01   0.290E-04 0.293E-04 0.296E-04
 -----------------------------------------------------------------------------------------------
   0.000E+00 0.124E-13 -.402E-13   -.295E-13 -.266E-14 -.133E-14   -.191E-16 0.416E-16 -.312E-16   -.491E-15 0.808E-14 -.246E-13
 
 
 POSITION                                       TOTAL-FORCE (eV/Angst)
 -----------------------------------------------------------------------------------
      0.85769      2.67112      0.89334         0.035949      0.036310      0.036679
     -0.01787     -0.01805      1.78667        -0.035949     -0.036310     -0.036679
      0.85769      0.86631      2.68001         0.035949      0.036310      0.036679
     -0.01787      1.78677      0.00000        -0.035949     -0.036310     -0.036679
      2.62668      2.65308      2.68001         0.035949      0.036310      0.036679
      1.78686      0.00000      0.00000        -0.035949     -0.036310     -0.036679
      2.66241      0.88436      0.89334         0.035949      0.036310      0.036679
      1.75112      1.76872      1.78667        -0.035949     -0.036310     -0.036679
 -----------------------------------------------------------------------------------
    total drift:                               -0.000000      0.000000     -0.000000


--------------------------------------------------------------------------------------------------------



  FREE ENERGIE OF THE ION-ELECTRON SYSTEM (eV)
  ---------------------------------------------------
  free  energy   TOTEN  =       -72.72453673 eV

  energy  without entropy=      -72.72453673  energy(sigma->0) =      -72.72453673
 


--------------------------------------------------------------------------------------------------------


    POTLOK:  cpu time    0.0283: real time    0.0283


--------------------------------------------------------------------------------------------------------


     LOOP+:  cpu time  124.0035: real time  124.0409
    4ORBIT:  cpu time    0.0000: real time    0.0000
 BZINTS: Fermi energy:  9.712641; 32.000000 electrons
         Band energy:  23.553874;  BLOECHL correction:  0.000000

 total amount of memory used by VASP MPI-rank0    37682. kBytes
=======================================================================

   base      :      30000. kBytes
   nonl-proj :       2640. kBytes
   fftplans  :        346. kBytes
   grid      :        481. kBytes
   one-center:          6. kBytes
   wavefun   :       4209. kBytes
 
  
  
 General timing and accounting informations for this job:
 ========================================================
  
                  Total CPU time used (sec):      127.637
                            User time (sec):      123.713
                          System time (sec):        3.924
                         Elapsed time (sec):      127.714
  
                   Maximum memory used (kb):      193692.
                   Average memory used (kb):           0.
  
                          Minor page faults:        36889
                          Major page faults:           36
                 Voluntary context switches:          783
