<?xml version="1.0" encoding="ISO-8859-1"?>
<modeling>
 <generator>
  <i name="program" type="string">vasp </i>
  <i name="version" type="string">5.4.4.18Apr17-6-g9f103f2a35  </i>
  <i name="subversion" type="string">(build Mar 12 2022 03:36:41) complex            parallel </i>
  <i name="platform" type="string">IFC19.0.3.199_CrayMPICH7.7.19 </i>
  <i name="date" type="string">2022 11 30 </i>
  <i name="time" type="string">12:44:41 </i>
 </generator>
 <incar>
  <i type="int" name="ISTART">     0</i>
  <i type="string" name="PREC">accurate</i>
  <i name="EDIFF">      0.00000100</i>
  <i name="POTIM">      0.02000000</i>
  <i type="int" name="ISMEAR">    -5</i>
  <i name="SIGMA">      0.06000000</i>
  <i type="logical" name="LWAVE"> F  </i>
  <i type="logical" name="LCHARG"> F  </i>
  <v type="int" name="KPOINT_BSE">    -1     0     0     0</v>
 </incar>
 <structure name="primitive_cell" >
  <crystal>
   <varray name="basis" >
    <v>      -0.03573700       1.76871750       1.78667450 </v>
    <v>       1.76898650      -0.01804800       1.78667450 </v>
    <v>       1.76898650       1.78676550      -0.00000000 </v>
   </varray>
   <i name="volume">     11.40859872 </i>
   <varray name="rec_basis" >
    <v>      -0.27982125       0.27703692       0.27984951 </v>
    <v>       0.27982125      -0.27703692       0.27984953 </v>
    <v>       0.27982125       0.28263361      -0.27419602 </v>
   </varray>
  </crystal>
  <varray name="positions" >
   <v>      -0.25000000      -0.25000000      -0.25000000 </v>
   <v>      -0.50000000      -0.50000000      -0.50000000 </v>
  </varray>
 </structure>
 <varray name="primitive_index" >
  <v type="int" >        1 </v>
  <v type="int" >        4 </v>
 </varray>
 <kpoints>
  <generation param="Gamma">
   <v type="int" name="divisions">      12       12       12 </v>
   <v name="usershift">      0.00000000       0.00000000       0.00000000 </v>
   <v name="genvec1">      0.08333333       0.00000000       0.00000000 </v>
   <v name="genvec2">      0.00000000       0.08333333       0.00000000 </v>
   <v name="genvec3">      0.00000000       0.00000000       0.08333333 </v>
   <v name="shift">      0.00000000       0.00000000       0.00000000 </v>
  </generation>
  <varray name="kpointlist" >
   <v>       0.00000000       0.00000000       0.00000000 </v>
   <v>       0.08333333      -0.00000000       0.00000000 </v>
   <v>       0.16666667      -0.00000000       0.00000000 </v>
   <v>       0.25000000      -0.00000000       0.00000000 </v>
   <v>       0.33333333      -0.00000000       0.00000000 </v>
   <v>       0.41666667      -0.00000000       0.00000000 </v>
   <v>       0.50000000      -0.00000000       0.00000000 </v>
   <v>       0.08333333       0.08333333       0.00000000 </v>
   <v>       0.16666667       0.08333333       0.00000000 </v>
   <v>       0.25000000       0.08333333       0.00000000 </v>
   <v>       0.33333333       0.08333333       0.00000000 </v>
   <v>       0.41666667       0.08333333      -0.00000000 </v>
   <v>       0.50000000       0.08333333       0.00000000 </v>
   <v>      -0.41666667       0.08333333       0.00000000 </v>
   <v>      -0.33333333       0.08333333      -0.00000000 </v>
   <v>      -0.25000000       0.08333333       0.00000000 </v>
   <v>      -0.16666667       0.08333333      -0.00000000 </v>
   <v>      -0.08333333       0.08333333      -0.00000000 </v>
   <v>       0.16666667       0.16666667       0.00000000 </v>
   <v>       0.25000000       0.16666667       0.00000000 </v>
   <v>       0.33333333       0.16666667       0.00000000 </v>
   <v>       0.41666667       0.16666667       0.00000000 </v>
   <v>       0.50000000       0.16666667       0.00000000 </v>
   <v>      -0.41666667       0.16666667      -0.00000000 </v>
   <v>      -0.33333333       0.16666667      -0.00000000 </v>
   <v>      -0.25000000       0.16666667       0.00000000 </v>
   <v>      -0.16666667       0.16666667      -0.00000000 </v>
   <v>       0.25000000       0.25000000       0.00000000 </v>
   <v>       0.33333333       0.25000000       0.00000000 </v>
   <v>       0.41666667       0.25000000       0.00000000 </v>
   <v>       0.50000000       0.25000000       0.00000000 </v>
   <v>      -0.41666667       0.25000000       0.00000000 </v>
   <v>      -0.33333333       0.25000000      -0.00000000 </v>
   <v>      -0.25000000       0.25000000       0.00000000 </v>
   <v>       0.33333333       0.33333333       0.00000000 </v>
   <v>       0.41666667       0.33333333       0.00000000 </v>
   <v>       0.50000000       0.33333333       0.00000000 </v>
   <v>      -0.41666667       0.33333333      -0.00000000 </v>
   <v>      -0.33333333       0.33333333       0.00000000 </v>
   <v>       0.41666667       0.41666667       0.00000000 </v>
   <v>       0.50000000       0.41666667       0.00000000 </v>
   <v>      -0.41666667       0.41666667       0.00000000 </v>
   <v>       0.50000000       0.50000000       0.00000000 </v>
   <v>       0.08333333       0.08333333       0.08333333 </v>
   <v>       0.16666667       0.08333333       0.08333333 </v>
   <v>       0.25000000       0.08333333       0.08333333 </v>
   <v>       0.33333333       0.08333333       0.08333333 </v>
   <v>       0.41666667       0.08333333       0.08333333 </v>
   <v>       0.50000000       0.08333333       0.08333333 </v>
   <v>      -0.41666667       0.08333333       0.08333333 </v>
   <v>      -0.33333333       0.08333333       0.08333333 </v>
   <v>      -0.25000000       0.08333333       0.08333333 </v>
   <v>      -0.16666667       0.08333333       0.08333333 </v>
   <v>      -0.08333333       0.08333333       0.08333333 </v>
   <v>       0.16666667       0.16666667       0.08333333 </v>
   <v>       0.25000000       0.16666667       0.08333333 </v>
   <v>       0.33333333       0.16666667       0.08333333 </v>
   <v>       0.41666667       0.16666667       0.08333333 </v>
   <v>       0.50000000       0.16666667       0.08333333 </v>
   <v>      -0.41666667       0.16666667       0.08333333 </v>
   <v>      -0.33333333       0.16666667       0.08333333 </v>
   <v>      -0.25000000       0.16666667       0.08333333 </v>
   <v>      -0.16666667       0.16666667       0.08333333 </v>
   <v>      -0.08333333       0.16666667       0.08333333 </v>
   <v>       0.25000000       0.25000000       0.08333333 </v>
   <v>       0.33333333       0.25000000       0.08333333 </v>
   <v>       0.41666667       0.25000000       0.08333333 </v>
   <v>       0.50000000       0.25000000       0.08333333 </v>
   <v>      -0.41666667       0.25000000       0.08333333 </v>
   <v>      -0.33333333       0.25000000       0.08333333 </v>
   <v>      -0.25000000       0.25000000       0.08333333 </v>
   <v>      -0.16666667       0.25000000       0.08333333 </v>
   <v>      -0.08333333       0.25000000       0.08333333 </v>
   <v>       0.33333333       0.33333333       0.08333333 </v>
   <v>       0.41666667       0.33333333       0.08333333 </v>
   <v>       0.50000000       0.33333333       0.08333333 </v>
   <v>      -0.41666667       0.33333333       0.08333333 </v>
   <v>      -0.33333333       0.33333333       0.08333333 </v>
   <v>      -0.25000000       0.33333333       0.08333333 </v>
   <v>      -0.16666667       0.33333333       0.08333333 </v>
   <v>      -0.08333333       0.33333333       0.08333333 </v>
   <v>       0.41666667       0.41666667       0.08333333 </v>
   <v>       0.50000000       0.41666667       0.08333333 </v>
   <v>      -0.41666667       0.41666667       0.08333333 </v>
   <v>      -0.33333333       0.41666667       0.08333333 </v>
   <v>      -0.25000000       0.41666667       0.08333333 </v>
   <v>      -0.16666667       0.41666667       0.08333333 </v>
   <v>      -0.08333333       0.41666667       0.08333333 </v>
   <v>       0.50000000       0.50000000       0.08333333 </v>
   <v>      -0.41666667       0.50000000       0.08333333 </v>
   <v>      -0.33333333       0.50000000       0.08333333 </v>
   <v>      -0.25000000       0.50000000       0.08333333 </v>
   <v>      -0.16666667       0.50000000       0.08333333 </v>
   <v>      -0.08333333       0.50000000       0.08333333 </v>
   <v>      -0.41666667      -0.41666667       0.08333333 </v>
   <v>      -0.33333333      -0.41666667       0.08333333 </v>
   <v>      -0.25000000      -0.41666667       0.08333333 </v>
   <v>      -0.16666667      -0.41666667       0.08333333 </v>
   <v>      -0.33333333      -0.33333333       0.08333333 </v>
   <v>      -0.25000000      -0.33333333       0.08333333 </v>
   <v>      -0.16666667      -0.33333333       0.08333333 </v>
   <v>      -0.25000000      -0.25000000       0.08333333 </v>
   <v>      -0.16666667      -0.25000000       0.08333333 </v>
   <v>      -0.16666667      -0.16666667       0.08333333 </v>
   <v>       0.16666667       0.16666667       0.16666667 </v>
   <v>       0.25000000       0.16666667       0.16666667 </v>
   <v>       0.33333333       0.16666667       0.16666667 </v>
   <v>       0.41666667       0.16666667       0.16666667 </v>
   <v>       0.50000000       0.16666667       0.16666667 </v>
   <v>      -0.41666667       0.16666667       0.16666667 </v>
   <v>      -0.33333333       0.16666667       0.16666667 </v>
   <v>      -0.25000000       0.16666667       0.16666667 </v>
   <v>      -0.16666667       0.16666667       0.16666667 </v>
   <v>       0.25000000       0.25000000       0.16666667 </v>
   <v>       0.33333333       0.25000000       0.16666667 </v>
   <v>       0.41666667       0.25000000       0.16666667 </v>
   <v>       0.50000000       0.25000000       0.16666667 </v>
   <v>      -0.41666667       0.25000000       0.16666667 </v>
   <v>      -0.33333333       0.25000000       0.16666667 </v>
   <v>      -0.25000000       0.25000000       0.16666667 </v>
   <v>      -0.16666667       0.25000000       0.16666667 </v>
   <v>       0.33333333       0.33333333       0.16666667 </v>
   <v>       0.41666667       0.33333333       0.16666667 </v>
   <v>       0.50000000       0.33333333       0.16666667 </v>
   <v>      -0.41666667       0.33333333       0.16666667 </v>
   <v>      -0.33333333       0.33333333       0.16666667 </v>
   <v>      -0.25000000       0.33333333       0.16666667 </v>
   <v>      -0.16666667       0.33333333       0.16666667 </v>
   <v>       0.41666667       0.41666667       0.16666667 </v>
   <v>       0.50000000       0.41666667       0.16666667 </v>
   <v>      -0.41666667       0.41666667       0.16666667 </v>
   <v>      -0.33333333       0.41666667       0.16666667 </v>
   <v>      -0.25000000       0.41666667       0.16666667 </v>
   <v>      -0.16666667       0.41666667       0.16666667 </v>
   <v>       0.50000000       0.50000000       0.16666667 </v>
   <v>      -0.41666667       0.50000000       0.16666667 </v>
   <v>      -0.33333333       0.50000000       0.16666667 </v>
   <v>      -0.25000000       0.50000000       0.16666667 </v>
   <v>      -0.16666667       0.50000000       0.16666667 </v>
   <v>      -0.41666667      -0.41666667       0.16666667 </v>
   <v>      -0.33333333      -0.41666667       0.16666667 </v>
   <v>      -0.25000000      -0.41666667       0.16666667 </v>
   <v>      -0.33333333      -0.33333333       0.16666667 </v>
   <v>      -0.25000000      -0.33333333       0.16666667 </v>
   <v>      -0.25000000      -0.25000000       0.16666667 </v>
   <v>       0.25000000       0.25000000       0.25000000 </v>
   <v>       0.33333333       0.25000000       0.25000000 </v>
   <v>       0.41666667       0.25000000       0.25000000 </v>
   <v>       0.50000000       0.25000000       0.25000000 </v>
   <v>      -0.41666667       0.25000000       0.25000000 </v>
   <v>      -0.33333333       0.25000000       0.25000000 </v>
   <v>      -0.25000000       0.25000000       0.25000000 </v>
   <v>       0.33333333       0.33333333       0.25000000 </v>
   <v>       0.41666667       0.33333333       0.25000000 </v>
   <v>       0.50000000       0.33333333       0.25000000 </v>
   <v>      -0.41666667       0.33333333       0.25000000 </v>
   <v>      -0.33333333       0.33333333       0.25000000 </v>
   <v>      -0.25000000       0.33333333       0.25000000 </v>
   <v>       0.41666667       0.41666667       0.25000000 </v>
   <v>       0.50000000       0.41666667       0.25000000 </v>
   <v>      -0.41666667       0.41666667       0.25000000 </v>
   <v>      -0.33333333       0.41666667       0.25000000 </v>
   <v>      -0.25000000       0.41666667       0.25000000 </v>
   <v>       0.50000000       0.50000000       0.25000000 </v>
   <v>      -0.41666667       0.50000000       0.25000000 </v>
   <v>      -0.33333333       0.50000000       0.25000000 </v>
   <v>      -0.25000000       0.50000000       0.25000000 </v>
   <v>      -0.41666667      -0.41666667       0.25000000 </v>
   <v>      -0.33333333      -0.41666667       0.25000000 </v>
   <v>      -0.33333333      -0.33333333       0.25000000 </v>
   <v>       0.33333333       0.33333333       0.33333333 </v>
   <v>       0.41666667       0.33333333       0.33333333 </v>
   <v>       0.50000000       0.33333333       0.33333333 </v>
   <v>      -0.41666667       0.33333333       0.33333333 </v>
   <v>      -0.33333333       0.33333333       0.33333333 </v>
   <v>       0.41666667       0.41666667       0.33333333 </v>
   <v>       0.50000000       0.41666667       0.33333333 </v>
   <v>      -0.41666667       0.41666667       0.33333333 </v>
   <v>      -0.33333333       0.41666667       0.33333333 </v>
   <v>       0.50000000       0.50000000       0.33333333 </v>
   <v>      -0.41666667       0.50000000       0.33333333 </v>
   <v>      -0.33333333       0.50000000       0.33333333 </v>
   <v>      -0.41666667      -0.41666667       0.33333333 </v>
   <v>       0.41666667       0.41666667       0.41666667 </v>
   <v>       0.50000000       0.41666667       0.41666667 </v>
   <v>      -0.41666667       0.41666667       0.41666667 </v>
   <v>       0.50000000       0.50000000       0.41666667 </v>
   <v>      -0.41666667       0.50000000       0.41666667 </v>
   <v>       0.50000000       0.50000000       0.50000000 </v>
  </varray>
  <varray name="weights" >
   <v>       0.00057870 </v>
   <v>       0.00347222 </v>
   <v>       0.00347222 </v>
   <v>       0.00347222 </v>
   <v>       0.00347222 </v>
   <v>       0.00347222 </v>
   <v>       0.00173611 </v>
   <v>       0.00347222 </v>
   <v>       0.00694444 </v>
   <v>       0.00694444 </v>
   <v>       0.00694444 </v>
   <v>       0.00694444 </v>
   <v>       0.00694444 </v>
   <v>       0.00694444 </v>
   <v>       0.00694444 </v>
   <v>       0.00694444 </v>
   <v>       0.00694444 </v>
   <v>       0.00347222 </v>
   <v>       0.00347222 </v>
   <v>       0.00694444 </v>
   <v>       0.00694444 </v>
   <v>       0.00694444 </v>
   <v>       0.00694444 </v>
   <v>       0.00694444 </v>
   <v>       0.00694444 </v>
   <v>       0.00694444 </v>
   <v>       0.00347222 </v>
   <v>       0.00347222 </v>
   <v>       0.00694444 </v>
   <v>       0.00694444 </v>
   <v>       0.00694444 </v>
   <v>       0.00694444 </v>
   <v>       0.00694444 </v>
   <v>       0.00347222 </v>
   <v>       0.00347222 </v>
   <v>       0.00694444 </v>
   <v>       0.00694444 </v>
   <v>       0.00694444 </v>
   <v>       0.00347222 </v>
   <v>       0.00347222 </v>
   <v>       0.00694444 </v>
   <v>       0.00347222 </v>
   <v>       0.00173611 </v>
   <v>       0.00115741 </v>
   <v>       0.00347222 </v>
   <v>       0.00347222 </v>
   <v>       0.00347222 </v>
   <v>       0.00347222 </v>
   <v>       0.00347222 </v>
   <v>       0.00347222 </v>
   <v>       0.00347222 </v>
   <v>       0.00347222 </v>
   <v>       0.00347222 </v>
   <v>       0.00347222 </v>
   <v>       0.00347222 </v>
   <v>       0.00694444 </v>
   <v>       0.00694444 </v>
   <v>       0.00694444 </v>
   <v>       0.00694444 </v>
   <v>       0.00694444 </v>
   <v>       0.00694444 </v>
   <v>       0.00694444 </v>
   <v>       0.00694444 </v>
   <v>       0.00694444 </v>
   <v>       0.00347222 </v>
   <v>       0.00694444 </v>
   <v>       0.00694444 </v>
   <v>       0.00694444 </v>
   <v>       0.00694444 </v>
   <v>       0.00694444 </v>
   <v>       0.00694444 </v>
   <v>       0.00694444 </v>
   <v>       0.00694444 </v>
   <v>       0.00347222 </v>
   <v>       0.00694444 </v>
   <v>       0.00694444 </v>
   <v>       0.00694444 </v>
   <v>       0.00694444 </v>
   <v>       0.00694444 </v>
   <v>       0.00694444 </v>
   <v>       0.00694444 </v>
   <v>       0.00347222 </v>
   <v>       0.00694444 </v>
   <v>       0.00694444 </v>
   <v>       0.00694444 </v>
   <v>       0.00694444 </v>
   <v>       0.00694444 </v>
   <v>       0.00694444 </v>
   <v>       0.00347222 </v>
   <v>       0.00694444 </v>
   <v>       0.00694444 </v>
   <v>       0.00694444 </v>
   <v>       0.00694444 </v>
   <v>       0.00347222 </v>
   <v>       0.00347222 </v>
   <v>       0.00694444 </v>
   <v>       0.00694444 </v>
   <v>       0.00694444 </v>
   <v>       0.00347222 </v>
   <v>       0.00694444 </v>
   <v>       0.00694444 </v>
   <v>       0.00347222 </v>
   <v>       0.00694444 </v>
   <v>       0.00347222 </v>
   <v>       0.00115741 </v>
   <v>       0.00347222 </v>
   <v>       0.00347222 </v>
   <v>       0.00347222 </v>
   <v>       0.00347222 </v>
   <v>       0.00347222 </v>
   <v>       0.00347222 </v>
   <v>       0.00347222 </v>
   <v>       0.00347222 </v>
   <v>       0.00347222 </v>
   <v>       0.00694444 </v>
   <v>       0.00694444 </v>
   <v>       0.00694444 </v>
   <v>       0.00694444 </v>
   <v>       0.00694444 </v>
   <v>       0.00694444 </v>
   <v>       0.00694444 </v>
   <v>       0.00347222 </v>
   <v>       0.00694444 </v>
   <v>       0.00694444 </v>
   <v>       0.00694444 </v>
   <v>       0.00694444 </v>
   <v>       0.00694444 </v>
   <v>       0.00694444 </v>
   <v>       0.00347222 </v>
   <v>       0.00694444 </v>
   <v>       0.00694444 </v>
   <v>       0.00694444 </v>
   <v>       0.00694444 </v>
   <v>       0.00694444 </v>
   <v>       0.00347222 </v>
   <v>       0.00694444 </v>
   <v>       0.00694444 </v>
   <v>       0.00694444 </v>
   <v>       0.00347222 </v>
   <v>       0.00347222 </v>
   <v>       0.00694444 </v>
   <v>       0.00694444 </v>
   <v>       0.00347222 </v>
   <v>       0.00694444 </v>
   <v>       0.00347222 </v>
   <v>       0.00115741 </v>
   <v>       0.00347222 </v>
   <v>       0.00347222 </v>
   <v>       0.00347222 </v>
   <v>       0.00347222 </v>
   <v>       0.00347222 </v>
   <v>       0.00347222 </v>
   <v>       0.00347222 </v>
   <v>       0.00694444 </v>
   <v>       0.00694444 </v>
   <v>       0.00694444 </v>
   <v>       0.00694444 </v>
   <v>       0.00694444 </v>
   <v>       0.00347222 </v>
   <v>       0.00694444 </v>
   <v>       0.00694444 </v>
   <v>       0.00694444 </v>
   <v>       0.00694444 </v>
   <v>       0.00347222 </v>
   <v>       0.00694444 </v>
   <v>       0.00694444 </v>
   <v>       0.00347222 </v>
   <v>       0.00347222 </v>
   <v>       0.00694444 </v>
   <v>       0.00347222 </v>
   <v>       0.00115741 </v>
   <v>       0.00347222 </v>
   <v>       0.00347222 </v>
   <v>       0.00347222 </v>
   <v>       0.00347222 </v>
   <v>       0.00347222 </v>
   <v>       0.00694444 </v>
   <v>       0.00694444 </v>
   <v>       0.00694444 </v>
   <v>       0.00347222 </v>
   <v>       0.00694444 </v>
   <v>       0.00347222 </v>
   <v>       0.00347222 </v>
   <v>       0.00115741 </v>
   <v>       0.00347222 </v>
   <v>       0.00347222 </v>
   <v>       0.00347222 </v>
   <v>       0.00347222 </v>
   <v>       0.00057870 </v>
  </varray>
  <varray name="tetrahedronlist"  type="int" >
   <v type="int" >        4        1        2        2        8 </v>
   <v type="int" >        4        2        2        8        8 </v>
   <v type="int" >        4        2        8        8       44 </v>
   <v type="int" >        4        2        3        8        9 </v>
   <v type="int" >        4        2        8        8        9 </v>
   <v type="int" >        4        8        8        9       44 </v>
   <v type="int" >        4        3        8        9        9 </v>
   <v type="int" >        8        8        9        9       45 </v>
   <v type="int" >        8        8        9       44       45 </v>
   <v type="int" >        4        3        4        9       10 </v>
   <v type="int" >        4        3        9        9       10 </v>
   <v type="int" >        4        9        9       10       45 </v>
   <v type="int" >        4        4        9       10       10 </v>
   <v type="int" >        4        9       10       10       46 </v>
   <v type="int" >        4        9       10       45       46 </v>
   <v type="int" >        4        4        5       10       11 </v>
   <v type="int" >        4        4       10       10       11 </v>
   <v type="int" >        4       10       10       11       46 </v>
   <v type="int" >        4        5       10       11       11 </v>
   <v type="int" >        4       10       11       11       47 </v>
   <v type="int" >        4       10       11       46       47 </v>
   <v type="int" >        4        5        6       11       12 </v>
   <v type="int" >        4        5       11       11       12 </v>
   <v type="int" >        4       11       11       12       47 </v>
   <v type="int" >        4        6       11       12       12 </v>
   <v type="int" >        4       11       12       12       48 </v>
   <v type="int" >        4       11       12       47       48 </v>
   <v type="int" >        8        6        7       12       13 </v>
   <v type="int" >        4        6       12       12       13 </v>
   <v type="int" >        4       12       12       13       48 </v>
   <v type="int" >        8        7       12       13       13 </v>
   <v type="int" >        4       12       13       13       49 </v>
   <v type="int" >        4       12       13       48       49 </v>
   <v type="int" >        4        6        7       13       14 </v>
   <v type="int" >        4        7       13       13       14 </v>
   <v type="int" >        4       13       13       14       49 </v>
   <v type="int" >        4        6       13       14       14 </v>
   <v type="int" >        4       13       14       14       50 </v>
   <v type="int" >        4       13       14       49       50 </v>
   <v type="int" >        4        5        6       14       15 </v>
   <v type="int" >        4        6       14       14       15 </v>
   <v type="int" >        4       14       14       15       50 </v>
   <v type="int" >        4        5       14       15       15 </v>
   <v type="int" >        4       14       15       15       51 </v>
   <v type="int" >        4       14       15       50       51 </v>
   <v type="int" >        4        4        5       15       16 </v>
   <v type="int" >        4        5       15       15       16 </v>
   <v type="int" >        4       15       15       16       51 </v>
   <v type="int" >        4        4       15       16       16 </v>
   <v type="int" >        4       15       16       16       52 </v>
   <v type="int" >        4       15       16       51       52 </v>
   <v type="int" >        4        3        4       16       17 </v>
   <v type="int" >        4        4       16       16       17 </v>
   <v type="int" >        4       16       16       17       52 </v>
   <v type="int" >        4        3       16       17       17 </v>
   <v type="int" >        4       16       17       17       53 </v>
   <v type="int" >        4       16       17       52       53 </v>
   <v type="int" >        4        2        3       17       18 </v>
   <v type="int" >        4        3       17       17       18 </v>
   <v type="int" >        8       17       17       18       53 </v>
   <v type="int" >        4        2       17       18       18 </v>
   <v type="int" >        4       17       18       18       54 </v>
   <v type="int" >        8       17       18       53       54 </v>
   <v type="int" >        8        1        2        2       18 </v>
   <v type="int" >        4        2        2       18       18 </v>
   <v type="int" >        4        2       18       18       54 </v>
   <v type="int" >        4        2        2        8       18 </v>
   <v type="int" >        4        2        8       18       54 </v>
   <v type="int" >        4        8        9       19       44 </v>
   <v type="int" >        4        9       19       44       45 </v>
   <v type="int" >        4       19       44       45       55 </v>
   <v type="int" >        4        9       10       20       45 </v>
   <v type="int" >        4        9       19       20       45 </v>
   <v type="int" >        4       19       20       45       55 </v>
   <v type="int" >        4       10       20       45       46 </v>
   <v type="int" >        4       20       45       46       56 </v>
   <v type="int" >        4       20       45       55       56 </v>
   <v type="int" >        4       10       11       21       46 </v>
   <v type="int" >        4       10       20       21       46 </v>
   <v type="int" >        4       20       21       46       56 </v>
   <v type="int" >        4       11       21       46       47 </v>
   <v type="int" >        4       21       46       47       57 </v>
   <v type="int" >        4       21       46       56       57 </v>
   <v type="int" >        4       11       12       22       47 </v>
   <v type="int" >        4       11       21       22       47 </v>
   <v type="int" >        4       21       22       47       57 </v>
   <v type="int" >        4       12       22       47       48 </v>
   <v type="int" >        4       22       47       48       58 </v>
   <v type="int" >        4       22       47       57       58 </v>
   <v type="int" >        4       12       13       23       48 </v>
   <v type="int" >        4       12       22       23       48 </v>
   <v type="int" >        4       22       23       48       58 </v>
   <v type="int" >        4       13       23       48       49 </v>
   <v type="int" >        4       23       48       49       59 </v>
   <v type="int" >        4       23       48       58       59 </v>
   <v type="int" >        4       13       14       24       49 </v>
   <v type="int" >        4       13       23       24       49 </v>
   <v type="int" >        4       23       24       49       59 </v>
   <v type="int" >        4       14       24       49       50 </v>
   <v type="int" >        4       24       49       50       60 </v>
   <v type="int" >        4       24       49       59       60 </v>
   <v type="int" >        4       14       15       25       50 </v>
   <v type="int" >        4       14       24       25       50 </v>
   <v type="int" >        4       24       25       50       60 </v>
   <v type="int" >        4       15       25       50       51 </v>
   <v type="int" >        4       25       50       51       61 </v>
   <v type="int" >        4       25       50       60       61 </v>
   <v type="int" >        4       15       16       26       51 </v>
   <v type="int" >        4       15       25       26       51 </v>
   <v type="int" >        4       25       26       51       61 </v>
   <v type="int" >        4       16       26       51       52 </v>
   <v type="int" >        4       26       51       52       62 </v>
   <v type="int" >        4       26       51       61       62 </v>
   <v type="int" >        4       16       17       27       52 </v>
   <v type="int" >        4       16       26       27       52 </v>
   <v type="int" >        4       26       27       52       62 </v>
   <v type="int" >        4       17       27       52       53 </v>
   <v type="int" >        4       27       52       53       63 </v>
   <v type="int" >        4       27       52       62       63 </v>
   <v type="int" >        4       17       17       27       53 </v>
   <v type="int" >        4       17       27       53       63 </v>
   <v type="int" >        4       17       53       54       64 </v>
   <v type="int" >        4       17       53       63       64 </v>
   <v type="int" >        4        2        3       18       54 </v>
   <v type="int" >        4        3       17       18       54 </v>
   <v type="int" >        4        3       17       54       64 </v>
   <v type="int" >        4        2        3        8       54 </v>
   <v type="int" >        4        3        8        9       54 </v>
   <v type="int" >        4        3        9       54       64 </v>
   <v type="int" >        4       19       20       28       55 </v>
   <v type="int" >        4       20       28       55       56 </v>
   <v type="int" >        4       28       55       56       65 </v>
   <v type="int" >        4       20       21       29       56 </v>
   <v type="int" >        4       20       28       29       56 </v>
   <v type="int" >        4       28       29       56       65 </v>
   <v type="int" >        4       21       29       56       57 </v>
   <v type="int" >        4       29       56       57       66 </v>
   <v type="int" >        4       29       56       65       66 </v>
   <v type="int" >        4       21       22       30       57 </v>
   <v type="int" >        4       21       29       30       57 </v>
   <v type="int" >        4       29       30       57       66 </v>
   <v type="int" >        4       22       30       57       58 </v>
   <v type="int" >        4       30       57       58       67 </v>
   <v type="int" >        4       30       57       66       67 </v>
   <v type="int" >        4       22       23       31       58 </v>
   <v type="int" >        4       22       30       31       58 </v>
   <v type="int" >        4       30       31       58       67 </v>
   <v type="int" >        4       23       31       58       59 </v>
   <v type="int" >        4       31       58       59       68 </v>
   <v type="int" >        4       31       58       67       68 </v>
   <v type="int" >        4       23       24       32       59 </v>
   <v type="int" >        4       23       31       32       59 </v>
   <v type="int" >        4       31       32       59       68 </v>
   <v type="int" >        4       24       32       59       60 </v>
   <v type="int" >        4       32       59       60       69 </v>
   <v type="int" >        4       32       59       68       69 </v>
   <v type="int" >        4       24       25       33       60 </v>
   <v type="int" >        4       24       32       33       60 </v>
   <v type="int" >        4       32       33       60       69 </v>
   <v type="int" >        4       25       33       60       61 </v>
   <v type="int" >        4       33       60       61       70 </v>
   <v type="int" >        4       33       60       69       70 </v>
   <v type="int" >        4       25       26       34       61 </v>
   <v type="int" >        4       25       33       34       61 </v>
   <v type="int" >        4       33       34       61       70 </v>
   <v type="int" >        4       26       34       61       62 </v>
   <v type="int" >        4       34       61       62       71 </v>
   <v type="int" >        4       34       61       70       71 </v>
   <v type="int" >        4       26       26       27       62 </v>
   <v type="int" >        4       26       26       34       62 </v>
   <v type="int" >        4       26       34       62       71 </v>
   <v type="int" >        4       26       27       62       63 </v>
   <v type="int" >        4       26       62       63       72 </v>
   <v type="int" >        4       26       62       71       72 </v>
   <v type="int" >        4       16       17       27       63 </v>
   <v type="int" >        4       16       26       27       63 </v>
   <v type="int" >        4       16       26       63       72 </v>
   <v type="int" >        4       16       17       63       64 </v>
   <v type="int" >        4       16       63       64       73 </v>
   <v type="int" >        4       16       63       72       73 </v>
   <v type="int" >        4        3        4       17       64 </v>
   <v type="int" >        4        4       16       17       64 </v>
   <v type="int" >        4        4       16       64       73 </v>
   <v type="int" >        4        3        4        9       64 </v>
   <v type="int" >        4        4        9       10       64 </v>
   <v type="int" >        4        4       10       64       73 </v>
   <v type="int" >        4       28       29       35       65 </v>
   <v type="int" >        4       29       35       65       66 </v>
   <v type="int" >        4       35       65       66       74 </v>
   <v type="int" >        4       29       30       36       66 </v>
   <v type="int" >        4       29       35       36       66 </v>
   <v type="int" >        4       35       36       66       74 </v>
   <v type="int" >        4       30       36       66       67 </v>
   <v type="int" >        4       36       66       67       75 </v>
   <v type="int" >        4       36       66       74       75 </v>
   <v type="int" >        4       30       31       37       67 </v>
   <v type="int" >        4       30       36       37       67 </v>
   <v type="int" >        4       36       37       67       75 </v>
   <v type="int" >        4       31       37       67       68 </v>
   <v type="int" >        4       37       67       68       76 </v>
   <v type="int" >        4       37       67       75       76 </v>
   <v type="int" >        4       31       32       38       68 </v>
   <v type="int" >        4       31       37       38       68 </v>
   <v type="int" >        4       37       38       68       76 </v>
   <v type="int" >        4       32       38       68       69 </v>
   <v type="int" >        4       38       68       69       77 </v>
   <v type="int" >        4       38       68       76       77 </v>
   <v type="int" >        4       32       33       39       69 </v>
   <v type="int" >        4       32       38       39       69 </v>
   <v type="int" >        4       38       39       69       77 </v>
   <v type="int" >        4       33       39       69       70 </v>
   <v type="int" >        4       39       69       70       78 </v>
   <v type="int" >        4       39       69       77       78 </v>
   <v type="int" >        4       33       33       34       70 </v>
   <v type="int" >        4       33       33       39       70 </v>
   <v type="int" >        4       33       39       70       78 </v>
   <v type="int" >        4       33       34       70       71 </v>
   <v type="int" >        4       33       70       71       79 </v>
   <v type="int" >        4       33       70       78       79 </v>
   <v type="int" >        4       25       26       34       71 </v>
   <v type="int" >        4       25       33       34       71 </v>
   <v type="int" >        4       25       33       71       79 </v>
   <v type="int" >        4       25       26       71       72 </v>
   <v type="int" >        4       25       71       72       80 </v>
   <v type="int" >        4       25       71       79       80 </v>
   <v type="int" >        4       15       16       26       72 </v>
   <v type="int" >        4       15       25       26       72 </v>
   <v type="int" >        4       15       25       72       80 </v>
   <v type="int" >        4       15       16       72       73 </v>
   <v type="int" >        4       15       72       73       81 </v>
   <v type="int" >        4       15       72       80       81 </v>
   <v type="int" >        4        4        5       16       73 </v>
   <v type="int" >        4        5       15       16       73 </v>
   <v type="int" >        4        5       15       73       81 </v>
   <v type="int" >        4        4        5       10       73 </v>
   <v type="int" >        4        5       10       11       73 </v>
   <v type="int" >        4        5       11       73       81 </v>
   <v type="int" >        4       35       36       40       74 </v>
   <v type="int" >        4       36       40       74       75 </v>
   <v type="int" >        4       40       74       75       82 </v>
   <v type="int" >        4       36       37       41       75 </v>
   <v type="int" >        4       36       40       41       75 </v>
   <v type="int" >        4       40       41       75       82 </v>
   <v type="int" >        4       37       41       75       76 </v>
   <v type="int" >        4       41       75       76       83 </v>
   <v type="int" >        4       41       75       82       83 </v>
   <v type="int" >        4       37       38       42       76 </v>
   <v type="int" >        4       37       41       42       76 </v>
   <v type="int" >        4       41       42       76       83 </v>
   <v type="int" >        4       38       42       76       77 </v>
   <v type="int" >        4       42       76       77       84 </v>
   <v type="int" >        4       42       76       83       84 </v>
   <v type="int" >        4       38       38       39       77 </v>
   <v type="int" >        4       38       38       42       77 </v>
   <v type="int" >        4       38       42       77       84 </v>
   <v type="int" >        4       38       39       77       78 </v>
   <v type="int" >        4       38       77       78       85 </v>
   <v type="int" >        4       38       77       84       85 </v>
   <v type="int" >        4       32       33       39       78 </v>
   <v type="int" >        4       32       38       39       78 </v>
   <v type="int" >        4       32       38       78       85 </v>
   <v type="int" >        4       32       33       78       79 </v>
   <v type="int" >        4       32       78       79       86 </v>
   <v type="int" >        4       32       78       85       86 </v>
   <v type="int" >        4       24       25       33       79 </v>
   <v type="int" >        4       24       32       33       79 </v>
   <v type="int" >        4       24       32       79       86 </v>
   <v type="int" >        4       24       25       79       80 </v>
   <v type="int" >        4       24       79       80       87 </v>
   <v type="int" >        4       24       79       86       87 </v>
   <v type="int" >        4       14       15       25       80 </v>
   <v type="int" >        4       14       24       25       80 </v>
   <v type="int" >        4       14       24       80       87 </v>
   <v type="int" >        4       14       15       80       81 </v>
   <v type="int" >        4       14       80       81       88 </v>
   <v type="int" >        4       14       80       87       88 </v>
   <v type="int" >        4        5        6       15       81 </v>
   <v type="int" >        4        6       14       15       81 </v>
   <v type="int" >        4        6       14       81       88 </v>
   <v type="int" >        4        5        6       11       81 </v>
   <v type="int" >        4        6       11       12       81 </v>
   <v type="int" >        4        6       12       81       88 </v>
   <v type="int" >        4       40       41       43       82 </v>
   <v type="int" >        4       41       43       82       83 </v>
   <v type="int" >        4       43       82       83       89 </v>
   <v type="int" >        4       41       41       42       83 </v>
   <v type="int" >        8       41       41       43       83 </v>
   <v type="int" >        8       41       43       83       89 </v>
   <v type="int" >        4       41       42       83       84 </v>
   <v type="int" >        4       41       83       84       90 </v>
   <v type="int" >        4       41       83       89       90 </v>
   <v type="int" >        4       37       38       42       84 </v>
   <v type="int" >        4       37       41       42       84 </v>
   <v type="int" >        4       37       41       84       90 </v>
   <v type="int" >        4       37       38       84       85 </v>
   <v type="int" >        4       37       84       85       91 </v>
   <v type="int" >        4       37       84       90       91 </v>
   <v type="int" >        4       31       32       38       85 </v>
   <v type="int" >        4       31       37       38       85 </v>
   <v type="int" >        4       31       37       85       91 </v>
   <v type="int" >        4       31       32       85       86 </v>
   <v type="int" >        4       31       85       86       92 </v>
   <v type="int" >        4       31       85       91       92 </v>
   <v type="int" >        4       23       24       32       86 </v>
   <v type="int" >        4       23       31       32       86 </v>
   <v type="int" >        4       23       31       86       92 </v>
   <v type="int" >        4       23       24       86       87 </v>
   <v type="int" >        4       23       86       87       93 </v>
   <v type="int" >        4       23       86       92       93 </v>
   <v type="int" >        4       13       14       24       87 </v>
   <v type="int" >        4       13       23       24       87 </v>
   <v type="int" >        4       13       23       87       93 </v>
   <v type="int" >        4       13       14       87       88 </v>
   <v type="int" >        4       13       87       88       94 </v>
   <v type="int" >        4       13       87       93       94 </v>
   <v type="int" >        4        6        7       14       88 </v>
   <v type="int" >        4        7       13       14       88 </v>
   <v type="int" >        8        7       13       88       94 </v>
   <v type="int" >        4        6        7       12       88 </v>
   <v type="int" >        4        7       12       13       88 </v>
   <v type="int" >        4       40       41       43       89 </v>
   <v type="int" >        4       40       41       89       90 </v>
   <v type="int" >        4       40       89       90       95 </v>
   <v type="int" >        4       36       37       41       90 </v>
   <v type="int" >        4       36       40       41       90 </v>
   <v type="int" >        4       36       40       90       95 </v>
   <v type="int" >        4       36       37       90       91 </v>
   <v type="int" >        4       36       90       91       96 </v>
   <v type="int" >        4       36       90       95       96 </v>
   <v type="int" >        4       30       31       37       91 </v>
   <v type="int" >        4       30       36       37       91 </v>
   <v type="int" >        4       30       36       91       96 </v>
   <v type="int" >        4       30       31       91       92 </v>
   <v type="int" >        4       30       91       92       97 </v>
   <v type="int" >        4       30       91       96       97 </v>
   <v type="int" >        4       22       23       31       92 </v>
   <v type="int" >        4       22       30       31       92 </v>
   <v type="int" >        4       22       30       92       97 </v>
   <v type="int" >        4       22       23       92       93 </v>
   <v type="int" >        4       22       92       93       98 </v>
   <v type="int" >        4       22       92       97       98 </v>
   <v type="int" >        4       12       13       23       93 </v>
   <v type="int" >        4       12       22       23       93 </v>
   <v type="int" >        4       12       22       93       98 </v>
   <v type="int" >        4       12       13       93       94 </v>
   <v type="int" >        4       12       88       93       94 </v>
   <v type="int" >        4       12       88       93       98 </v>
   <v type="int" >        8        6        7       13       94 </v>
   <v type="int" >        4        6       12       13       94 </v>
   <v type="int" >        4        6       12       88       94 </v>
   <v type="int" >        4        6       13       14       94 </v>
   <v type="int" >        4        6       14       88       94 </v>
   <v type="int" >        4       35       36       40       95 </v>
   <v type="int" >        4       35       36       95       96 </v>
   <v type="int" >        4       35       95       96       99 </v>
   <v type="int" >        4       29       30       36       96 </v>
   <v type="int" >        4       29       35       36       96 </v>
   <v type="int" >        4       29       35       96       99 </v>
   <v type="int" >        4       29       30       96       97 </v>
   <v type="int" >        4       29       96       97      100 </v>
   <v type="int" >        4       29       96       99      100 </v>
   <v type="int" >        4       21       22       30       97 </v>
   <v type="int" >        4       21       29       30       97 </v>
   <v type="int" >        4       21       29       97      100 </v>
   <v type="int" >        4       21       22       97       98 </v>
   <v type="int" >        4       21       97       98      101 </v>
   <v type="int" >        4       21       97      100      101 </v>
   <v type="int" >        4       11       12       22       98 </v>
   <v type="int" >        4       11       21       22       98 </v>
   <v type="int" >        4       11       21       98      101 </v>
   <v type="int" >        4       11       12       88       98 </v>
   <v type="int" >        4       11       81       88       98 </v>
   <v type="int" >        4       11       81       98      101 </v>
   <v type="int" >        4        5        6       12       88 </v>
   <v type="int" >        4        5       11       12       88 </v>
   <v type="int" >        4        5       11       81       88 </v>
   <v type="int" >        4        5        6       14       88 </v>
   <v type="int" >        4        5       14       15       88 </v>
   <v type="int" >        4        5       15       81       88 </v>
   <v type="int" >        4       28       29       35       99 </v>
   <v type="int" >        4       28       29       99      100 </v>
   <v type="int" >        4       28       99      100      102 </v>
   <v type="int" >        4       20       21       29      100 </v>
   <v type="int" >        4       20       28       29      100 </v>
   <v type="int" >        4       20       28      100      102 </v>
   <v type="int" >        4       20       21      100      101 </v>
   <v type="int" >        4       20      100      101      103 </v>
   <v type="int" >        4       20      100      102      103 </v>
   <v type="int" >        4       10       11       21      101 </v>
   <v type="int" >        4       10       20       21      101 </v>
   <v type="int" >        4       10       20      101      103 </v>
   <v type="int" >        4       10       11       81      101 </v>
   <v type="int" >        4       10       73       81      101 </v>
   <v type="int" >        4       10       73      101      103 </v>
   <v type="int" >        4        4        5       11       81 </v>
   <v type="int" >        4        4       10       11       81 </v>
   <v type="int" >        4        4       10       73       81 </v>
   <v type="int" >        4        4        5       15       81 </v>
   <v type="int" >        4        4       15       16       81 </v>
   <v type="int" >        4        4       16       73       81 </v>
   <v type="int" >        4       19       20       28      102 </v>
   <v type="int" >        4       19       20      102      103 </v>
   <v type="int" >        4       19      102      103      104 </v>
   <v type="int" >        4        9       10       20      103 </v>
   <v type="int" >        4        9       19       20      103 </v>
   <v type="int" >        4        9       19      103      104 </v>
   <v type="int" >        4        9       10       73      103 </v>
   <v type="int" >        4        9       64       73      103 </v>
   <v type="int" >        4        9       64      103      104 </v>
   <v type="int" >        4        3        4       10       73 </v>
   <v type="int" >        4        3        9       10       73 </v>
   <v type="int" >        4        3        9       64       73 </v>
   <v type="int" >        4        3        4       16       73 </v>
   <v type="int" >        4        3       16       17       73 </v>
   <v type="int" >        4        3       17       64       73 </v>
   <v type="int" >        4        8        9       19      104 </v>
   <v type="int" >        4        8        9       64      104 </v>
   <v type="int" >        4        8       54       64      104 </v>
   <v type="int" >        4        2        3        9       64 </v>
   <v type="int" >        4        2        8        9       64 </v>
   <v type="int" >        4        2        8       54       64 </v>
   <v type="int" >        4        2        3       17       64 </v>
   <v type="int" >        4        2       17       18       64 </v>
   <v type="int" >        4        2       18       54       64 </v>
   <v type="int" >        4        1        2        8       54 </v>
   <v type="int" >        8        1        2       18       54 </v>
   <v type="int" >        4        2        3        8       44 </v>
   <v type="int" >        4        3        8        9       44 </v>
   <v type="int" >        4        3        9       44       45 </v>
   <v type="int" >        4        9       44       45       45 </v>
   <v type="int" >        4        9        9       19       45 </v>
   <v type="int" >        4        9       19       45       55 </v>
   <v type="int" >        4        9       45       45       55 </v>
   <v type="int" >        4        9       10       19       46 </v>
   <v type="int" >        4        9       19       45       46 </v>
   <v type="int" >        4       19       45       46       55 </v>
   <v type="int" >        4       10       19       20       46 </v>
   <v type="int" >        4       19       20       46       56 </v>
   <v type="int" >        4       19       46       55       56 </v>
   <v type="int" >        4       10       11       20       47 </v>
   <v type="int" >        4       10       20       46       47 </v>
   <v type="int" >        4       20       46       47       56 </v>
   <v type="int" >        4       11       20       21       47 </v>
   <v type="int" >        4       20       21       47       57 </v>
   <v type="int" >        4       20       47       56       57 </v>
   <v type="int" >        4       11       12       21       48 </v>
   <v type="int" >        4       11       21       47       48 </v>
   <v type="int" >        4       21       47       48       57 </v>
   <v type="int" >        4       12       21       22       48 </v>
   <v type="int" >        4       21       22       48       58 </v>
   <v type="int" >        4       21       48       57       58 </v>
   <v type="int" >        4       12       13       22       49 </v>
   <v type="int" >        4       12       22       48       49 </v>
   <v type="int" >        4       22       48       49       58 </v>
   <v type="int" >        4       13       22       23       49 </v>
   <v type="int" >        4       22       23       49       59 </v>
   <v type="int" >        4       22       49       58       59 </v>
   <v type="int" >        4       13       14       23       50 </v>
   <v type="int" >        4       13       23       49       50 </v>
   <v type="int" >        4       23       49       50       59 </v>
   <v type="int" >        4       14       23       24       50 </v>
   <v type="int" >        4       23       24       50       60 </v>
   <v type="int" >        4       23       50       59       60 </v>
   <v type="int" >        4       14       15       24       51 </v>
   <v type="int" >        4       14       24       50       51 </v>
   <v type="int" >        4       24       50       51       60 </v>
   <v type="int" >        4       15       24       25       51 </v>
   <v type="int" >        4       24       25       51       61 </v>
   <v type="int" >        4       24       51       60       61 </v>
   <v type="int" >        4       15       16       25       52 </v>
   <v type="int" >        4       15       25       51       52 </v>
   <v type="int" >        4       25       51       52       61 </v>
   <v type="int" >        4       16       25       26       52 </v>
   <v type="int" >        4       25       26       52       62 </v>
   <v type="int" >        4       25       52       61       62 </v>
   <v type="int" >        4       16       17       26       53 </v>
   <v type="int" >        4       16       26       52       53 </v>
   <v type="int" >        4       26       52       53       62 </v>
   <v type="int" >        4       17       26       27       53 </v>
   <v type="int" >        4       26       27       53       63 </v>
   <v type="int" >        4       26       53       62       63 </v>
   <v type="int" >        8       17       18       27       54 </v>
   <v type="int" >        4       17       27       53       54 </v>
   <v type="int" >        4       27       53       54       63 </v>
   <v type="int" >        4       17       27       54       64 </v>
   <v type="int" >        4       27       54       63       64 </v>
   <v type="int" >        4        2        8       17       18 </v>
   <v type="int" >        4        8       17       18       54 </v>
   <v type="int" >        4        8       17       54       64 </v>
   <v type="int" >        4        2        3        8       17 </v>
   <v type="int" >        4        3        8        9       17 </v>
   <v type="int" >        4        8        9       17       64 </v>
   <v type="int" >        4       44       45       45       55 </v>
   <v type="int" >        4       45       45       55       55 </v>
   <v type="int" >        4       45       55       55      105 </v>
   <v type="int" >        4       45       46       55       56 </v>
   <v type="int" >        4       45       55       55       56 </v>
   <v type="int" >        4       55       55       56      105 </v>
   <v type="int" >        4       46       55       56       56 </v>
   <v type="int" >        8       55       56       56      106 </v>
   <v type="int" >        8       55       56      105      106 </v>
   <v type="int" >        4       46       47       56       57 </v>
   <v type="int" >        4       46       56       56       57 </v>
   <v type="int" >        4       56       56       57      106 </v>
   <v type="int" >        4       47       56       57       57 </v>
   <v type="int" >        4       56       57       57      107 </v>
   <v type="int" >        4       56       57      106      107 </v>
   <v type="int" >        4       47       48       57       58 </v>
   <v type="int" >        4       47       57       57       58 </v>
   <v type="int" >        4       57       57       58      107 </v>
   <v type="int" >        4       48       57       58       58 </v>
   <v type="int" >        4       57       58       58      108 </v>
   <v type="int" >        4       57       58      107      108 </v>
   <v type="int" >        4       48       49       58       59 </v>
   <v type="int" >        4       48       58       58       59 </v>
   <v type="int" >        4       58       58       59      108 </v>
   <v type="int" >        4       49       58       59       59 </v>
   <v type="int" >        4       58       59       59      109 </v>
   <v type="int" >        4       58       59      108      109 </v>
   <v type="int" >        4       49       50       59       60 </v>
   <v type="int" >        4       49       59       59       60 </v>
   <v type="int" >        4       59       59       60      109 </v>
   <v type="int" >        4       50       59       60       60 </v>
   <v type="int" >        4       59       60       60      110 </v>
   <v type="int" >        4       59       60      109      110 </v>
   <v type="int" >        4       50       51       60       61 </v>
   <v type="int" >        4       50       60       60       61 </v>
   <v type="int" >        4       60       60       61      110 </v>
   <v type="int" >        4       51       60       61       61 </v>
   <v type="int" >        4       60       61       61      111 </v>
   <v type="int" >        4       60       61      110      111 </v>
   <v type="int" >        4       51       52       61       62 </v>
   <v type="int" >        4       51       61       61       62 </v>
   <v type="int" >        4       61       61       62      111 </v>
   <v type="int" >        4       52       61       62       62 </v>
   <v type="int" >        4       61       62       62      112 </v>
   <v type="int" >        4       61       62      111      112 </v>
   <v type="int" >        4       52       53       62       63 </v>
   <v type="int" >        4       52       62       62       63 </v>
   <v type="int" >        4       62       62       63      112 </v>
   <v type="int" >        4       53       62       63       63 </v>
   <v type="int" >        4       62       63       63      113 </v>
   <v type="int" >        4       62       63      112      113 </v>
   <v type="int" >        4       53       54       63       64 </v>
   <v type="int" >        4       53       63       63       64 </v>
   <v type="int" >        4       63       63       64      113 </v>
   <v type="int" >        4       54       63       64       64 </v>
   <v type="int" >        4       63       64       64      104 </v>
   <v type="int" >        4       63       64      104      113 </v>
   <v type="int" >        4        8        9       54       64 </v>
   <v type="int" >        4        9       54       64       64 </v>
   <v type="int" >        4        9       64       64      104 </v>
   <v type="int" >        4        8        9        9       64 </v>
   <v type="int" >        4        9        9       19       64 </v>
   <v type="int" >        4        9       19       64      104 </v>
   <v type="int" >        4       55       56       65      105 </v>
   <v type="int" >        4       56       65      105      106 </v>
   <v type="int" >        4       65      105      106      114 </v>
   <v type="int" >        4       56       57       66      106 </v>
   <v type="int" >        4       56       65       66      106 </v>
   <v type="int" >        4       65       66      106      114 </v>
   <v type="int" >        4       57       66      106      107 </v>
   <v type="int" >        4       66      106      107      115 </v>
   <v type="int" >        4       66      106      114      115 </v>
   <v type="int" >        4       57       58       67      107 </v>
   <v type="int" >        4       57       66       67      107 </v>
   <v type="int" >        4       66       67      107      115 </v>
   <v type="int" >        4       58       67      107      108 </v>
   <v type="int" >        4       67      107      108      116 </v>
   <v type="int" >        4       67      107      115      116 </v>
   <v type="int" >        4       58       59       68      108 </v>
   <v type="int" >        4       58       67       68      108 </v>
   <v type="int" >        4       67       68      108      116 </v>
   <v type="int" >        4       59       68      108      109 </v>
   <v type="int" >        4       68      108      109      117 </v>
   <v type="int" >        4       68      108      116      117 </v>
   <v type="int" >        4       59       60       69      109 </v>
   <v type="int" >        4       59       68       69      109 </v>
   <v type="int" >        4       68       69      109      117 </v>
   <v type="int" >        4       60       69      109      110 </v>
   <v type="int" >        4       69      109      110      118 </v>
   <v type="int" >        4       69      109      117      118 </v>
   <v type="int" >        4       60       61       70      110 </v>
   <v type="int" >        4       60       69       70      110 </v>
   <v type="int" >        4       69       70      110      118 </v>
   <v type="int" >        4       61       70      110      111 </v>
   <v type="int" >        4       70      110      111      119 </v>
   <v type="int" >        4       70      110      118      119 </v>
   <v type="int" >        4       61       62       71      111 </v>
   <v type="int" >        4       61       70       71      111 </v>
   <v type="int" >        4       70       71      111      119 </v>
   <v type="int" >        4       62       71      111      112 </v>
   <v type="int" >        4       71      111      112      120 </v>
   <v type="int" >        4       71      111      119      120 </v>
   <v type="int" >        4       62       63       72      112 </v>
   <v type="int" >        4       62       71       72      112 </v>
   <v type="int" >        4       71       72      112      120 </v>
   <v type="int" >        4       63       72      112      113 </v>
   <v type="int" >        4       72      112      113      121 </v>
   <v type="int" >        4       72      112      120      121 </v>
   <v type="int" >        4       63       64       73      113 </v>
   <v type="int" >        4       63       72       73      113 </v>
   <v type="int" >        4       72       73      113      121 </v>
   <v type="int" >        4       64       73      104      113 </v>
   <v type="int" >        4       73      103      104      113 </v>
   <v type="int" >        4       73      103      113      121 </v>
   <v type="int" >        4        9       10       64      104 </v>
   <v type="int" >        4       10       64       73      104 </v>
   <v type="int" >        4       10       73      103      104 </v>
   <v type="int" >        4        9       10       19      104 </v>
   <v type="int" >        4       10       19       20      104 </v>
   <v type="int" >        4       10       20      103      104 </v>
   <v type="int" >        4       65       66       74      114 </v>
   <v type="int" >        4       66       74      114      115 </v>
   <v type="int" >        4       74      114      115      122 </v>
   <v type="int" >        4       66       67       75      115 </v>
   <v type="int" >        4       66       74       75      115 </v>
   <v type="int" >        4       74       75      115      122 </v>
   <v type="int" >        4       67       75      115      116 </v>
   <v type="int" >        4       75      115      116      123 </v>
   <v type="int" >        4       75      115      122      123 </v>
   <v type="int" >        4       67       68       76      116 </v>
   <v type="int" >        4       67       75       76      116 </v>
   <v type="int" >        4       75       76      116      123 </v>
   <v type="int" >        4       68       76      116      117 </v>
   <v type="int" >        4       76      116      117      124 </v>
   <v type="int" >        4       76      116      123      124 </v>
   <v type="int" >        4       68       69       77      117 </v>
   <v type="int" >        4       68       76       77      117 </v>
   <v type="int" >        4       76       77      117      124 </v>
   <v type="int" >        4       69       77      117      118 </v>
   <v type="int" >        4       77      117      118      125 </v>
   <v type="int" >        4       77      117      124      125 </v>
   <v type="int" >        4       69       70       78      118 </v>
   <v type="int" >        4       69       77       78      118 </v>
   <v type="int" >        4       77       78      118      125 </v>
   <v type="int" >        4       70       78      118      119 </v>
   <v type="int" >        4       78      118      119      126 </v>
   <v type="int" >        4       78      118      125      126 </v>
   <v type="int" >        4       70       71       79      119 </v>
   <v type="int" >        4       70       78       79      119 </v>
   <v type="int" >        4       78       79      119      126 </v>
   <v type="int" >        4       71       79      119      120 </v>
   <v type="int" >        4       79      119      120      127 </v>
   <v type="int" >        4       79      119      126      127 </v>
   <v type="int" >        4       71       72       80      120 </v>
   <v type="int" >        4       71       79       80      120 </v>
   <v type="int" >        4       79       80      120      127 </v>
   <v type="int" >        4       72       80      120      121 </v>
   <v type="int" >        4       80      120      121      128 </v>
   <v type="int" >        4       80      120      127      128 </v>
   <v type="int" >        4       72       73       81      121 </v>
   <v type="int" >        4       72       80       81      121 </v>
   <v type="int" >        4       80       81      121      128 </v>
   <v type="int" >        4       73       81      103      121 </v>
   <v type="int" >        4       81      101      103      121 </v>
   <v type="int" >        4       81      101      121      128 </v>
   <v type="int" >        4       10       11       73      103 </v>
   <v type="int" >        4       11       73       81      103 </v>
   <v type="int" >        4       11       81      101      103 </v>
   <v type="int" >        4       10       11       20      103 </v>
   <v type="int" >        4       11       20       21      103 </v>
   <v type="int" >        4       11       21      101      103 </v>
   <v type="int" >        4       74       75       82      122 </v>
   <v type="int" >        4       75       82      122      123 </v>
   <v type="int" >        4       82      122      123      129 </v>
   <v type="int" >        4       75       76       83      123 </v>
   <v type="int" >        4       75       82       83      123 </v>
   <v type="int" >        4       82       83      123      129 </v>
   <v type="int" >        4       76       83      123      124 </v>
   <v type="int" >        4       83      123      124      130 </v>
   <v type="int" >        4       83      123      129      130 </v>
   <v type="int" >        4       76       77       84      124 </v>
   <v type="int" >        4       76       83       84      124 </v>
   <v type="int" >        4       83       84      124      130 </v>
   <v type="int" >        4       77       84      124      125 </v>
   <v type="int" >        4       84      124      125      131 </v>
   <v type="int" >        4       84      124      130      131 </v>
   <v type="int" >        4       77       78       85      125 </v>
   <v type="int" >        4       77       84       85      125 </v>
   <v type="int" >        4       84       85      125      131 </v>
   <v type="int" >        4       78       85      125      126 </v>
   <v type="int" >        4       85      125      126      132 </v>
   <v type="int" >        4       85      125      131      132 </v>
   <v type="int" >        4       78       79       86      126 </v>
   <v type="int" >        4       78       85       86      126 </v>
   <v type="int" >        4       85       86      126      132 </v>
   <v type="int" >        4       79       86      126      127 </v>
   <v type="int" >        4       86      126      127      133 </v>
   <v type="int" >        4       86      126      132      133 </v>
   <v type="int" >        4       79       80       87      127 </v>
   <v type="int" >        4       79       86       87      127 </v>
   <v type="int" >        4       86       87      127      133 </v>
   <v type="int" >        4       80       87      127      128 </v>
   <v type="int" >        4       87      127      128      134 </v>
   <v type="int" >        4       87      127      133      134 </v>
   <v type="int" >        4       80       81       88      128 </v>
   <v type="int" >        4       80       87       88      128 </v>
   <v type="int" >        4       87       88      128      134 </v>
   <v type="int" >        4       81       88      101      128 </v>
   <v type="int" >        4       88       98      101      128 </v>
   <v type="int" >        4       88       98      128      134 </v>
   <v type="int" >        4       11       12       81      101 </v>
   <v type="int" >        4       12       81       88      101 </v>
   <v type="int" >        4       12       88       98      101 </v>
   <v type="int" >        4       11       12       21      101 </v>
   <v type="int" >        4       12       21       22      101 </v>
   <v type="int" >        4       12       22       98      101 </v>
   <v type="int" >        4       82       83       89      129 </v>
   <v type="int" >        4       83       89      129      130 </v>
   <v type="int" >        4       89      129      130      135 </v>
   <v type="int" >        4       83       84       90      130 </v>
   <v type="int" >        4       83       89       90      130 </v>
   <v type="int" >        4       89       90      130      135 </v>
   <v type="int" >        4       84       90      130      131 </v>
   <v type="int" >        4       90      130      131      136 </v>
   <v type="int" >        4       90      130      135      136 </v>
   <v type="int" >        4       84       85       91      131 </v>
   <v type="int" >        4       84       90       91      131 </v>
   <v type="int" >        4       90       91      131      136 </v>
   <v type="int" >        4       85       91      131      132 </v>
   <v type="int" >        4       91      131      132      137 </v>
   <v type="int" >        4       91      131      136      137 </v>
   <v type="int" >        4       85       86       92      132 </v>
   <v type="int" >        4       85       91       92      132 </v>
   <v type="int" >        4       91       92      132      137 </v>
   <v type="int" >        4       86       92      132      133 </v>
   <v type="int" >        4       92      132      133      138 </v>
   <v type="int" >        4       92      132      137      138 </v>
   <v type="int" >        4       86       87       93      133 </v>
   <v type="int" >        4       86       92       93      133 </v>
   <v type="int" >        4       92       93      133      138 </v>
   <v type="int" >        4       87       93      133      134 </v>
   <v type="int" >        4       93      133      134      139 </v>
   <v type="int" >        4       93      133      138      139 </v>
   <v type="int" >        4       87       88       94      134 </v>
   <v type="int" >        4       87       93       94      134 </v>
   <v type="int" >        8       93       94      134      139 </v>
   <v type="int" >        4       88       94       98      134 </v>
   <v type="int" >        4       93       94       98      134 </v>
   <v type="int" >        4       12       13       88       98 </v>
   <v type="int" >        4       13       88       94       98 </v>
   <v type="int" >        4       13       93       94       98 </v>
   <v type="int" >        4       12       13       22       98 </v>
   <v type="int" >        4       13       22       23       98 </v>
   <v type="int" >        4       13       23       93       98 </v>
   <v type="int" >        4       89       90       95      135 </v>
   <v type="int" >        4       90       95      135      136 </v>
   <v type="int" >        4       95      135      136      140 </v>
   <v type="int" >        4       90       91       96      136 </v>
   <v type="int" >        4       90       95       96      136 </v>
   <v type="int" >        4       95       96      136      140 </v>
   <v type="int" >        4       91       96      136      137 </v>
   <v type="int" >        4       96      136      137      141 </v>
   <v type="int" >        4       96      136      140      141 </v>
   <v type="int" >        4       91       92       97      137 </v>
   <v type="int" >        4       91       96       97      137 </v>
   <v type="int" >        4       96       97      137      141 </v>
   <v type="int" >        4       92       97      137      138 </v>
   <v type="int" >        4       97      137      138      142 </v>
   <v type="int" >        4       97      137      141      142 </v>
   <v type="int" >        4       92       93       98      138 </v>
   <v type="int" >        4       92       97       98      138 </v>
   <v type="int" >        4       97       98      138      142 </v>
   <v type="int" >        4       93       98      138      139 </v>
   <v type="int" >        4       98      134      138      139 </v>
   <v type="int" >        4       98      134      138      142 </v>
   <v type="int" >        8       88       93       94      139 </v>
   <v type="int" >        4       88       93       98      139 </v>
   <v type="int" >        4       88       98      134      139 </v>
   <v type="int" >        4       87       88       93      139 </v>
   <v type="int" >        4       87       88      134      139 </v>
   <v type="int" >        4       13       14       93       94 </v>
   <v type="int" >        4       14       88       93       94 </v>
   <v type="int" >        4       14       87       88       93 </v>
   <v type="int" >        4       13       14       23       93 </v>
   <v type="int" >        4       14       23       24       93 </v>
   <v type="int" >        4       14       24       87       93 </v>
   <v type="int" >        4       95       96       99      140 </v>
   <v type="int" >        4       96       99      140      141 </v>
   <v type="int" >        4       99      140      141      143 </v>
   <v type="int" >        4       96       97      100      141 </v>
   <v type="int" >        4       96       99      100      141 </v>
   <v type="int" >        4       99      100      141      143 </v>
   <v type="int" >        4       97      100      141      142 </v>
   <v type="int" >        4      100      141      142      144 </v>
   <v type="int" >        4      100      141      143      144 </v>
   <v type="int" >        4       97       98      101      142 </v>
   <v type="int" >        4       97      100      101      142 </v>
   <v type="int" >        4      100      101      142      144 </v>
   <v type="int" >        4       98      101      134      142 </v>
   <v type="int" >        4      101      128      134      142 </v>
   <v type="int" >        4      101      128      142      144 </v>
   <v type="int" >        4       81       88       98      134 </v>
   <v type="int" >        4       81       98      101      134 </v>
   <v type="int" >        4       81      101      128      134 </v>
   <v type="int" >        4       81       87       88      134 </v>
   <v type="int" >        4       80       81       87      134 </v>
   <v type="int" >        4       80       81      128      134 </v>
   <v type="int" >        4       14       15       87       88 </v>
   <v type="int" >        4       15       81       87       88 </v>
   <v type="int" >        4       15       80       81       87 </v>
   <v type="int" >        4       14       15       24       87 </v>
   <v type="int" >        4       15       24       25       87 </v>
   <v type="int" >        4       15       25       80       87 </v>
   <v type="int" >        4       99      100      102      143 </v>
   <v type="int" >        4      100      102      143      144 </v>
   <v type="int" >        4      102      143      144      145 </v>
   <v type="int" >        4      100      101      103      144 </v>
   <v type="int" >        4      100      102      103      144 </v>
   <v type="int" >        4      102      103      144      145 </v>
   <v type="int" >        4      101      103      128      144 </v>
   <v type="int" >        4      103      121      128      144 </v>
   <v type="int" >        4      103      121      144      145 </v>
   <v type="int" >        4       73       81      101      128 </v>
   <v type="int" >        4       73      101      103      128 </v>
   <v type="int" >        4       73      103      121      128 </v>
   <v type="int" >        4       73       80       81      128 </v>
   <v type="int" >        4       72       73       80      128 </v>
   <v type="int" >        4       72       73      121      128 </v>
   <v type="int" >        4       15       16       80       81 </v>
   <v type="int" >        4       16       73       80       81 </v>
   <v type="int" >        4       16       72       73       80 </v>
   <v type="int" >        4       15       16       25       80 </v>
   <v type="int" >        4       16       25       26       80 </v>
   <v type="int" >        4       16       26       72       80 </v>
   <v type="int" >        4      102      103      104      145 </v>
   <v type="int" >        4      103      104      121      145 </v>
   <v type="int" >        4      104      113      121      145 </v>
   <v type="int" >        4       64       73      103      121 </v>
   <v type="int" >        4       64      103      104      121 </v>
   <v type="int" >        4       64      104      113      121 </v>
   <v type="int" >        4       64       72       73      121 </v>
   <v type="int" >        4       63       64       72      121 </v>
   <v type="int" >        4       63       64      113      121 </v>
   <v type="int" >        4       16       17       72       73 </v>
   <v type="int" >        4       17       64       72       73 </v>
   <v type="int" >        4       17       63       64       72 </v>
   <v type="int" >        4       16       17       26       72 </v>
   <v type="int" >        4       17       26       27       72 </v>
   <v type="int" >        4       17       27       63       72 </v>
   <v type="int" >        4       54       64      104      113 </v>
   <v type="int" >        4       54       63       64      113 </v>
   <v type="int" >        4       53       54       63      113 </v>
   <v type="int" >        4       17       18       63       64 </v>
   <v type="int" >        4       18       54       63       64 </v>
   <v type="int" >        4       18       53       54       63 </v>
   <v type="int" >        8       17       18       27       63 </v>
   <v type="int" >        4       17       18       53       63 </v>
   <v type="int" >        4        2       18       53       54 </v>
   <v type="int" >        4        2       17       18       53 </v>
   <v type="int" >        4        2        3       17       53 </v>
   <v type="int" >        4        3        4        9       45 </v>
   <v type="int" >        4        4        9       10       45 </v>
   <v type="int" >        4        4       10       45       46 </v>
   <v type="int" >        4        9       10       19       55 </v>
   <v type="int" >        4        9       10       45       55 </v>
   <v type="int" >        4       10       45       46       55 </v>
   <v type="int" >        4       10       19       20       55 </v>
   <v type="int" >        4       10       20       55       56 </v>
   <v type="int" >        4       10       46       55       56 </v>
   <v type="int" >        4       19       20       20       56 </v>
   <v type="int" >        4       19       20       55       56 </v>
   <v type="int" >        4       20       55       56       56 </v>
   <v type="int" >        4       20       20       28       56 </v>
   <v type="int" >        4       20       28       56       65 </v>
   <v type="int" >        4       20       56       56       65 </v>
   <v type="int" >        4       20       21       28       57 </v>
   <v type="int" >        4       20       28       56       57 </v>
   <v type="int" >        4       28       56       57       65 </v>
   <v type="int" >        4       21       28       29       57 </v>
   <v type="int" >        4       28       29       57       66 </v>
   <v type="int" >        4       28       57       65       66 </v>
[...]
       <r>   -6.0885    1.0000 </r>
       <r>   -5.8404    1.0000 </r>
       <r>   -3.2631    1.0000 </r>
       <r>   -3.2631    1.0000 </r>
       <r>   -3.2487    1.0000 </r>
       <r>   -2.1761    1.0000 </r>
       <r>    6.1221    1.0000 </r>
       <r>    6.2948    1.0000 </r>
       <r>    6.2948    1.0000 </r>
       <r>    6.4188    1.0000 </r>
       <r>    6.5934    1.0000 </r>
       <r>    6.5934    1.0000 </r>
       <r>    7.0388    1.0000 </r>
       <r>    7.0852    1.0000 </r>
       <r>   17.5949    0.0000 </r>
       <r>   17.7481    0.0000 </r>
       <r>   17.7481    0.0000 </r>
       <r>   17.9600    0.0000 </r>
       <r>   18.1563    0.0000 </r>
       <r>   18.6222    0.0000 </r>
       <r>   18.6667    0.0000 </r>
       <r>   18.8040    0.0000 </r>
      </set>
      <set comment="kpoint 187">
       <r>   -6.2110    1.0000 </r>
       <r>   -6.2110    1.0000 </r>
       <r>   -6.2019    1.0000 </r>
       <r>   -5.9538    1.0000 </r>
       <r>   -3.3759    1.0000 </r>
       <r>   -3.3666    1.0000 </r>
       <r>   -3.3666    1.0000 </r>
       <r>   -3.3601    1.0000 </r>
       <r>    6.5323    1.0000 </r>
       <r>    6.6986    1.0000 </r>
       <r>    6.7179    1.0000 </r>
       <r>    6.7179    1.0000 </r>
       <r>    6.7499    1.0000 </r>
       <r>    6.9178    1.0000 </r>
       <r>    6.9178    1.0000 </r>
       <r>    6.9496    1.0000 </r>
       <r>   17.9970    0.0000 </r>
       <r>   18.0118    0.0000 </r>
       <r>   18.0119    0.0000 </r>
       <r>   18.0786    0.0000 </r>
       <r>   18.1203    0.0000 </r>
       <r>   18.1349    0.0000 </r>
       <r>   18.2718    0.0000 </r>
       <r>   18.3027    0.0000 </r>
      </set>
      <set comment="kpoint 188">
       <r>   -6.6367    1.0000 </r>
       <r>   -6.6367    1.0000 </r>
       <r>   -5.9471    1.0000 </r>
       <r>   -5.6595    1.0000 </r>
       <r>   -3.5393    1.0000 </r>
       <r>   -3.5152    1.0000 </r>
       <r>   -2.8389    1.0000 </r>
       <r>   -2.8389    1.0000 </r>
       <r>    6.2046    1.0000 </r>
       <r>    6.4116    1.0000 </r>
       <r>    6.5456    1.0000 </r>
       <r>    6.6849    1.0000 </r>
       <r>    6.8220    1.0000 </r>
       <r>    6.8220    1.0000 </r>
       <r>    6.9056    1.0000 </r>
       <r>    6.9056    1.0000 </r>
       <r>   17.8912    0.0000 </r>
       <r>   17.8912    0.0000 </r>
       <r>   17.9106    0.0000 </r>
       <r>   17.9161    0.0000 </r>
       <r>   18.1563    0.0000 </r>
       <r>   18.3827    0.0000 </r>
       <r>   18.3828    0.0000 </r>
       <r>   18.6752    0.0000 </r>
      </set>
      <set comment="kpoint 189">
       <r>   -6.0589    1.0000 </r>
       <r>   -6.0589    1.0000 </r>
       <r>   -6.0589    1.0000 </r>
       <r>   -5.7710    1.0000 </r>
       <r>   -3.6536    1.0000 </r>
       <r>   -3.6310    1.0000 </r>
       <r>   -3.6310    1.0000 </r>
       <r>   -3.6310    1.0000 </r>
       <r>    6.7631    1.0000 </r>
       <r>    6.7631    1.0000 </r>
       <r>    6.9173    1.0000 </r>
       <r>    6.9173    1.0000 </r>
       <r>    6.9173    1.0000 </r>
       <r>    6.9686    1.0000 </r>
       <r>    6.9686    1.0000 </r>
       <r>    6.9686    1.0000 </r>
       <r>   17.9861    0.0000 </r>
       <r>   17.9861    0.0000 </r>
       <r>   17.9883    0.0000 </r>
       <r>   18.0332    0.0000 </r>
       <r>   18.0354    0.0000 </r>
       <r>   18.1014    0.0000 </r>
       <r>   18.1887    0.0000 </r>
       <r>   18.1887    0.0000 </r>
      </set>
     </set>
    </set>
   </array>
  </eigenvalues>
  <separator name="orbital magnetization" >
   <v name="MAGDIPOLOUT">      0.00000000      0.00000000      0.00000000</v>
  </separator>
  <dos>
   <i name="efermi">      9.71264062 </i>
   <total>
    <array>
     <dimension dim="1">gridpoints</dimension>
     <dimension dim="2">spin</dimension>
     <field>energy</field>
     <field>total</field>
     <field>integrated</field>
     <set>
      <set comment="spin 1">
       <r>   -13.3854     0.0000     0.0000 </r>
       <r>   -13.2639     0.0000     0.0000 </r>
       <r>   -13.1425     0.0000     0.0000 </r>
       <r>   -13.0210     0.0000     0.0000 </r>
       <r>   -12.8995     0.0000     0.0000 </r>
       <r>   -12.7780     0.0000     0.0000 </r>
       <r>   -12.6565     0.0000     0.0000 </r>
       <r>   -12.5350     0.0000     0.0000 </r>
       <r>   -12.4135     0.0000     0.0000 </r>
       <r>   -12.2920     0.0000     0.0000 </r>
       <r>   -12.1705     0.0000     0.0000 </r>
       <r>   -12.0491     0.0000     0.0000 </r>
       <r>   -11.9276     0.0000     0.0000 </r>
       <r>   -11.8061     0.0000     0.0000 </r>
       <r>   -11.6846     0.0349     0.0005 </r>
       <r>   -11.5631     0.1539     0.0149 </r>
       <r>   -11.4416     0.2409     0.0389 </r>
       <r>   -11.3201     0.2725     0.0697 </r>
       <r>   -11.1986     0.3199     0.1057 </r>
       <r>   -11.0771     0.3602     0.1475 </r>
       <r>   -10.9557     0.3892     0.1930 </r>
       <r>   -10.8342     0.4201     0.2420 </r>
       <r>   -10.7127     0.4583     0.2954 </r>
       <r>   -10.5912     0.4815     0.3526 </r>
       <r>   -10.4697     0.5049     0.4126 </r>
       <r>   -10.3482     0.5306     0.4754 </r>
       <r>   -10.2267     0.5588     0.5416 </r>
       <r>   -10.1052     0.5863     0.6112 </r>
       <r>    -9.9837     0.6057     0.6835 </r>
       <r>    -9.8623     0.6266     0.7584 </r>
       <r>    -9.7408     0.6500     0.8359 </r>
       <r>    -9.6193     0.6746     0.9164 </r>
       <r>    -9.4978     0.7011     0.9999 </r>
       <r>    -9.3763     0.7167     1.0864 </r>
       <r>    -9.2548     0.7327     1.1745 </r>
       <r>    -9.1333     0.7499     1.2645 </r>
       <r>    -9.0118     0.7688     1.3567 </r>
       <r>    -8.8903     0.7881     1.4512 </r>
       <r>    -8.7689     0.8113     1.5484 </r>
       <r>    -8.6474     0.8334     1.6484 </r>
       <r>    -8.5259     0.8499     1.7507 </r>
       <r>    -8.4044     0.8694     1.8551 </r>
       <r>    -8.2829     0.8885     1.9618 </r>
       <r>    -8.1614     0.9072     2.0709 </r>
       <r>    -8.0399     0.9257     2.1823 </r>
       <r>    -7.9184     0.9442     2.2959 </r>
       <r>    -7.7969     1.0110     2.4145 </r>
       <r>    -7.6755     1.0636     2.5399 </r>
       <r>    -7.5540     1.0942     2.6713 </r>
       <r>    -7.4325     1.0908     2.8043 </r>
       <r>    -7.3110     1.0635     2.9354 </r>
       <r>    -7.1895     1.0358     3.0616 </r>
       <r>    -7.0680     1.0638     3.1893 </r>
       <r>    -6.9465     1.0787     3.3196 </r>
       <r>    -6.8250     1.0878     3.4512 </r>
       <r>    -6.7035     1.1268     3.5853 </r>
       <r>    -6.5821     1.1892     3.7262 </r>
       <r>    -6.4606     1.2279     3.8709 </r>
       <r>    -6.3391     1.3213     4.0265 </r>
       <r>    -6.2176     1.3369     4.1878 </r>
       <r>    -6.0961     1.4877     4.3586 </r>
       <r>    -5.9746     1.5377     4.5446 </r>
       <r>    -5.8531     1.5597     4.7311 </r>
       <r>    -5.7316     1.5596     4.9217 </r>
       <r>    -5.6101     1.4392     5.1037 </r>
       <r>    -5.4887     1.4272     5.2754 </r>
       <r>    -5.3672     1.4169     5.4498 </r>
       <r>    -5.2457     1.4213     5.6223 </r>
       <r>    -5.1242     1.3770     5.7920 </r>
       <r>    -5.0027     1.2711     5.9525 </r>
       <r>    -4.8812     1.2147     6.1022 </r>
       <r>    -4.7597     1.1974     6.2495 </r>
       <r>    -4.6382     1.2023     6.3947 </r>
       <r>    -4.5167     1.1410     6.5391 </r>
       <r>    -4.3953     1.0720     6.6728 </r>
       <r>    -4.2738     1.0829     6.8056 </r>
       <r>    -4.1523     1.0655     6.9391 </r>
       <r>    -4.0308     1.0087     7.0635 </r>
       <r>    -3.9093     0.9747     7.1831 </r>
       <r>    -3.7878     0.9680     7.3019 </r>
       <r>    -3.6663     0.9331     7.4187 </r>
       <r>    -3.5448     0.8866     7.5286 </r>
       <r>    -3.4233     1.0078     7.6440 </r>
       <r>    -3.3019     0.9564     7.7621 </r>
       <r>    -3.1804     1.0227     7.8861 </r>
       <r>    -3.0589     1.0270     8.0076 </r>
       <r>    -2.9374     1.0278     8.1258 </r>
       <r>    -2.8159     1.0111     8.2462 </r>
       <r>    -2.6944     0.9531     8.3646 </r>
       <r>    -2.5729     0.9365     8.4775 </r>
       <r>    -2.4514     1.0195     8.5958 </r>
       <r>    -2.3299     1.1957     8.7293 </r>
       <r>    -2.2085     1.3997     8.8873 </r>
       <r>    -2.0870     1.6351     9.0712 </r>
       <r>    -1.9655     1.9646     9.2874 </r>
       <r>    -1.8440     2.4346     9.5528 </r>
       <r>    -1.7225     2.8364     9.8787 </r>
       <r>    -1.6010     2.8258    10.2311 </r>
       <r>    -1.4795     2.2644    10.5341 </r>
       <r>    -1.3580     1.8256    10.7787 </r>
       <r>    -1.2365     1.6680    10.9901 </r>
       <r>    -1.1151     1.5648    11.1863 </r>
       <r>    -0.9936     1.4775    11.3709 </r>
       <r>    -0.8721     1.4126    11.5461 </r>
       <r>    -0.7506     1.3690    11.7150 </r>
       <r>    -0.6291     1.3343    11.8791 </r>
       <r>    -0.5076     1.3058    12.0392 </r>
       <r>    -0.3861     1.2437    12.1952 </r>
       <r>    -0.2646     1.2608    12.3502 </r>
       <r>    -0.1431     1.1129    12.4905 </r>
       <r>    -0.0217     1.0935    12.6245 </r>
       <r>     0.0998     1.0821    12.7566 </r>
       <r>     0.2213     1.0762    12.8876 </r>
       <r>     0.3428     1.0213    13.0168 </r>
       <r>     0.4643     1.0788    13.1391 </r>
       <r>     0.5858     1.3843    13.2893 </r>
       <r>     0.7073     1.6573    13.4741 </r>
       <r>     0.8288     1.9199    13.6910 </r>
       <r>     0.9503     2.3504    13.9479 </r>
       <r>     1.0717     2.2401    14.2272 </r>
       <r>     1.1932     2.1044    14.4896 </r>
       <r>     1.3147     2.1918    14.7496 </r>
       <r>     1.4362     2.2451    15.0198 </r>
       <r>     1.5577     2.1173    15.2880 </r>
       <r>     1.6792     1.7342    15.5225 </r>
       <r>     1.8007     1.4155    15.7112 </r>
       <r>     1.9222     1.6387    15.8934 </r>
       <r>     2.0437     1.9422    16.1103 </r>
       <r>     2.1651     2.1800    16.3616 </r>
       <r>     2.2866     2.3766    16.6387 </r>
       <r>     2.4081     2.3539    16.9265 </r>
       <r>     2.5296     2.3086    17.2118 </r>
       <r>     2.6511     2.3158    17.4919 </r>
       <r>     2.7726     2.4046    17.7759 </r>
       <r>     2.8941     2.6738    18.0835 </r>
       <r>     3.0156     3.0772    18.4279 </r>
       <r>     3.1371     2.9331    18.8097 </r>
       <r>     3.2585     2.4670    19.1418 </r>
       <r>     3.3800     2.4324    19.4306 </r>
       <r>     3.5015     2.5925    19.7660 </r>
       <r>     3.6230     2.8281    20.0938 </r>
       <r>     3.7445     2.9847    20.4447 </r>
       <r>     3.8660     3.6263    20.8484 </r>
       <r>     3.9875     4.1531    21.3214 </r>
       <r>     4.1090     3.3626    21.7561 </r>
       <r>     4.2305     2.9440    22.1443 </r>
       <r>     4.3519     2.5866    22.4753 </r>
       <r>     4.4734     2.6929    22.7909 </r>
       <r>     4.5949     2.9745    23.1376 </r>
       <r>     4.7164     2.7861    23.4883 </r>
       <r>     4.8379     2.9090    23.8326 </r>
       <r>     4.9594     2.9427    24.1925 </r>
       <r>     5.0809     2.9498    24.5486 </r>
       <r>     5.2024     3.0109    24.9109 </r>
       <r>     5.3239     3.1066    25.2807 </r>
       <r>     5.4453     2.9940    25.6527 </r>
       <r>     5.5668     2.6223    25.9940 </r>
       <r>     5.6883     2.3534    26.2939 </r>
       <r>     5.8098     2.4991    26.5845 </r>
       <r>     5.9313     2.4455    26.8786 </r>
       <r>     6.0528     2.7647    27.1952 </r>
       <r>     6.1743     2.8732    27.5356 </r>
       <r>     6.2958     2.7617    27.8757 </r>
       <r>     6.4173     2.6792    28.2064 </r>
       <r>     6.5387     2.6134    28.5291 </r>
       <r>     6.6602     2.4410    28.8317 </r>
       <r>     6.7817     2.2959    29.1206 </r>
       <r>     6.9032     2.7963    29.4254 </r>
       <r>     7.0247     2.0268    29.7236 </r>
       <r>     7.1462     1.7816    29.9538 </r>
       <r>     7.2677     1.6236    30.1597 </r>
       <r>     7.3892     1.4678    30.3466 </r>
       <r>     7.5107     1.3574    30.5175 </r>
       <r>     7.6321     1.2808    30.6777 </r>
       <r>     7.7536     1.2031    30.8288 </r>
       <r>     7.8751     1.0960    30.9684 </r>
       <r>     7.9966     0.9834    31.0944 </r>
       <r>     8.1181     0.9045    31.2088 </r>
       <r>     8.2396     0.8566    31.3157 </r>
       <r>     8.3611     0.8155    31.4169 </r>
       <r>     8.4826     0.7364    31.5122 </r>
       <r>     8.6041     0.6655    31.5973 </r>
       <r>     8.7255     0.5898    31.6734 </r>
       <r>     8.8470     0.5437    31.7416 </r>
       <r>     8.9685     0.4937    31.8060 </r>
       <r>     9.0900     0.3804    31.8580 </r>
       <r>     9.2115     0.3734    31.9016 </r>
       <r>     9.3330     0.3750    31.9479 </r>
       <r>     9.4545     0.1681    31.9776 </r>
       <r>     9.5760     0.1468    31.9946 </r>
       <r>     9.6975     0.0001    32.0000 </r>
       <r>     9.8189     0.0000    32.0000 </r>
       <r>     9.9404     0.0000    32.0000 </r>
       <r>    10.0619     0.0000    32.0000 </r>
       <r>    10.1834     0.0000    32.0000 </r>
       <r>    10.3049     0.0000    32.0000 </r>
       <r>    10.4264     0.0000    32.0000 </r>
       <r>    10.5479     0.0000    32.0000 </r>
       <r>    10.6694     0.0000    32.0000 </r>
       <r>    10.7909     0.0000    32.0000 </r>
       <r>    10.9123     0.0000    32.0000 </r>
       <r>    11.0338     0.0000    32.0000 </r>
       <r>    11.1553     0.0000    32.0000 </r>
       <r>    11.2768     0.0000    32.0000 </r>
       <r>    11.3983     0.0000    32.0000 </r>
       <r>    11.5198     0.0000    32.0000 </r>
       <r>    11.6413     0.0000    32.0000 </r>
       <r>    11.7628     0.0000    32.0000 </r>
       <r>    11.8843     0.0000    32.0000 </r>
       <r>    12.0057     0.0000    32.0000 </r>
       <r>    12.1272     0.0000    32.0000 </r>
       <r>    12.2487     0.0000    32.0000 </r>
       <r>    12.3702     0.0000    32.0000 </r>
       <r>    12.4917     0.0000    32.0000 </r>
       <r>    12.6132     0.0000    32.0000 </r>
       <r>    12.7347     0.0000    32.0000 </r>
       <r>    12.8562     0.0000    32.0000 </r>
       <r>    12.9777     0.0000    32.0000 </r>
       <r>    13.0991     0.0000    32.0000 </r>
       <r>    13.2206     0.0000    32.0000 </r>
       <r>    13.3421     0.0000    32.0000 </r>
       <r>    13.4636     0.0000    32.0000 </r>
       <r>    13.5851     0.0000    32.0000 </r>
       <r>    13.7066     0.0000    32.0000 </r>
       <r>    13.8281     0.0161    32.0002 </r>
       <r>    13.9496     0.1510    32.0094 </r>
       <r>    14.0711     0.3857    32.0402 </r>
       <r>    14.1925     0.6139    32.1029 </r>
       <r>    14.3140     0.5756    32.1801 </r>
       <r>    14.4355     0.7000    32.2585 </r>
       <r>    14.5570     0.7716    32.3471 </r>
       <r>    14.6785     0.8963    32.4477 </r>
       <r>    14.8000     1.1737    32.5786 </r>
       <r>    14.9215     1.2929    32.7270 </r>
       <r>    15.0430     1.6522    32.9029 </r>
       <r>    15.1645     1.5059    33.0894 </r>
       <r>    15.2859     1.5320    33.2746 </r>
       <r>    15.4074     1.5799    33.4629 </r>
       <r>    15.5289     1.6697    33.6602 </r>
       <r>    15.6504     1.8093    33.8705 </r>
       <r>    15.7719     1.9900    34.0993 </r>
       <r>    15.8934     2.2061    34.3528 </r>
       <r>    16.0149     2.3169    34.6274 </r>
       <r>    16.1364     2.0979    34.8912 </r>
       <r>    16.2579     2.0976    35.1460 </r>
       <r>    16.3793     2.1066    35.4010 </r>
       <r>    16.5008     2.2004    35.6612 </r>
       <r>    16.6223     2.3566    35.9375 </r>
       <r>    16.7438     2.5153    36.2337 </r>
       <r>    16.8653     2.7092    36.5525 </r>
       <r>    16.9868     2.8159    36.8890 </r>
       <r>    17.1083     2.9208    37.2371 </r>
       <r>    17.2298     3.0730    37.6004 </r>
       <r>    17.3513     3.1586    37.9814 </r>
       <r>    17.4727     3.4484    38.3814 </r>
       <r>    17.5942     3.8594    38.8323 </r>
       <r>    17.7157     4.0503    39.3144 </r>
       <r>    17.8372     4.3739    39.8271 </r>
       <r>    17.9587     4.6684    40.3868 </r>
       <r>    18.0802     3.0499    40.8673 </r>
       <r>    18.2017     3.4224    41.2605 </r>
       <r>    18.3232     3.5817    41.6856 </r>
       <r>    18.4447     3.5107    42.1237 </r>
       <r>    18.5661     3.9400    42.5692 </r>
       <r>    18.6876     3.6622    43.0281 </r>
       <r>    18.8091     3.6701    43.4666 </r>
       <r>    18.9306     3.4577    43.9061 </r>
       <r>    19.0521     2.9144    44.2903 </r>
       <r>    19.1736     2.7134    44.6304 </r>
       <r>    19.2951     2.6236    44.9535 </r>
       <r>    19.4166     2.6067    45.2723 </r>
       <r>    19.5381     2.7322    45.5979 </r>
       <r>    19.6595     2.7872    45.9338 </r>
       <r>    19.7810     2.8467    46.2764 </r>
       <r>    19.9025     2.7745    46.6204 </r>
       <r>    20.0240     2.5850    46.9459 </r>
       <r>    20.1455     2.2978    47.2457 </r>
       <r>    20.2670     1.8409    47.4973 </r>
       <r>    20.3885     1.3226    47.6888 </r>
       <r>    20.5100     0.8563    47.8257 </r>
       <r>    20.6315     0.3917    47.8925 </r>
       <r>    20.7529     0.2664    47.9313 </r>
       <r>    20.8744     0.1939    47.9591 </r>
       <r>    20.9959     0.1219    47.9784 </r>
       <r>    21.1174     0.0720    47.9901 </r>
       <r>    21.2389     0.0368    47.9964 </r>
       <r>    21.3604     0.0159    47.9996 </r>
       <r>    21.4819     0.0000    48.0000 </r>
       <r>    21.6034     0.0000    48.0000 </r>
       <r>    21.7249     0.0000    48.0000 </r>
       <r>    21.8463     0.0000    48.0000 </r>
       <r>    21.9678     0.0000    48.0000 </r>
       <r>    22.0893     0.0000    48.0000 </r>
       <r>    22.2108     0.0000    48.0000 </r>
       <r>    22.3323     0.0000    48.0000 </r>
       <r>    22.4538     0.0000    48.0000 </r>
       <r>    22.5753     0.0000    48.0000 </r>
       <r>    22.6968     0.0000    48.0000 </r>
       <r>    22.8183     0.0000    48.0000 </r>
       <r>    22.9397     0.0000    48.0000 </r>
       <r>    23.0612     0.0000    48.0000 </r>
      </set>
     </set>
    </array>
   </total>
  </dos>
 </calculation>
 <structure name="finalpos" >
  <crystal>
   <varray name="basis" >
    <v>       3.57371000       0.00000000       0.00000000 </v>
    <v>      -0.03573700       3.57353100       0.00000000 </v>
    <v>      -0.03573700      -0.03609600       3.57334900 </v>
   </varray>
   <i name="volume">     45.63439487 </i>
   <varray name="rec_basis" >
    <v>       0.27982125       0.00279834       0.00282675 </v>
    <v>       0.00000000       0.27983527       0.00282674 </v>
    <v>       0.00000000       0.00000000       0.27984952 </v>
   </varray>
  </crystal>
  <varray name="positions" >
   <v>       0.25000000       0.75000000       0.25000000 </v>
   <v>       0.00000000       0.00000000       0.50000000 </v>
   <v>       0.25000000       0.25000000       0.75000000 </v>
   <v>       0.00000000       0.50000000       0.00000000 </v>
   <v>       0.75000000       0.75000000       0.75000000 </v>
   <v>       0.50000000       0.00000000       0.00000000 </v>
   <v>       0.75000000       0.25000000       0.25000000 </v>
   <v>       0.50000000       0.50000000       0.50000000 </v>
  </varray>
 </structure>
</modeling>
