unknown system                          
           1
     3.573710    0.000000    0.000000
    -0.035737    3.573531    0.000000
    -0.035737   -0.036096    3.573349
   C 
   8
Direct configuration=     1
   0.25000000  0.75000000  0.25000000
   0.00000000  0.00000000  0.50000000
   0.25000000  0.25000000  0.75000000
   0.00000000  0.50000000  0.00000000
   0.75000000  0.75000000  0.75000000
   0.50000000  0.00000000  0.00000000
   0.75000000  0.25000000  0.25000000
   0.50000000  0.50000000  0.50000000
