   8   8   0   0
  0.5701691E+01  0.3573710E-09  0.3573710E-09  0.3573710E-09  0.2000000E-16
  1.000000000000000E-004
  CAR 
 unknown system                          
     23.36190816    -13.40254810  301      9.77437787      1.00000000
    -13.403  0.0000E+00  0.0000E+00
    -13.280  0.0000E+00  0.0000E+00
    -13.157  0.0000E+00  0.0000E+00
    -13.035  0.0000E+00  0.0000E+00
    -12.912  0.0000E+00  0.0000E+00
    -12.790  0.0000E+00  0.0000E+00
    -12.667  0.0000E+00  0.0000E+00
    -12.545  0.0000E+00  0.0000E+00
    -12.422  0.0000E+00  0.0000E+00
    -12.300  0.0000E+00  0.0000E+00
    -12.177  0.0000E+00  0.0000E+00
    -12.055  0.0000E+00  0.0000E+00
    -11.932  0.0000E+00  0.0000E+00
    -11.809  0.0000E+00  0.0000E+00
    -11.687  0.3564E-01  0.5294E-03
    -11.564  0.1548E+00  0.1513E-01
    -11.442  0.2419E+00  0.3949E-01
    -11.319  0.2740E+00  0.7075E-01
    -11.197  0.3219E+00  0.1073E+00
    -11.074  0.3611E+00  0.1496E+00
    -10.952  0.3908E+00  0.1956E+00
    -10.829  0.4227E+00  0.2454E+00
    -10.706  0.4612E+00  0.2995E+00
    -10.584  0.4835E+00  0.3575E+00
    -10.461  0.5071E+00  0.4182E+00
    -10.339  0.5335E+00  0.4819E+00
    -10.216  0.5620E+00  0.5491E+00
    -10.094  0.5886E+00  0.6197E+00
     -9.971  0.6090E+00  0.6930E+00
     -9.849  0.6314E+00  0.7690E+00
     -9.726  0.6567E+00  0.8479E+00
     -9.604  0.6840E+00  0.9300E+00
     -9.481  0.7136E+00  0.1016E+01
     -9.358  0.7227E+00  0.1104E+01
     -9.236  0.7332E+00  0.1193E+01
     -9.113  0.7525E+00  0.1284E+01
     -8.991  0.7703E+00  0.1377E+01
     -8.868  0.7913E+00  0.1473E+01
     -8.746  0.8152E+00  0.1572E+01
     -8.623  0.8367E+00  0.1673E+01
     -8.501  0.8532E+00  0.1776E+01
     -8.378  0.8748E+00  0.1882E+01
     -8.256  0.8946E+00  0.1991E+01
     -8.133  0.9131E+00  0.2101E+01
     -8.010  0.9306E+00  0.2214E+01
     -7.888  0.9473E+00  0.2329E+01
     -7.765  0.1021E+01  0.2449E+01
     -7.643  0.1080E+01  0.2579E+01
     -7.520  0.1103E+01  0.2713E+01
     -7.398  0.1090E+01  0.2848E+01
     -7.275  0.1041E+01  0.2979E+01
     -7.153  0.1044E+01  0.3106E+01
     -7.030  0.1074E+01  0.3236E+01
     -6.907  0.1090E+01  0.3369E+01
     -6.785  0.1122E+01  0.3504E+01
     -6.662  0.1182E+01  0.3645E+01
     -6.540  0.1182E+01  0.3789E+01
     -6.417  0.1270E+01  0.3939E+01
     -6.295  0.1320E+01  0.4098E+01
     -6.172  0.1386E+01  0.4264E+01
     -6.050  0.1638E+01  0.4448E+01
     -5.927  0.1514E+01  0.4633E+01
     -5.805  0.1500E+01  0.4816E+01
     -5.682  0.1440E+01  0.4998E+01
     -5.559  0.1415E+01  0.5172E+01
     -5.437  0.1449E+01  0.5350E+01
     -5.314  0.1440E+01  0.5527E+01
     -5.192  0.1411E+01  0.5698E+01
     -5.069  0.1320E+01  0.5864E+01
     -4.947  0.1236E+01  0.6021E+01
     -4.824  0.1219E+01  0.6171E+01
     -4.702  0.1224E+01  0.6320E+01
     -4.579  0.1155E+01  0.6468E+01
     -4.457  0.1102E+01  0.6605E+01
     -4.334  0.1131E+01  0.6739E+01
     -4.211  0.1099E+01  0.6876E+01
     -4.089  0.1007E+01  0.7005E+01
     -3.966  0.1012E+01  0.7130E+01
     -3.844  0.9775E+00  0.7252E+01
     -3.721  0.9488E+00  0.7372E+01
     -3.599  0.8765E+00  0.7483E+01
     -3.476  0.9850E+00  0.7593E+01
     -3.354  0.9858E+00  0.7718E+01
     -3.231  0.1081E+01  0.7842E+01
     -3.109  0.1042E+01  0.7973E+01
     -2.986  0.9233E+00  0.8091E+01
     -2.863  0.9870E+00  0.8203E+01
     -2.741  0.9456E+00  0.8321E+01
     -2.618  0.8709E+00  0.8432E+01
     -2.496  0.9543E+00  0.8543E+01
     -2.373  0.1113E+01  0.8669E+01
     -2.251  0.1332E+01  0.8818E+01
     -2.128  0.1552E+01  0.8994E+01
     -2.006  0.1959E+01  0.9206E+01
     -1.883  0.2273E+01  0.9467E+01
     -1.760  0.2536E+01  0.9760E+01
     -1.638  0.2762E+01  0.1010E+02
     -1.515  0.2360E+01  0.1041E+02
     -1.393  0.2050E+01  0.1068E+02
     -1.270  0.1736E+01  0.1092E+02
     -1.148  0.1611E+01  0.1112E+02
     -1.025  0.1516E+01  0.1131E+02
     -0.903  0.1444E+01  0.1149E+02
     -0.780  0.1393E+01  0.1167E+02
     -0.658  0.1344E+01  0.1184E+02
     -0.535  0.1311E+01  0.1200E+02
     -0.412  0.1244E+01  0.1215E+02
     -0.290  0.1215E+01  0.1231E+02
     -0.167  0.1197E+01  0.1246E+02
     -0.045  0.1104E+01  0.1260E+02
      0.078  0.1085E+01  0.1273E+02
      0.200  0.1071E+01  0.1286E+02
      0.323  0.9992E+00  0.1299E+02
      0.445  0.1042E+01  0.1311E+02
      0.568  0.1333E+01  0.1326E+02
      0.690  0.1639E+01  0.1344E+02
      0.813  0.1905E+01  0.1366E+02
      0.936  0.2381E+01  0.1392E+02
      1.058  0.2252E+01  0.1420E+02
      1.181  0.2117E+01  0.1446E+02
      1.303  0.2189E+01  0.1473E+02
      1.426  0.2240E+01  0.1500E+02
      1.548  0.2165E+01  0.1527E+02
      1.671  0.1721E+01  0.1551E+02
      1.793  0.1431E+01  0.1570E+02
      1.916  0.1566E+01  0.1588E+02
      2.039  0.1892E+01  0.1609E+02
      2.161  0.2226E+01  0.1634E+02
      2.284  0.2494E+01  0.1663E+02
      2.406  0.2331E+01  0.1692E+02
      2.529  0.2276E+01  0.1720E+02
      2.651  0.2322E+01  0.1748E+02
      2.774  0.2388E+01  0.1777E+02
      2.896  0.2696E+01  0.1808E+02
      3.019  0.3073E+01  0.1843E+02
      3.141  0.3048E+01  0.1881E+02
      3.264  0.2435E+01  0.1914E+02
      3.387  0.2728E+01  0.1946E+02
      3.509  0.2657E+01  0.1979E+02
      3.632  0.2642E+01  0.2010E+02
      3.754  0.3227E+01  0.2046E+02
      3.877  0.3640E+01  0.2088E+02
      3.999  0.3546E+01  0.2134E+02
      4.122  0.3231E+01  0.2175E+02
      4.244  0.2984E+01  0.2214E+02
      4.367  0.2673E+01  0.2248E+02
      4.489  0.2831E+01  0.2282E+02
      4.612  0.2822E+01  0.2316E+02
      4.735  0.2978E+01  0.2352E+02
      4.857  0.2874E+01  0.2387E+02
      4.980  0.2886E+01  0.2423E+02
      5.102  0.2950E+01  0.2459E+02
      5.225  0.2986E+01  0.2495E+02
      5.347  0.3029E+01  0.2532E+02
      5.470  0.2924E+01  0.2569E+02
      5.592  0.2586E+01  0.2603E+02
      5.715  0.2363E+01  0.2633E+02
      5.838  0.2470E+01  0.2663E+02
      5.960  0.2561E+01  0.2694E+02
      6.083  0.2755E+01  0.2726E+02
      6.205  0.3043E+01  0.2761E+02
      6.328  0.2707E+01  0.2795E+02
      6.450  0.2669E+01  0.2828E+02
      6.573  0.2592E+01  0.2860E+02
      6.695  0.2308E+01  0.2891E+02
      6.818  0.2276E+01  0.2918E+02
      6.940  0.2416E+01  0.2946E+02
      7.063  0.2103E+01  0.2976E+02
      7.186  0.1784E+01  0.2999E+02
      7.308  0.1612E+01  0.3020E+02
      7.431  0.1453E+01  0.3039E+02
      7.553  0.1344E+01  0.3056E+02
      7.676  0.1271E+01  0.3072E+02
      7.798  0.1167E+01  0.3087E+02
      7.921  0.1063E+01  0.3101E+02
      8.043  0.9651E+00  0.3113E+02
      8.166  0.8905E+00  0.3124E+02
      8.288  0.8420E+00  0.3135E+02
      8.411  0.8058E+00  0.3145E+02
      8.534  0.7076E+00  0.3154E+02
      8.656  0.6352E+00  0.3163E+02
      8.779  0.5728E+00  0.3170E+02
      8.901  0.5340E+00  0.3177E+02
      9.024  0.4349E+00  0.3183E+02
      9.146  0.3601E+00  0.3188E+02
      9.269  0.3814E+00  0.3192E+02
      9.391  0.2309E+00  0.3196E+02
      9.514  0.1291E+00  0.3199E+02
      9.637  0.2531E-01  0.3200E+02
      9.759  0.0000E+00  0.3200E+02
      9.882  0.0000E+00  0.3200E+02
     10.004  0.0000E+00  0.3200E+02
     10.127  0.0000E+00  0.3200E+02
     10.249  0.0000E+00  0.3200E+02
     10.372  0.0000E+00  0.3200E+02
     10.494  0.0000E+00  0.3200E+02
     10.617  0.0000E+00  0.3200E+02
     10.739  0.0000E+00  0.3200E+02
     10.862  0.0000E+00  0.3200E+02
     10.985  0.0000E+00  0.3200E+02
     11.107  0.0000E+00  0.3200E+02
     11.230  0.0000E+00  0.3200E+02
     11.352  0.0000E+00  0.3200E+02
     11.475  0.0000E+00  0.3200E+02
     11.597  0.0000E+00  0.3200E+02
     11.720  0.0000E+00  0.3200E+02
     11.842  0.0000E+00  0.3200E+02
     11.965  0.0000E+00  0.3200E+02
     12.087  0.0000E+00  0.3200E+02
     12.210  0.0000E+00  0.3200E+02
     12.333  0.0000E+00  0.3200E+02
     12.455  0.0000E+00  0.3200E+02
     12.578  0.0000E+00  0.3200E+02
     12.700  0.0000E+00  0.3200E+02
     12.823  0.0000E+00  0.3200E+02
     12.945  0.0000E+00  0.3200E+02
     13.068  0.0000E+00  0.3200E+02
     13.190  0.0000E+00  0.3200E+02
     13.313  0.0000E+00  0.3200E+02
     13.436  0.0000E+00  0.3200E+02
     13.558  0.0000E+00  0.3200E+02
     13.681  0.0000E+00  0.3200E+02
     13.803  0.1627E-01  0.3200E+02
     13.926  0.1693E+00  0.3201E+02
     14.048  0.4831E+00  0.3205E+02
     14.171  0.5674E+00  0.3213E+02
     14.293  0.6296E+00  0.3220E+02
     14.416  0.6894E+00  0.3228E+02
     14.538  0.8473E+00  0.3237E+02
     14.661  0.9502E+00  0.3248E+02
     14.784  0.1050E+01  0.3261E+02
     14.906  0.1246E+01  0.3274E+02
     15.029  0.1453E+01  0.3292E+02
     15.151  0.1530E+01  0.3310E+02
     15.274  0.1579E+01  0.3329E+02
     15.396  0.1560E+01  0.3348E+02
     15.519  0.1634E+01  0.3368E+02
     15.641  0.1798E+01  0.3389E+02
     15.764  0.1958E+01  0.3412E+02
     15.886  0.2104E+01  0.3437E+02
     16.009  0.2202E+01  0.3463E+02
     16.132  0.2118E+01  0.3490E+02
     16.254  0.2136E+01  0.3516E+02
     16.377  0.2141E+01  0.3542E+02
     16.499  0.2241E+01  0.3569E+02
     16.622  0.2348E+01  0.3597E+02
     16.744  0.2557E+01  0.3627E+02
     16.867  0.2664E+01  0.3659E+02
     16.989  0.2834E+01  0.3693E+02
     17.112  0.3070E+01  0.3729E+02
     17.234  0.3210E+01  0.3768E+02
     17.357  0.3257E+01  0.3807E+02
     17.480  0.3616E+01  0.3849E+02
     17.602  0.3944E+01  0.3896E+02
     17.725  0.4084E+01  0.3945E+02
     17.847  0.4339E+01  0.3997E+02
     17.970  0.4294E+01  0.4053E+02
     18.092  0.3305E+01  0.4098E+02
     18.215  0.3548E+01  0.4140E+02
     18.337  0.3204E+01  0.4181E+02
     18.460  0.3274E+01  0.4220E+02
     18.583  0.3417E+01  0.4261E+02
     18.705  0.3461E+01  0.4304E+02
     18.828  0.3513E+01  0.4347E+02
     18.950  0.3186E+01  0.4388E+02
     19.073  0.3088E+01  0.4426E+02
     19.195  0.2879E+01  0.4463E+02
     19.318  0.2810E+01  0.4498E+02
     19.440  0.2700E+01  0.4531E+02
     19.563  0.2739E+01  0.4564E+02
     19.685  0.2787E+01  0.4598E+02
     19.808  0.2782E+01  0.4632E+02
     19.931  0.2701E+01  0.4667E+02
     20.053  0.2590E+01  0.4699E+02
     20.176  0.2297E+01  0.4729E+02
     20.298  0.1856E+01  0.4755E+02
     20.421  0.1174E+01  0.4774E+02
     20.543  0.5991E+00  0.4785E+02
     20.666  0.3592E+00  0.4790E+02
     20.788  0.2478E+00  0.4794E+02
     20.911  0.1676E+00  0.4797E+02
     21.033  0.9873E-01  0.4798E+02
     21.156  0.4940E-01  0.4799E+02
     21.279  0.3043E-01  0.4799E+02
     21.401  0.2018E-01  0.4800E+02
     21.524  0.6783E-02  0.4800E+02
     21.646  0.4818E-03  0.4800E+02
     21.769  0.0000E+00  0.4800E+02
     21.891  0.0000E+00  0.4800E+02
     22.014  0.0000E+00  0.4800E+02
     22.136  0.0000E+00  0.4800E+02
     22.259  0.0000E+00  0.4800E+02
     22.382  0.0000E+00  0.4800E+02
     22.504  0.0000E+00  0.4800E+02
     22.627  0.0000E+00  0.4800E+02
     22.749  0.0000E+00  0.4800E+02
     22.872  0.0000E+00  0.4800E+02
     22.994  0.0000E+00  0.4800E+02
     23.117  0.0000E+00  0.4800E+02
     23.239  0.0000E+00  0.4800E+02
     23.362  0.0000E+00  0.4800E+02
