       N       E                     dE             d eps       ncg     rms          rms(c)
DAV:   1     0.580509049115E+02    0.58051E+02   -0.14399E+04  9072   0.105E+03
DAV:   2    -0.709533851883E+02   -0.12900E+03   -0.12263E+03 12504   0.221E+02
DAV:   3    -0.751167222556E+02   -0.41633E+01   -0.41431E+01 11800   0.373E+01
DAV:   4    -0.751583567668E+02   -0.41635E-01   -0.41582E-01 11408   0.410E+00
DAV:   5    -0.751591886175E+02   -0.83185E-03   -0.83148E-03 11696   0.519E-01    0.946E+00
DAV:   6    -0.732770796434E+02    0.18821E+01   -0.12490E+00 10240   0.637E+00    0.519E+00
DAV:   7    -0.726420684495E+02    0.63501E+00   -0.14161E+00 10688   0.698E+00    0.698E-01
DAV:   8    -0.726495785379E+02   -0.75101E-02   -0.29492E-02 11536   0.101E+00    0.787E-02
DAV:   9    -0.726498002391E+02   -0.22170E-03   -0.43774E-04 10880   0.142E-01    0.294E-02
DAV:  10    -0.726498565412E+02   -0.56302E-04   -0.45635E-05 11408   0.510E-02    0.280E-03
DAV:  11    -0.726498575726E+02   -0.10314E-05   -0.10873E-06  8440   0.760E-03    0.703E-04
DAV:  12    -0.726498574795E+02    0.93117E-07   -0.96158E-08  8240   0.219E-03
   1 F= -.72649857E+02 E0= -.72649857E+02  d E =0.000000E+00
