 vasp.5.4.4.18Apr17-6-g9f103f2a35 (build Mar 12 2022 03:36:41) complex          
  
 executed on IFC19.0.3.199_CrayMP date 2022.11.30  12:41:21
 running on   16 total cores
 distrk:  each k-point on   16 cores,    1 groups
 distr:  one band on NCORES_PER_BAND=   4 cores,    4 groups


--------------------------------------------------------------------------------------------------------


 INCAR:
 POTCAR:   PAW_PBE C 08Apr2002                    
 POTCAR:   PAW_PBE C 08Apr2002                    
   VRHFIN =C: s2p2                                                              
   LEXCH  = PE                                                                  
   EATOM  =   147.1560 eV,   10.8157 Ry                                         
                                                                                
   TITEL  = PAW_PBE C 08Apr2002                                                 
   LULTRA =        F    use ultrasoft PP ?                                      
   IUNSCR =        0    unscreen: 0-lin 1-nonlin 2-no                           
   RPACOR =     .000    partial core radius                                     
   POMASS =   12.011; ZVAL   =    4.000    mass and valenz                      
   RCORE  =    1.500    outmost cutoff radius                                   
   RWIGS  =    1.630; RWIGS  =     .863    wigner-seitz radius (au A)           
   ENMAX  =  400.000; ENMIN  =  300.000 eV                                      
   ICORE  =        2    local potential                                         
   LCOR   =        T    correct aug charges                                     
   LPAW   =        T    paw PP                                                  
   EAUG   =  644.873                                                            
   DEXC   =     .000                                                            
   RMAX   =    2.266    core radius for proj-oper                               
   RAUG   =    1.300    factor for augmentation sphere                          
   RDEP   =    1.501    radius for radial grids                                 
   RDEPT  =    1.300    core radius for aug-charge                              
   QCUT   =   -5.516; QGAM   =   11.032    optimization parameters              
                                                                                
   Description                                                                  
     l     E      TYP  RCUT    TYP  RCUT                                        
     0   .000     23  1.200                                                     
     0   .000     23  1.200                                                     
     1   .000     23  1.500                                                     
     1  2.500     23  1.500                                                     
     2   .000      7  1.500                                                     
  local pseudopotential read in
  atomic valenz-charges read in
  non local Contribution for L=           0  read in
    real space projection operators read in
  non local Contribution for L=           0  read in
    real space projection operators read in
  non local Contribution for L=           1  read in
    real space projection operators read in
  non local Contribution for L=           1  read in
    real space projection operators read in
    PAW grid and wavefunctions read in
 
   number of l-projection  operators is LMAX  =           4
   number of lm-projection operators is LMMAX =           8
 
 PAW_PBE C 08Apr2002                    :
 energy of atom  1       EATOM= -147.1560
 kinetic energy error for atom=    0.0288 (will be added to EATOM!!)
 
 
 POSCAR: C8                                      
  positions in direct lattice
  No initial velocities read in
 exchange correlation table for  LEXCH =        8
   RHO(1)=    0.500       N(1)  =     2000
   RHO(2)=  100.500       N(2)  =     4000
 


--------------------------------------------------------------------------------------------------------


 ion  position               nearest neighbor table
   1  0.250  0.750  0.250-   4 1.52   6 1.56   8 1.56   2 1.56
   2  0.000  0.000  0.500-   3 1.52   5 1.56   7 1.56   1 1.56
   3  0.250  0.250  0.750-   2 1.52   6 1.56   8 1.56   4 1.56
   4  0.000  0.500  0.000-   1 1.52   5 1.56   7 1.56   3 1.56
   5  0.750  0.750  0.750-   8 1.52   4 1.56   2 1.56   6 1.56
   6  0.500  0.000  0.000-   7 1.52   3 1.56   1 1.56   5 1.56
   7  0.750  0.250  0.250-   6 1.52   4 1.56   2 1.56   8 1.56
   8  0.500  0.500  0.500-   5 1.52   3 1.56   1 1.56   7 1.56
 
  LATTYP: Found a trigonal (rhomboedric) cell.
 ALAT       =     3.5737098095
 COS(alpha) =    -0.0199999451
  
  Lattice vectors:
  
 A1 = (   3.5737100000,   0.0000000000,   0.0000000000)
 A2 = (  -0.0714740000,   3.5729950000,   0.0000000000)
 A3 = (  -0.0714740000,  -0.0729180000,   3.5722510000)


Analysis of symmetry for initial positions (statically):
=====================================================================
 Subroutine PRICEL returns following result:
 
  LATTYP: Found a trigonal (rhomboedric) cell.
 ALAT       =     2.5015970071
 COS(alpha) =     0.4795919048
  
  Lattice vectors:
  
 A1 = (  -0.0714740000,   1.7500385000,   1.7861255000)
 A2 = (   1.7511180000,  -0.0364590000,   1.7861255000)
 A3 = (   1.7511180000,   1.7864975000,   0.0000000000)
 
   4 primitive cells build up your supercell.
 

 Routine SETGRP: Setting up the symmetry group for a 
 trigonal (rhombohedral) supercell.


 Subroutine GETGRP returns: Found 12 space group operations
 (whereof  6 operations were pure point group operations)
 out of a pool of 12 trial point group operations.


The static configuration has the point symmetry C_3v.
 The point group associated with its full space group is D_3d.


Analysis of symmetry for dynamics (positions and initial velocities):
=====================================================================
 Subroutine PRICEL returns following result:
 
  LATTYP: Found a trigonal (rhomboedric) cell.
 ALAT       =     2.5015970071
 COS(alpha) =     0.4795919048
  
  Lattice vectors:
  
 A1 = (  -0.0714740000,   1.7500385000,   1.7861255000)
 A2 = (   1.7511180000,  -0.0364590000,   1.7861255000)
 A3 = (   1.7511180000,   1.7864975000,   0.0000000000)
 
   4 primitive cells build up your supercell.
 

 Routine SETGRP: Setting up the symmetry group for a 
 trigonal (rhombohedral) supercell.


 Subroutine GETGRP returns: Found 12 space group operations
 (whereof  6 operations were pure point group operations)
 out of a pool of 12 trial point group operations.


The dynamic configuration has the point symmetry C_3v.
 The point group associated with its full space group is D_3d.


 Subroutine INISYM returns: Found 12 space group operations
 (whereof  6 operations are pure point group operations),
 and found     4 'primitive' translations

 
 
 KPOINTS: kpt_density=1000                        

Automatic generation of k-mesh.
Space group operators:
 irot       det(A)        alpha          n_x          n_y          n_z        tau_x        tau_y        tau_z
    1     1.000000     0.000000     1.000000     0.000000     0.000000     0.000000     0.000000     0.000000
    2    -1.000000   180.000000     0.000000    -0.714286     0.699854     0.000000     0.000000     0.000000
    3     1.000000   120.000000    -0.565685    -0.577115    -0.589015     0.000000     0.000000     0.000000
    4    -1.000000   180.000000    -0.714143     0.700000    -0.000000     0.000000     0.000000     0.000000
    5     1.000000   120.000000     0.565685     0.577115     0.589015     0.000000     0.000000     0.000000
    6    -1.000000   180.000000     0.714143     0.014286    -0.699854     0.000000     0.000000     0.000000
    7    -1.000000     0.000000     1.000000     0.000000     0.000000     0.250000     0.250000     0.250000
    8     1.000000   180.000000     0.000000    -0.714286     0.699854     0.250000     0.250000     0.250000
    9    -1.000000   120.000000    -0.565685    -0.577115    -0.589015     0.250000     0.250000     0.250000
   10     1.000000   180.000000    -0.714143     0.700000    -0.000000     0.250000     0.250000     0.250000
   11    -1.000000   120.000000     0.565685     0.577115     0.589015     0.250000     0.250000     0.250000
   12     1.000000   180.000000     0.714143     0.014286    -0.699854     0.250000     0.250000     0.250000
 
 Subroutine IBZKPT returns following result:
 ===========================================
 
 Found    189 irreducible k-points:
 
 Following reciprocal coordinates:
            Coordinates               Weight
  0.000000  0.000000  0.000000      1.000000
  0.083333  0.000000  0.000000      6.000000
  0.166667  0.000000  0.000000      6.000000
  0.250000  0.000000  0.000000      6.000000
  0.333333  0.000000  0.000000      6.000000
  0.416667  0.000000 -0.000000      6.000000
  0.500000  0.000000  0.000000      3.000000
  0.083333  0.083333  0.000000      6.000000
  0.166667  0.083333  0.000000     12.000000
  0.250000  0.083333  0.000000     12.000000
  0.333333  0.083333  0.000000     12.000000
  0.416667  0.083333 -0.000000     12.000000
  0.500000  0.083333  0.000000     12.000000
 -0.416667  0.083333 -0.000000     12.000000
 -0.333333  0.083333 -0.000000     12.000000
 -0.250000  0.083333 -0.000000     12.000000
 -0.166667  0.083333 -0.000000     12.000000
 -0.083333  0.083333 -0.000000      6.000000
  0.166667  0.166667  0.000000      6.000000
  0.250000  0.166667  0.000000     12.000000
  0.333333  0.166667  0.000000     12.000000
  0.416667  0.166667 -0.000000     12.000000
  0.500000  0.166667  0.000000     12.000000
 -0.416667  0.166667 -0.000000     12.000000
 -0.333333  0.166667 -0.000000     12.000000
 -0.250000  0.166667 -0.000000     12.000000
 -0.166667  0.166667 -0.000000      6.000000
  0.250000  0.250000  0.000000      6.000000
  0.333333  0.250000  0.000000     12.000000
  0.416667  0.250000  0.000000     12.000000
  0.500000  0.250000 -0.000000     12.000000
 -0.416667  0.250000 -0.000000     12.000000
 -0.333333  0.250000 -0.000000     12.000000
 -0.250000  0.250000 -0.000000      6.000000
  0.333333  0.333333  0.000000      6.000000
  0.416667  0.333333  0.000000     12.000000
  0.500000  0.333333  0.000000     12.000000
 -0.416667  0.333333 -0.000000     12.000000
 -0.333333  0.333333 -0.000000      6.000000
  0.416667  0.416667  0.000000      6.000000
  0.500000  0.416667  0.000000     12.000000
 -0.416667  0.416667 -0.000000      6.000000
  0.500000  0.500000  0.000000      3.000000
  0.083333  0.083333  0.083333      2.000000
  0.166667  0.083333  0.083333      6.000000
  0.250000  0.083333  0.083333      6.000000
  0.333333  0.083333  0.083333      6.000000
  0.416667  0.083333  0.083333      6.000000
  0.500000  0.083333  0.083333      6.000000
 -0.416667  0.083333  0.083333      6.000000
 -0.333333  0.083333  0.083333      6.000000
 -0.250000  0.083333  0.083333      6.000000
 -0.166667  0.083333  0.083333      6.000000
 -0.083333  0.083333  0.083333      6.000000
  0.166667  0.166667  0.083333      6.000000
  0.250000  0.166667  0.083333     12.000000
  0.333333  0.166667  0.083333     12.000000
  0.416667  0.166667  0.083333     12.000000
  0.500000  0.166667  0.083333     12.000000
 -0.416667  0.166667  0.083333     12.000000
 -0.333333  0.166667  0.083333     12.000000
 -0.250000  0.166667  0.083333     12.000000
 -0.166667  0.166667  0.083333     12.000000
 -0.083333  0.166667  0.083333     12.000000
  0.250000  0.250000  0.083333      6.000000
  0.333333  0.250000  0.083333     12.000000
  0.416667  0.250000  0.083333     12.000000
  0.500000  0.250000  0.083333     12.000000
 -0.416667  0.250000  0.083333     12.000000
 -0.333333  0.250000  0.083333     12.000000
 -0.250000  0.250000  0.083333     12.000000
 -0.166667  0.250000  0.083333     12.000000
 -0.083333  0.250000  0.083333     12.000000
  0.333333  0.333333  0.083333      6.000000
  0.416667  0.333333  0.083333     12.000000
  0.500000  0.333333  0.083333     12.000000
 -0.416667  0.333333  0.083333     12.000000
 -0.333333  0.333333  0.083333     12.000000
 -0.250000  0.333333  0.083333     12.000000
 -0.166667  0.333333  0.083333     12.000000
 -0.083333  0.333333  0.083333     12.000000
  0.416667  0.416667  0.083333      6.000000
  0.500000  0.416667  0.083333     12.000000
 -0.416667  0.416667  0.083333     12.000000
 -0.333333  0.416667  0.083333     12.000000
 -0.250000  0.416667  0.083333     12.000000
 -0.166667  0.416667  0.083333     12.000000
 -0.083333  0.416667  0.083333     12.000000
  0.500000  0.500000  0.083333      6.000000
 -0.416667  0.500000  0.083333     12.000000
 -0.333333  0.500000  0.083333     12.000000
 -0.250000  0.500000  0.083333     12.000000
 -0.166667  0.500000  0.083333     12.000000
 -0.083333  0.500000  0.083333      6.000000
 -0.416667 -0.416667  0.083333      6.000000
 -0.333333 -0.416667  0.083333     12.000000
 -0.250000 -0.416667  0.083333     12.000000
 -0.166667 -0.416667  0.083333     12.000000
 -0.333333 -0.333333  0.083333      6.000000
 -0.250000 -0.333333  0.083333     12.000000
 -0.166667 -0.333333  0.083333     12.000000
 -0.250000 -0.250000  0.083333      6.000000
 -0.166667 -0.250000  0.083333     12.000000
 -0.166667 -0.166667  0.083333      6.000000
  0.166667  0.166667  0.166667      2.000000
  0.250000  0.166667  0.166667      6.000000
  0.333333  0.166667  0.166667      6.000000
  0.416667  0.166667  0.166667      6.000000
  0.500000  0.166667  0.166667      6.000000
 -0.416667  0.166667  0.166667      6.000000
 -0.333333  0.166667  0.166667      6.000000
 -0.250000  0.166667  0.166667      6.000000
 -0.166667  0.166667  0.166667      6.000000
  0.250000  0.250000  0.166667      6.000000
  0.333333  0.250000  0.166667     12.000000
  0.416667  0.250000  0.166667     12.000000
  0.500000  0.250000  0.166667     12.000000
 -0.416667  0.250000  0.166667     12.000000
 -0.333333  0.250000  0.166667     12.000000
 -0.250000  0.250000  0.166667     12.000000
 -0.166667  0.250000  0.166667     12.000000
  0.333333  0.333333  0.166667      6.000000
  0.416667  0.333333  0.166667     12.000000
  0.500000  0.333333  0.166667     12.000000
 -0.416667  0.333333  0.166667     12.000000
 -0.333333  0.333333  0.166667     12.000000
 -0.250000  0.333333  0.166667     12.000000
 -0.166667  0.333333  0.166667     12.000000
  0.416667  0.416667  0.166667      6.000000
  0.500000  0.416667  0.166667     12.000000
 -0.416667  0.416667  0.166667     12.000000
 -0.333333  0.416667  0.166667     12.000000
 -0.250000  0.416667  0.166667     12.000000
 -0.166667  0.416667  0.166667     12.000000
  0.500000  0.500000  0.166667      6.000000
 -0.416667  0.500000  0.166667     12.000000
 -0.333333  0.500000  0.166667     12.000000
 -0.250000  0.500000  0.166667     12.000000
 -0.166667  0.500000  0.166667      6.000000
 -0.416667 -0.416667  0.166667      6.000000
 -0.333333 -0.416667  0.166667     12.000000
 -0.250000 -0.416667  0.166667     12.000000
 -0.333333 -0.333333  0.166667      6.000000
 -0.250000 -0.333333  0.166667     12.000000
 -0.250000 -0.250000  0.166667      6.000000
  0.250000  0.250000  0.250000      2.000000
  0.333333  0.250000  0.250000      6.000000
  0.416667  0.250000  0.250000      6.000000
  0.500000  0.250000  0.250000      6.000000
 -0.416667  0.250000  0.250000      6.000000
 -0.333333  0.250000  0.250000      6.000000
 -0.250000  0.250000  0.250000      6.000000
  0.333333  0.333333  0.250000      6.000000
  0.416667  0.333333  0.250000     12.000000
  0.500000  0.333333  0.250000     12.000000
 -0.416667  0.333333  0.250000     12.000000
 -0.333333  0.333333  0.250000     12.000000
 -0.250000  0.333333  0.250000     12.000000
  0.416667  0.416667  0.250000      6.000000
  0.500000  0.416667  0.250000     12.000000
 -0.416667  0.416667  0.250000     12.000000
 -0.333333  0.416667  0.250000     12.000000
 -0.250000  0.416667  0.250000     12.000000
  0.500000  0.500000  0.250000      6.000000
 -0.416667  0.500000  0.250000     12.000000
 -0.333333  0.500000  0.250000     12.000000
 -0.250000  0.500000  0.250000      6.000000
 -0.416667 -0.416667  0.250000      6.000000
 -0.333333 -0.416667  0.250000     12.000000
 -0.333333 -0.333333  0.250000      6.000000
  0.333333  0.333333  0.333333      2.000000
  0.416667  0.333333  0.333333      6.000000
  0.500000  0.333333  0.333333      6.000000
 -0.416667  0.333333  0.333333      6.000000
 -0.333333  0.333333  0.333333      6.000000
  0.416667  0.416667  0.333333      6.000000
  0.500000  0.416667  0.333333     12.000000
 -0.416667  0.416667  0.333333     12.000000
 -0.333333  0.416667  0.333333     12.000000
  0.500000  0.500000  0.333333      6.000000
 -0.416667  0.500000  0.333333     12.000000
 -0.333333  0.500000  0.333333      6.000000
 -0.416667 -0.416667  0.333333      6.000000
  0.416667  0.416667  0.416667      2.000000
  0.500000  0.416667  0.416667      6.000000
 -0.416667  0.416667  0.416667      6.000000
  0.500000  0.500000  0.416667      6.000000
 -0.416667  0.500000  0.416667      6.000000
  0.500000  0.500000  0.500000      1.000000
 
 Following cartesian coordinates:
            Coordinates               Weight
  0.000000  0.000000  0.000000      1.000000
  0.023318  0.000466  0.000476      6.000000
  0.046637  0.000933  0.000952      6.000000
  0.069955  0.001399  0.001428      6.000000
  0.093274  0.001866  0.001904      6.000000
  0.116592  0.002332  0.002380      6.000000
  0.139911  0.002799  0.002856      3.000000
  0.023318  0.023790  0.000952      6.000000
  0.046637  0.024256  0.001428     12.000000
  0.069955  0.024722  0.001904     12.000000
  0.093274  0.025189  0.002380     12.000000
  0.116592  0.025655  0.002856     12.000000
  0.139911  0.026122  0.003333     12.000000
 -0.116592  0.020991 -0.001904     12.000000
 -0.093274  0.021457 -0.001428     12.000000
 -0.069955  0.021924 -0.000952     12.000000
 -0.046637  0.022390 -0.000476     12.000000
 -0.023318  0.022857 -0.000000      6.000000
  0.046637  0.047579  0.001904      6.000000
  0.069955  0.048046  0.002380     12.000000
  0.093274  0.048512  0.002856     12.000000
  0.116592  0.048979  0.003333     12.000000
  0.139911  0.049445  0.003809     12.000000
 -0.116592  0.044314 -0.001428     12.000000
 -0.093274  0.044780 -0.000952     12.000000
 -0.069955  0.045247 -0.000476     12.000000
 -0.046637  0.045713 -0.000000      6.000000
  0.069955  0.071369  0.002856      6.000000
  0.093274  0.071835  0.003333     12.000000
  0.116592  0.072302  0.003809     12.000000
  0.139911  0.072768  0.004285     12.000000
 -0.116592  0.067637 -0.000952     12.000000
 -0.093274  0.068103 -0.000476     12.000000
 -0.069955  0.068570 -0.000000      6.000000
  0.093274  0.095158  0.003809      6.000000
  0.116592  0.095625  0.004285     12.000000
  0.139911  0.096091  0.004761     12.000000
 -0.116592  0.090960 -0.000476     12.000000
 -0.093274  0.091427 -0.000000      6.000000
  0.116592  0.118948  0.004761      6.000000
  0.139911  0.119414  0.005237     12.000000
 -0.116592  0.114283 -0.000000      6.000000
  0.139911  0.142737  0.005713      3.000000
  0.023318  0.023790  0.024280      2.000000
  0.046637  0.024256  0.024756      6.000000
  0.069955  0.024722  0.025232      6.000000
  0.093274  0.025189  0.025708      6.000000
  0.116592  0.025655  0.026184      6.000000
  0.139911  0.026122  0.026661      6.000000
 -0.116592  0.020991  0.021424      6.000000
 -0.093274  0.021457  0.021900      6.000000
 -0.069955  0.021924  0.022376      6.000000
 -0.046637  0.022390  0.022852      6.000000
 -0.023318  0.022857  0.023328      6.000000
  0.046637  0.047579  0.025232      6.000000
  0.069955  0.048046  0.025708     12.000000
  0.093274  0.048512  0.026184     12.000000
  0.116592  0.048979  0.026661     12.000000
  0.139911  0.049445  0.027137     12.000000
 -0.116592  0.044314  0.021900     12.000000
 -0.093274  0.044780  0.022376     12.000000
 -0.069955  0.045247  0.022852     12.000000
 -0.046637  0.045713  0.023328     12.000000
 -0.023318  0.046180  0.023804     12.000000
  0.069955  0.071369  0.026184      6.000000
  0.093274  0.071835  0.026661     12.000000
  0.116592  0.072302  0.027137     12.000000
  0.139911  0.072768  0.027613     12.000000
 -0.116592  0.067637  0.022376     12.000000
 -0.093274  0.068103  0.022852     12.000000
 -0.069955  0.068570  0.023328     12.000000
 -0.046637  0.069036  0.023804     12.000000
 -0.023318  0.069503  0.024280     12.000000
  0.093274  0.095158  0.027137      6.000000
  0.116592  0.095625  0.027613     12.000000
  0.139911  0.096091  0.028089     12.000000
 -0.116592  0.090960  0.022852     12.000000
 -0.093274  0.091427  0.023328     12.000000
 -0.069955  0.091893  0.023804     12.000000
 -0.046637  0.092359  0.024280     12.000000
 -0.023318  0.092826  0.024756     12.000000
  0.116592  0.118948  0.028089      6.000000
  0.139911  0.119414  0.028565     12.000000
 -0.116592  0.114283  0.023328     12.000000
 -0.093274  0.114750  0.023804     12.000000
 -0.069955  0.115216  0.024280     12.000000
 -0.046637  0.115683  0.024756     12.000000
 -0.023318  0.116149  0.025232     12.000000
  0.139911  0.142737  0.029041      6.000000
 -0.116592  0.137606  0.023804     12.000000
 -0.093274  0.138073  0.024280     12.000000
 -0.069955  0.138539  0.024756     12.000000
 -0.046637  0.139006  0.025232     12.000000
 -0.023318  0.139472  0.025708      6.000000
 -0.116592 -0.118948  0.018567      6.000000
 -0.093274 -0.118481  0.019043     12.000000
 -0.069955 -0.118015  0.019519     12.000000
 -0.046637 -0.117548  0.019995     12.000000
 -0.093274 -0.095158  0.019519      6.000000
 -0.069955 -0.094692  0.019995     12.000000
 -0.046637 -0.094225  0.020471     12.000000
 -0.069955 -0.071369  0.020471      6.000000
 -0.046637 -0.070902  0.020948     12.000000
 -0.046637 -0.047579  0.021424      6.000000
  0.046637  0.047579  0.048560      2.000000
  0.069955  0.048046  0.049036      6.000000
  0.093274  0.048512  0.049512      6.000000
  0.116592  0.048979  0.049988      6.000000
  0.139911  0.049445  0.050465      6.000000
 -0.116592  0.044314  0.045228      6.000000
 -0.093274  0.044780  0.045704      6.000000
 -0.069955  0.045247  0.046180      6.000000
 -0.046637  0.045713  0.046656      6.000000
  0.069955  0.071369  0.049512      6.000000
  0.093274  0.071835  0.049988     12.000000
  0.116592  0.072302  0.050465     12.000000
  0.139911  0.072768  0.050941     12.000000
 -0.116592  0.067637  0.045704     12.000000
 -0.093274  0.068103  0.046180     12.000000
 -0.069955  0.068570  0.046656     12.000000
 -0.046637  0.069036  0.047132     12.000000
  0.093274  0.095158  0.050465      6.000000
  0.116592  0.095625  0.050941     12.000000
  0.139911  0.096091  0.051417     12.000000
 -0.116592  0.090960  0.046180     12.000000
 -0.093274  0.091427  0.046656     12.000000
 -0.069955  0.091893  0.047132     12.000000
 -0.046637  0.092359  0.047608     12.000000
  0.116592  0.118948  0.051417      6.000000
  0.139911  0.119414  0.051893     12.000000
 -0.116592  0.114283  0.046656     12.000000
 -0.093274  0.114750  0.047132     12.000000
 -0.069955  0.115216  0.047608     12.000000
 -0.046637  0.115683  0.048084     12.000000
  0.139911  0.142737  0.052369      6.000000
 -0.116592  0.137606  0.047132     12.000000
 -0.093274  0.138073  0.047608     12.000000
 -0.069955  0.138539  0.048084     12.000000
 -0.046637  0.139006  0.048560      6.000000
 -0.116592 -0.118948  0.041895      6.000000
 -0.093274 -0.118481  0.042371     12.000000
 -0.069955 -0.118015  0.042847     12.000000
 -0.093274 -0.095158  0.042847      6.000000
 -0.069955 -0.094692  0.043323     12.000000
 -0.069955 -0.071369  0.043799      6.000000
  0.069955  0.071369  0.072840      2.000000
  0.093274  0.071835  0.073316      6.000000
  0.116592  0.072302  0.073793      6.000000
  0.139911  0.072768  0.074269      6.000000
 -0.116592  0.067637  0.069032      6.000000
 -0.093274  0.068103  0.069508      6.000000
 -0.069955  0.068570  0.069984      6.000000
  0.093274  0.095158  0.073793      6.000000
  0.116592  0.095625  0.074269     12.000000
  0.139911  0.096091  0.074745     12.000000
 -0.116592  0.090960  0.069508     12.000000
 -0.093274  0.091427  0.069984     12.000000
 -0.069955  0.091893  0.070460     12.000000
  0.116592  0.118948  0.074745      6.000000
  0.139911  0.119414  0.075221     12.000000
 -0.116592  0.114283  0.069984     12.000000
 -0.093274  0.114750  0.070460     12.000000
 -0.069955  0.115216  0.070936     12.000000
  0.139911  0.142737  0.075697      6.000000
 -0.116592  0.137606  0.070460     12.000000
 -0.093274  0.138073  0.070936     12.000000
 -0.069955  0.138539  0.071412      6.000000
 -0.116592 -0.118948  0.065223      6.000000
 -0.093274 -0.118481  0.065699     12.000000
 -0.093274 -0.095158  0.066175      6.000000
  0.093274  0.095158  0.097120      2.000000
  0.116592  0.095625  0.097597      6.000000
  0.139911  0.096091  0.098073      6.000000
 -0.116592  0.090960  0.092836      6.000000
 -0.093274  0.091427  0.093312      6.000000
  0.116592  0.118948  0.098073      6.000000
  0.139911  0.119414  0.098549     12.000000
 -0.116592  0.114283  0.093312     12.000000
 -0.093274  0.114750  0.093788     12.000000
  0.139911  0.142737  0.099025      6.000000
 -0.116592  0.137606  0.093788     12.000000
 -0.093274  0.138073  0.094264      6.000000
 -0.116592 -0.118948  0.088551      6.000000
  0.116592  0.118948  0.121401      2.000000
  0.139911  0.119414  0.121877      6.000000
 -0.116592  0.114283  0.116640      6.000000
  0.139911  0.142737  0.122353      6.000000
 -0.116592  0.137606  0.117116      6.000000
  0.139911  0.142737  0.145681      1.000000
 
 TETIRR: Found   2550 inequivalent tetrahedra from    10368


--------------------------------------------------------------------------------------------------------




 Dimension of arrays:
   k-points           NKPTS =    189   k-points in BZ     NKDIM =    189   number of bands    NBANDS=     24
   number of dos      NEDOS =    301   number of ions     NIONS =      8
   non local maximal  LDIM  =      4   non local SUM 2l+1 LMDIM =      8
   total plane-waves  NPLWV =  13824
   max r-space proj   IRMAX =      1   max aug-charges    IRDMAX=   3776
   dimension x,y,z NGX =    24 NGY =   24 NGZ =   24
   dimension x,y,z NGXF=    48 NGYF=   48 NGZF=   48
   support grid    NGXF=    48 NGYF=   48 NGZF=   48
   ions per type =               8
   NGX,Y,Z   is equivalent  to a cutoff of  11.16, 11.16, 11.16 a.u.
   NGXF,Y,Z  is equivalent  to a cutoff of  22.33, 22.33, 22.33 a.u.

 SYSTEM =  unknown system                          
 POSCAR =  C8                                      

 Startparameter for this run:
   NWRITE =      2    write-flag & timer
   PREC   = accura    normal or accurate (medium, high low for compatibility)
   ISTART =      0    job   : 0-new  1-cont  2-samecut
   ICHARG =      2    charge: 1-file 2-atom 10-const
   ISPIN  =      1    spin polarized calculation?
   LNONCOLLINEAR =      F non collinear calculations
   LSORBIT =      F    spin-orbit coupling
   INIWAV =      1    electr: 0-lowe 1-rand  2-diag
   LASPH  =      F    aspherical Exc in radial PAW
   METAGGA=      F    non-selfconsistent MetaGGA calc.

 Electronic Relaxation 1
   ENCUT  =  400.0 eV  29.40 Ry    5.42 a.u.   5.83  5.83  5.83*2*pi/ulx,y,z
   ENINI  =  400.0     initial cutoff
   ENAUG  =  644.9 eV  augmentation charge cutoff
   NELM   =     60;   NELMIN=  2; NELMDL= -5     # of ELM steps 
   EDIFF  = 0.1E-05   stopping-criterion for ELM
   LREAL  =      F    real-space projection
   NLSPLINE    = F    spline interpolate recip. space projectors
   LCOMPAT=      F    compatible to vasp.4.4
   GGA_COMPAT  = T    GGA compatible to vasp.4.4-vasp.4.6
   LMAXPAW     = -100 max onsite density
   LMAXMIX     =    2 max onsite mixed and CHGCAR
   VOSKOWN=      0    Vosko Wilk Nusair interpolation
   ROPT   =    0.00000
 Ionic relaxation
   EDIFFG = 0.1E-04   stopping-criterion for IOM
   NSW    =      0    number of steps for IOM
   NBLOCK =      1;   KBLOCK =      1    inner block; outer block 
   IBRION =     -1    ionic relax: 0-MD 1-quasi-New 2-CG
   NFREE  =      0    steps in history (QN), initial steepest desc. (CG)
   ISIF   =      2    stress and relaxation
   IWAVPR =     10    prediction:  0-non 1-charg 2-wave 3-comb
   ISYM   =      2    0-nonsym 1-usesym 2-fastsym
   LCORR  =      T    Harris-Foulkes like correction to forces

   POTIM  = 0.0200    time-step for ionic-motion
   TEIN   =    0.0    initial temperature
   TEBEG  =    0.0;   TEEND  =   0.0 temperature during run
   SMASS  =  -3.00    Nose mass-parameter (am)
   estimated Nose-frequenzy (Omega)   =  0.10E-29 period in steps =****** mass=  -0.292E-27a.u.
   SCALEE = 1.0000    scale energy and forces
   NPACO  =    256;   APACO  = 16.0  distance and # of slots for P.C.
   PSTRESS=    0.0 pullay stress

  Mass of Ions in am
   POMASS =  12.01
  Ionic Valenz
   ZVAL   =   4.00
  Atomic Wigner-Seitz radii
   RWIGS  =  -1.00
  virtual crystal weights 
   VCA    =   1.00
   NELECT =      32.0000    total number of electrons
   NUPDOWN=      -1.0000    fix difference up-down

 DOS related values:
   EMIN   =  10.00;   EMAX   =-10.00  energy-range for DOS
   EFERMI =   0.00
   ISMEAR =    -5;   SIGMA  =   0.06  broadening in eV -4-tet -1-fermi 0-gaus

 Electronic relaxation 2 (details)
   IALGO  =     38    algorithm
   LDIAG  =      T    sub-space diagonalisation (order eigenvalues)
   LSUBROT=      F    optimize rotation matrix (better conditioning)
   TURBO    =      0    0=normal 1=particle mesh
   IRESTART =      0    0=no restart 2=restart with 2 vectors
   NREBOOT  =      0    no. of reboots
   NMIN     =      0    reboot dimension
   EREF     =   0.00    reference energy to select bands
   IMIX   =      4    mixing-type and parameters
     AMIX     =   0.40;   BMIX     =  1.00
     AMIX_MAG =   1.60;   BMIX_MAG =  1.00
     AMIN     =   0.10
     WC   =   100.;   INIMIX=   1;  MIXPRE=   1;  MAXMIX= -45

 Intra band minimization:
   WEIMIN = 0.0000     energy-eigenvalue tresh-hold
   EBREAK =  0.10E-07  absolut break condition
   DEPER  =   0.30     relativ break condition  

   TIME   =   0.40     timestep for ELM

  volume/ion in A,a.u.               =       5.70        38.48
  Fermi-wavevector in a.u.,A,eV,Ry     =   1.454656  2.748901 28.790250  2.116024
  Thomas-Fermi vector in A             =   2.571781
 
 Write flags
   LWAVE        =      F    write WAVECAR
   LDOWNSAMPLE  =      F    k-point downsampling of WAVECAR
   LCHARG       =      F    write CHGCAR
   LVTOT        =      F    write LOCPOT, total local potential
   LVHAR        =      F    write LOCPOT, Hartree potential only
   LELF         =      F    write electronic localiz. function (ELF)
   LORBIT       =      0    0 simple, 1 ext, 2 COOP (PROOUT), +10 PAW based schemes


 Dipole corrections
   LMONO  =      F    monopole corrections only (constant potential shift)
   LDIPOL =      F    correct potential (dipole corrections)
   IDIPOL =      0    1-x, 2-y, 3-z, 4-all directions 
   EPSILON=  1.0000000 bulk dielectric constant

 Exchange correlation treatment:
   GGA     =    --    GGA type
   LEXCH   =     8    internal setting for exchange type
   VOSKOWN=      0    Vosko Wilk Nusair interpolation
   LHFCALC =     F    Hartree Fock is set to
   LHFONE  =     F    Hartree Fock one center treatment
   AEXX    =    0.0000 exact exchange contribution

 Linear response parameters
   LEPSILON=     F    determine dielectric tensor
   LRPA    =     F    only Hartree local field effects (RPA)
   LNABLA  =     F    use nabla operator in PAW spheres
   LVEL    =     F    velocity operator in full k-point grid
   LINTERFAST=   F  fast interpolation
   KINTER  =     0    interpolate to denser k-point grid
   CSHIFT  =0.1000    complex shift for real part using Kramers Kronig
   OMEGAMAX=  -1.0    maximum frequency
   DEG_THRESHOLD= 0.2000000E-02 threshold for treating states as degnerate
   RTIME   =   -0.100 relaxation time in fs
  (WPLASMAI=    0.000 imaginary part of plasma frequency in eV, 0.658/RTIME)
   DFIELD  = 0.0000000 0.0000000 0.0000000 field for delta impulse in time
 
 Orbital magnetization related:
   ORBITALMAG=     F  switch on orbital magnetization
   LCHIMAG   =     F  perturbation theory with respect to B field
   DQ        =  0.001000  dq finite difference perturbation B field
   LLRAUG    =     F  two centre corrections for induced B field



--------------------------------------------------------------------------------------------------------


 Static calculation
 charge density and potential will be updated during run
 non-spin polarized calculation
 Variant of blocked Davidson
 Davidson routine will perform the subspace rotation
 perform sub-space diagonalisation
    after iterative eigenvector-optimisation
 modified Broyden-mixing scheme, WC =      100.0
 initial mixing is a Kerker type mixing with AMIX =  0.4000 and BMIX =      1.0000
 Hartree-type preconditioning will be used
 using additional bands            8
 reciprocal scheme for non local part
 calculate Harris-corrections to forces 
   (improved forces if not selfconsistent)
 use gradient corrections 
 use of overlap-Matrix (Vanderbilt PP)
 Fermi weights with tetrahedron method with Bloechl corrections


--------------------------------------------------------------------------------------------------------


  energy-cutoff  :      400.00
  volume of cell :       45.61
      direct lattice vectors                 reciprocal lattice vectors
     3.573710000  0.000000000  0.000000000     0.279821250  0.005597529  0.005712954
    -0.071474000  3.572995000  0.000000000     0.000000000  0.279877246  0.005712949
    -0.071474000 -0.072918000  3.572251000     0.000000000  0.000000000  0.279935536

  length of vectors
     3.573710000  3.573709810  3.573709945     0.279935532  0.279935547  0.279935536


 
 k-points in units of 2pi/SCALE and weight: kpt_density=1000                        
   0.00000000  0.00000000  0.00000000       0.001
   0.02331844  0.00046646  0.00047608       0.003
   0.04663688  0.00093292  0.00095216       0.003
   0.06995531  0.00139938  0.00142824       0.003
   0.09327375  0.00186584  0.00190432       0.003
   0.11659219  0.00233230  0.00238040       0.003
   0.13991063  0.00279876  0.00285648       0.002
   0.02331844  0.02378956  0.00095216       0.003
   0.04663688  0.02425603  0.00142824       0.007
   0.06995531  0.02472249  0.00190432       0.007
   0.09327375  0.02518895  0.00238040       0.007
   0.11659219  0.02565541  0.00285648       0.007
   0.13991063  0.02612187  0.00333256       0.007
  -0.11659219  0.02099080 -0.00190432       0.007
  -0.09327375  0.02145726 -0.00142824       0.007
  -0.06995531  0.02192372 -0.00095216       0.007
  -0.04663688  0.02239018 -0.00047608       0.007
  -0.02331844  0.02285664 -0.00000000       0.003
   0.04663688  0.04757913  0.00190432       0.003
   0.06995531  0.04804559  0.00238040       0.007
   0.09327375  0.04851205  0.00285648       0.007
   0.11659219  0.04897851  0.00333256       0.007
   0.13991063  0.04944497  0.00380864       0.007
  -0.11659219  0.04431390 -0.00142824       0.007
  -0.09327375  0.04478036 -0.00095216       0.007
  -0.06995531  0.04524683 -0.00047608       0.007
  -0.04663688  0.04571329 -0.00000000       0.003
   0.06995531  0.07136869  0.00285648       0.003
   0.09327375  0.07183515  0.00333256       0.007
   0.11659219  0.07230162  0.00380863       0.007
   0.13991063  0.07276808  0.00428471       0.007
  -0.11659219  0.06763701 -0.00095216       0.007
  -0.09327375  0.06810347 -0.00047608       0.007
  -0.06995531  0.06856993 -0.00000000       0.003
   0.09327375  0.09515826  0.00380863       0.003
   0.11659219  0.09562472  0.00428471       0.007
   0.13991063  0.09609118  0.00476079       0.007
  -0.11659219  0.09096011 -0.00047608       0.007
  -0.09327375  0.09142657 -0.00000000       0.003
   0.11659219  0.11894782  0.00476079       0.003
   0.13991063  0.11941428  0.00523687       0.007
  -0.11659219  0.11428322 -0.00000000       0.003
   0.13991063  0.14273739  0.00571295       0.002
   0.02331844  0.02378956  0.02428012       0.001
   0.04663688  0.02425603  0.02475620       0.003
   0.06995531  0.02472249  0.02523228       0.003
   0.09327375  0.02518895  0.02570836       0.003
   0.11659219  0.02565541  0.02618444       0.003
   0.13991063  0.02612187  0.02666052       0.003
  -0.11659219  0.02099080  0.02142364       0.003
  -0.09327375  0.02145726  0.02189972       0.003
  -0.06995531  0.02192372  0.02237580       0.003
  -0.04663688  0.02239018  0.02285188       0.003
  -0.02331844  0.02285664  0.02332796       0.003
   0.04663688  0.04757913  0.02523228       0.003
   0.06995531  0.04804559  0.02570836       0.007
   0.09327375  0.04851205  0.02618444       0.007
   0.11659219  0.04897851  0.02666052       0.007
   0.13991063  0.04944497  0.02713660       0.007
  -0.11659219  0.04431390  0.02189972       0.007
  -0.09327375  0.04478036  0.02237580       0.007
  -0.06995531  0.04524683  0.02285188       0.007
  -0.04663688  0.04571329  0.02332796       0.007
  -0.02331844  0.04617975  0.02380404       0.007
   0.06995531  0.07136869  0.02618444       0.003
   0.09327375  0.07183515  0.02666052       0.007
   0.11659219  0.07230162  0.02713660       0.007
   0.13991063  0.07276808  0.02761268       0.007
  -0.11659219  0.06763701  0.02237580       0.007
  -0.09327375  0.06810347  0.02285188       0.007
  -0.06995531  0.06856993  0.02332796       0.007
  -0.04663688  0.06903639  0.02380404       0.007
  -0.02331844  0.06950285  0.02428012       0.007
   0.09327375  0.09515826  0.02713660       0.003
   0.11659219  0.09562472  0.02761268       0.007
   0.13991063  0.09609118  0.02808875       0.007
  -0.11659219  0.09096011  0.02285188       0.007
  -0.09327375  0.09142657  0.02332796       0.007
  -0.06995531  0.09189303  0.02380404       0.007
  -0.04663688  0.09235949  0.02428012       0.007
  -0.02331844  0.09282595  0.02475620       0.007
   0.11659219  0.11894782  0.02808875       0.003
   0.13991063  0.11941428  0.02856483       0.007
  -0.11659219  0.11428322  0.02332796       0.007
  -0.09327375  0.11474968  0.02380404       0.007
  -0.06995531  0.11521614  0.02428012       0.007
  -0.04663688  0.11568260  0.02475620       0.007
  -0.02331844  0.11614906  0.02523228       0.007
   0.13991063  0.14273739  0.02904091       0.003
  -0.11659219  0.13760632  0.02380404       0.007
  -0.09327375  0.13807278  0.02428012       0.007
  -0.06995531  0.13853924  0.02475620       0.007
  -0.04663688  0.13900570  0.02523228       0.007
  -0.02331844  0.13947216  0.02570836       0.003
  -0.11659219 -0.11894782  0.01856717       0.003
  -0.09327375 -0.11848136  0.01904325       0.007
  -0.06995531 -0.11801490  0.01951933       0.007
  -0.04663688 -0.11754844  0.01999541       0.007
  -0.09327375 -0.09515826  0.01951933       0.003
  -0.06995531 -0.09469180  0.01999541       0.007
  -0.04663688 -0.09422534  0.02047149       0.007
  -0.06995531 -0.07136869  0.02047149       0.003
  -0.04663688 -0.07090223  0.02094757       0.007
  -0.04663688 -0.04757913  0.02142364       0.003
   0.04663688  0.04757913  0.04856024       0.001
   0.06995531  0.04804559  0.04903632       0.003
   0.09327375  0.04851205  0.04951240       0.003
   0.11659219  0.04897851  0.04998848       0.003
   0.13991063  0.04944497  0.05046456       0.003
  -0.11659219  0.04431390  0.04522768       0.003
  -0.09327375  0.04478036  0.04570376       0.003
  -0.06995531  0.04524683  0.04617984       0.003
  -0.04663688  0.04571329  0.04665592       0.003
   0.06995531  0.07136869  0.04951240       0.003
   0.09327375  0.07183515  0.04998848       0.007
   0.11659219  0.07230162  0.05046456       0.007
   0.13991063  0.07276808  0.05094064       0.007
  -0.11659219  0.06763701  0.04570376       0.007
  -0.09327375  0.06810347  0.04617984       0.007
  -0.06995531  0.06856993  0.04665592       0.007
  -0.04663688  0.06903639  0.04713200       0.007
   0.09327375  0.09515826  0.05046456       0.003
   0.11659219  0.09562472  0.05094064       0.007
   0.13991063  0.09609118  0.05141672       0.007
  -0.11659219  0.09096011  0.04617984       0.007
  -0.09327375  0.09142657  0.04665592       0.007
  -0.06995531  0.09189303  0.04713200       0.007
  -0.04663688  0.09235949  0.04760808       0.007
   0.11659219  0.11894782  0.05141672       0.003
   0.13991063  0.11941428  0.05189280       0.007
  -0.11659219  0.11428322  0.04665592       0.007
  -0.09327375  0.11474968  0.04713200       0.007
  -0.06995531  0.11521614  0.04760808       0.007
  -0.04663688  0.11568260  0.04808416       0.007
   0.13991063  0.14273739  0.05236887       0.003
  -0.11659219  0.13760632  0.04713200       0.007
  -0.09327375  0.13807278  0.04760808       0.007
  -0.06995531  0.13853924  0.04808416       0.007
  -0.04663688  0.13900570  0.04856024       0.003
  -0.11659219 -0.11894782  0.04189513       0.003
  -0.09327375 -0.11848136  0.04237121       0.007
  -0.06995531 -0.11801490  0.04284729       0.007
  -0.09327375 -0.09515826  0.04284729       0.003
  -0.06995531 -0.09469180  0.04332337       0.007
  -0.06995531 -0.07136869  0.04379945       0.003
   0.06995531  0.07136869  0.07284036       0.001
   0.09327375  0.07183515  0.07331644       0.003
   0.11659219  0.07230162  0.07379252       0.003
   0.13991063  0.07276808  0.07426860       0.003
  -0.11659219  0.06763701  0.06903172       0.003
  -0.09327375  0.06810347  0.06950780       0.003
  -0.06995531  0.06856993  0.06998388       0.003
   0.09327375  0.09515826  0.07379252       0.003
   0.11659219  0.09562472  0.07426860       0.007
   0.13991063  0.09609118  0.07474468       0.007
  -0.11659219  0.09096011  0.06950780       0.007
  -0.09327375  0.09142657  0.06998388       0.007
  -0.06995531  0.09189303  0.07045996       0.007
   0.11659219  0.11894782  0.07474468       0.003
   0.13991063  0.11941428  0.07522076       0.007
  -0.11659219  0.11428322  0.06998388       0.007
  -0.09327375  0.11474968  0.07045996       0.007
  -0.06995531  0.11521614  0.07093604       0.007
   0.13991063  0.14273739  0.07569684       0.003
  -0.11659219  0.13760632  0.07045996       0.007
  -0.09327375  0.13807278  0.07093604       0.007
  -0.06995531  0.13853924  0.07141212       0.003
  -0.11659219 -0.11894782  0.06522309       0.003
  -0.09327375 -0.11848136  0.06569917       0.007
  -0.09327375 -0.09515826  0.06617525       0.003
   0.09327375  0.09515826  0.09712048       0.001
   0.11659219  0.09562472  0.09759656       0.003
   0.13991063  0.09609118  0.09807264       0.003
  -0.11659219  0.09096011  0.09283576       0.003
  -0.09327375  0.09142657  0.09331184       0.003
   0.11659219  0.11894782  0.09807264       0.003
   0.13991063  0.11941428  0.09854872       0.007
  -0.11659219  0.11428322  0.09331184       0.007
  -0.09327375  0.11474968  0.09378792       0.007
   0.13991063  0.14273739  0.09902480       0.003
  -0.11659219  0.13760632  0.09378792       0.007
  -0.09327375  0.13807278  0.09426400       0.003
  -0.11659219 -0.11894782  0.08855105       0.003
   0.11659219  0.11894782  0.12140060       0.001
   0.13991063  0.11941428  0.12187668       0.003
  -0.11659219  0.11428322  0.11663981       0.003
   0.13991063  0.14273739  0.12235276       0.003
  -0.11659219  0.13760632  0.11711588       0.003
   0.13991063  0.14273739  0.14568072       0.001
 
 k-points in reciprocal lattice and weights: kpt_density=1000                        
   0.00000000  0.00000000  0.00000000       0.001
   0.08333333  0.00000000  0.00000000       0.003
   0.16666667  0.00000000  0.00000000       0.003
   0.25000000  0.00000000  0.00000000       0.003
   0.33333333  0.00000000  0.00000000       0.003
   0.41666667  0.00000000 -0.00000000       0.003
   0.50000000  0.00000000  0.00000000       0.002
   0.08333333  0.08333333  0.00000000       0.003
   0.16666667  0.08333333  0.00000000       0.007
   0.25000000  0.08333333  0.00000000       0.007
   0.33333333  0.08333333  0.00000000       0.007
   0.41666667  0.08333333 -0.00000000       0.007
   0.50000000  0.08333333  0.00000000       0.007
  -0.41666667  0.08333333 -0.00000000       0.007
  -0.33333333  0.08333333 -0.00000000       0.007
  -0.25000000  0.08333333 -0.00000000       0.007
  -0.16666667  0.08333333 -0.00000000       0.007
  -0.08333333  0.08333333 -0.00000000       0.003
   0.16666667  0.16666667  0.00000000       0.003
   0.25000000  0.16666667  0.00000000       0.007
   0.33333333  0.16666667  0.00000000       0.007
   0.41666667  0.16666667 -0.00000000       0.007
   0.50000000  0.16666667  0.00000000       0.007
  -0.41666667  0.16666667 -0.00000000       0.007
  -0.33333333  0.16666667 -0.00000000       0.007
  -0.25000000  0.16666667 -0.00000000       0.007
  -0.16666667  0.16666667 -0.00000000       0.003
   0.25000000  0.25000000  0.00000000       0.003
   0.33333333  0.25000000  0.00000000       0.007
   0.41666667  0.25000000  0.00000000       0.007
   0.50000000  0.25000000 -0.00000000       0.007
  -0.41666667  0.25000000 -0.00000000       0.007
  -0.33333333  0.25000000 -0.00000000       0.007
  -0.25000000  0.25000000 -0.00000000       0.003
   0.33333333  0.33333333  0.00000000       0.003
   0.41666667  0.33333333  0.00000000       0.007
   0.50000000  0.33333333  0.00000000       0.007
  -0.41666667  0.33333333 -0.00000000       0.007
  -0.33333333  0.33333333 -0.00000000       0.003
   0.41666667  0.41666667  0.00000000       0.003
   0.50000000  0.41666667  0.00000000       0.007
  -0.41666667  0.41666667 -0.00000000       0.003
   0.50000000  0.50000000  0.00000000       0.002
   0.08333333  0.08333333  0.08333333       0.001
   0.16666667  0.08333333  0.08333333       0.003
   0.25000000  0.08333333  0.08333333       0.003
   0.33333333  0.08333333  0.08333333       0.003
   0.41666667  0.08333333  0.08333333       0.003
   0.50000000  0.08333333  0.08333333       0.003
  -0.41666667  0.08333333  0.08333333       0.003
  -0.33333333  0.08333333  0.08333333       0.003
  -0.25000000  0.08333333  0.08333333       0.003
  -0.16666667  0.08333333  0.08333333       0.003
  -0.08333333  0.08333333  0.08333333       0.003
   0.16666667  0.16666667  0.08333333       0.003
   0.25000000  0.16666667  0.08333333       0.007
   0.33333333  0.16666667  0.08333333       0.007
   0.41666667  0.16666667  0.08333333       0.007
   0.50000000  0.16666667  0.08333333       0.007
  -0.41666667  0.16666667  0.08333333       0.007
  -0.33333333  0.16666667  0.08333333       0.007
  -0.25000000  0.16666667  0.08333333       0.007
  -0.16666667  0.16666667  0.08333333       0.007
  -0.08333333  0.16666667  0.08333333       0.007
   0.25000000  0.25000000  0.08333333       0.003
   0.33333333  0.25000000  0.08333333       0.007
   0.41666667  0.25000000  0.08333333       0.007
   0.50000000  0.25000000  0.08333333       0.007
  -0.41666667  0.25000000  0.08333333       0.007
  -0.33333333  0.25000000  0.08333333       0.007
  -0.25000000  0.25000000  0.08333333       0.007
  -0.16666667  0.25000000  0.08333333       0.007
  -0.08333333  0.25000000  0.08333333       0.007
   0.33333333  0.33333333  0.08333333       0.003
   0.41666667  0.33333333  0.08333333       0.007
   0.50000000  0.33333333  0.08333333       0.007
  -0.41666667  0.33333333  0.08333333       0.007
  -0.33333333  0.33333333  0.08333333       0.007
  -0.25000000  0.33333333  0.08333333       0.007
  -0.16666667  0.33333333  0.08333333       0.007
  -0.08333333  0.33333333  0.08333333       0.007
   0.41666667  0.41666667  0.08333333       0.003
   0.50000000  0.41666667  0.08333333       0.007
  -0.41666667  0.41666667  0.08333333       0.007
  -0.33333333  0.41666667  0.08333333       0.007
  -0.25000000  0.41666667  0.08333333       0.007
  -0.16666667  0.41666667  0.08333333       0.007
  -0.08333333  0.41666667  0.08333333       0.007
   0.50000000  0.50000000  0.08333333       0.003
  -0.41666667  0.50000000  0.08333333       0.007
  -0.33333333  0.50000000  0.08333333       0.007
  -0.25000000  0.50000000  0.08333333       0.007
  -0.16666667  0.50000000  0.08333333       0.007
  -0.08333333  0.50000000  0.08333333       0.003
  -0.41666667 -0.41666667  0.08333333       0.003
  -0.33333333 -0.41666667  0.08333333       0.007
  -0.25000000 -0.41666667  0.08333333       0.007
  -0.16666667 -0.41666667  0.08333333       0.007
  -0.33333333 -0.33333333  0.08333333       0.003
  -0.25000000 -0.33333333  0.08333333       0.007
  -0.16666667 -0.33333333  0.08333333       0.007
  -0.25000000 -0.25000000  0.08333333       0.003
  -0.16666667 -0.25000000  0.08333333       0.007
  -0.16666667 -0.16666667  0.08333333       0.003
   0.16666667  0.16666667  0.16666667       0.001
   0.25000000  0.16666667  0.16666667       0.003
   0.33333333  0.16666667  0.16666667       0.003
   0.41666667  0.16666667  0.16666667       0.003
   0.50000000  0.16666667  0.16666667       0.003
  -0.41666667  0.16666667  0.16666667       0.003
  -0.33333333  0.16666667  0.16666667       0.003
  -0.25000000  0.16666667  0.16666667       0.003
  -0.16666667  0.16666667  0.16666667       0.003
   0.25000000  0.25000000  0.16666667       0.003
   0.33333333  0.25000000  0.16666667       0.007
   0.41666667  0.25000000  0.16666667       0.007
   0.50000000  0.25000000  0.16666667       0.007
  -0.41666667  0.25000000  0.16666667       0.007
  -0.33333333  0.25000000  0.16666667       0.007
  -0.25000000  0.25000000  0.16666667       0.007
  -0.16666667  0.25000000  0.16666667       0.007
   0.33333333  0.33333333  0.16666667       0.003
   0.41666667  0.33333333  0.16666667       0.007
   0.50000000  0.33333333  0.16666667       0.007
  -0.41666667  0.33333333  0.16666667       0.007
  -0.33333333  0.33333333  0.16666667       0.007
  -0.25000000  0.33333333  0.16666667       0.007
  -0.16666667  0.33333333  0.16666667       0.007
   0.41666667  0.41666667  0.16666667       0.003
   0.50000000  0.41666667  0.16666667       0.007
  -0.41666667  0.41666667  0.16666667       0.007
  -0.33333333  0.41666667  0.16666667       0.007
  -0.25000000  0.41666667  0.16666667       0.007
  -0.16666667  0.41666667  0.16666667       0.007
   0.50000000  0.50000000  0.16666667       0.003
  -0.41666667  0.50000000  0.16666667       0.007
  -0.33333333  0.50000000  0.16666667       0.007
  -0.25000000  0.50000000  0.16666667       0.007
  -0.16666667  0.50000000  0.16666667       0.003
  -0.41666667 -0.41666667  0.16666667       0.003
  -0.33333333 -0.41666667  0.16666667       0.007
  -0.25000000 -0.41666667  0.16666667       0.007
  -0.33333333 -0.33333333  0.16666667       0.003
  -0.25000000 -0.33333333  0.16666667       0.007
  -0.25000000 -0.25000000  0.16666667       0.003
   0.25000000  0.25000000  0.25000000       0.001
   0.33333333  0.25000000  0.25000000       0.003
   0.41666667  0.25000000  0.25000000       0.003
   0.50000000  0.25000000  0.25000000       0.003
  -0.41666667  0.25000000  0.25000000       0.003
  -0.33333333  0.25000000  0.25000000       0.003
  -0.25000000  0.25000000  0.25000000       0.003
   0.33333333  0.33333333  0.25000000       0.003
   0.41666667  0.33333333  0.25000000       0.007
   0.50000000  0.33333333  0.25000000       0.007
  -0.41666667  0.33333333  0.25000000       0.007
  -0.33333333  0.33333333  0.25000000       0.007
  -0.25000000  0.33333333  0.25000000       0.007
   0.41666667  0.41666667  0.25000000       0.003
   0.50000000  0.41666667  0.25000000       0.007
  -0.41666667  0.41666667  0.25000000       0.007
  -0.33333333  0.41666667  0.25000000       0.007
  -0.25000000  0.41666667  0.25000000       0.007
   0.50000000  0.50000000  0.25000000       0.003
  -0.41666667  0.50000000  0.25000000       0.007
  -0.33333333  0.50000000  0.25000000       0.007
  -0.25000000  0.50000000  0.25000000       0.003
  -0.41666667 -0.41666667  0.25000000       0.003
  -0.33333333 -0.41666667  0.25000000       0.007
  -0.33333333 -0.33333333  0.25000000       0.003
   0.33333333  0.33333333  0.33333333       0.001
   0.41666667  0.33333333  0.33333333       0.003
   0.50000000  0.33333333  0.33333333       0.003
  -0.41666667  0.33333333  0.33333333       0.003
  -0.33333333  0.33333333  0.33333333       0.003
   0.41666667  0.41666667  0.33333333       0.003
   0.50000000  0.41666667  0.33333333       0.007
  -0.41666667  0.41666667  0.33333333       0.007
  -0.33333333  0.41666667  0.33333333       0.007
   0.50000000  0.50000000  0.33333333       0.003
  -0.41666667  0.50000000  0.33333333       0.007
  -0.33333333  0.50000000  0.33333333       0.003
  -0.41666667 -0.41666667  0.33333333       0.003
   0.41666667  0.41666667  0.41666667       0.001
   0.50000000  0.41666667  0.41666667       0.003
  -0.41666667  0.41666667  0.41666667       0.003
   0.50000000  0.50000000  0.41666667       0.003
  -0.41666667  0.50000000  0.41666667       0.003
   0.50000000  0.50000000  0.50000000       0.001
 
 position of ions in fractional coordinates (direct lattice) 
   0.25000000  0.75000000  0.25000000
   0.00000000  0.00000000  0.50000000
   0.25000000  0.25000000  0.75000000
   0.00000000  0.50000000  0.00000000
   0.75000000  0.75000000  0.75000000
   0.50000000  0.00000000  0.00000000
   0.75000000  0.25000000  0.25000000
   0.50000000  0.50000000  0.50000000
 
 position of ions in cartesian coordinates  (Angst):
   0.82195350  2.66151675  0.89306275
  -0.03573700 -0.03645900  1.78612550
   0.82195350  0.83856025  2.67918825
  -0.03573700  1.78649750  0.00000000
   2.57307150  2.62505775  2.67918825
   1.78685500  0.00000000  0.00000000
   2.64454550  0.87501925  0.89306275
   1.71538100  1.75003850  1.78612550
 


--------------------------------------------------------------------------------------------------------


 k-point  1 :   0.0000 0.0000 0.0000  plane waves:     817
 k-point  2 :   0.0833 0.0000 0.0000  plane waves:     820
 k-point  3 :   0.1667 0.0000 0.0000  plane waves:     817
 k-point  4 :   0.2500 0.0000 0.0000  plane waves:     829
 k-point  5 :   0.3333 0.0000 0.0000  plane waves:     827
 k-point  6 :   0.4167 0.0000-0.0000  plane waves:     832
 k-point  7 :   0.5000 0.0000 0.0000  plane waves:     832
 k-point  8 :   0.0833 0.0833 0.0000  plane waves:     824
 k-point  9 :   0.1667 0.0833 0.0000  plane waves:     826
 k-point 10 :   0.2500 0.0833 0.0000  plane waves:     829
 k-point 11 :   0.3333 0.0833 0.0000  plane waves:     831
 k-point 12 :   0.4167 0.0833-0.0000  plane waves:     830
 k-point 13 :   0.5000 0.0833 0.0000  plane waves:     828
 k-point 14 :  -0.4167 0.0833-0.0000  plane waves:     829
 k-point 15 :  -0.3333 0.0833-0.0000  plane waves:     825
 k-point 16 :  -0.2500 0.0833-0.0000  plane waves:     818
 k-point 17 :  -0.1667 0.0833-0.0000  plane waves:     818
 k-point 18 :  -0.0833 0.0833-0.0000  plane waves:     819
 k-point 19 :   0.1667 0.1667 0.0000  plane waves:     830
 k-point 20 :   0.2500 0.1667 0.0000  plane waves:     826
 k-point 21 :   0.3333 0.1667 0.0000  plane waves:     829
 k-point 22 :   0.4167 0.1667-0.0000  plane waves:     829
 k-point 23 :   0.5000 0.1667 0.0000  plane waves:     829
 k-point 24 :  -0.4167 0.1667-0.0000  plane waves:     828
 k-point 25 :  -0.3333 0.1667-0.0000  plane waves:     830
 k-point 26 :  -0.2500 0.1667-0.0000  plane waves:     824
 k-point 27 :  -0.1667 0.1667-0.0000  plane waves:     814
 k-point 28 :   0.2500 0.2500 0.0000  plane waves:     834
 k-point 29 :   0.3333 0.2500 0.0000  plane waves:     832
 k-point 30 :   0.4167 0.2500 0.0000  plane waves:     832
 k-point 31 :   0.5000 0.2500-0.0000  plane waves:     829
 k-point 32 :  -0.4167 0.2500-0.0000  plane waves:     831
 k-point 33 :  -0.3333 0.2500-0.0000  plane waves:     832
 k-point 34 :  -0.2500 0.2500-0.0000  plane waves:     826
 k-point 35 :   0.3333 0.3333 0.0000  plane waves:     828
 k-point 36 :   0.4167 0.3333 0.0000  plane waves:     834
 k-point 37 :   0.5000 0.3333 0.0000  plane waves:     825
 k-point 38 :  -0.4167 0.3333-0.0000  plane waves:     831
 k-point 39 :  -0.3333 0.3333-0.0000  plane waves:     830
 k-point 40 :   0.4167 0.4167 0.0000  plane waves:     830
 k-point 41 :   0.5000 0.4167 0.0000  plane waves:     835
 k-point 42 :  -0.4167 0.4167-0.0000  plane waves:     826
 k-point 43 :   0.5000 0.5000 0.0000  plane waves:     830
 k-point 44 :   0.0833 0.0833 0.0833  plane waves:     820
 k-point 45 :   0.1667 0.0833 0.0833  plane waves:     828
 k-point 46 :   0.2500 0.0833 0.0833  plane waves:     829
 k-point 47 :   0.3333 0.0833 0.0833  plane waves:     835
 k-point 48 :   0.4167 0.0833 0.0833  plane waves:     835
 k-point 49 :   0.5000 0.0833 0.0833  plane waves:     829
 k-point 50 :  -0.4167 0.0833 0.0833  plane waves:     827
 k-point 51 :  -0.3333 0.0833 0.0833  plane waves:     829
 k-point 52 :  -0.2500 0.0833 0.0833  plane waves:     819
 k-point 53 :  -0.1667 0.0833 0.0833  plane waves:     817
 k-point 54 :  -0.0833 0.0833 0.0833  plane waves:     822
 k-point 55 :   0.1667 0.1667 0.0833  plane waves:     834
 k-point 56 :   0.2500 0.1667 0.0833  plane waves:     828
 k-point 57 :   0.3333 0.1667 0.0833  plane waves:     831
 k-point 58 :   0.4167 0.1667 0.0833  plane waves:     827
 k-point 59 :   0.5000 0.1667 0.0833  plane waves:     829
 k-point 60 :  -0.4167 0.1667 0.0833  plane waves:     827
 k-point 61 :  -0.3333 0.1667 0.0833  plane waves:     827
 k-point 62 :  -0.2500 0.1667 0.0833  plane waves:     822
 k-point 63 :  -0.1667 0.1667 0.0833  plane waves:     816
 k-point 64 :  -0.0833 0.1667 0.0833  plane waves:     820
 k-point 65 :   0.2500 0.2500 0.0833  plane waves:     833
 k-point 66 :   0.3333 0.2500 0.0833  plane waves:     829
 k-point 67 :   0.4167 0.2500 0.0833  plane waves:     827
 k-point 68 :   0.5000 0.2500 0.0833  plane waves:     824
 k-point 69 :  -0.4167 0.2500 0.0833  plane waves:     830
 k-point 70 :  -0.3333 0.2500 0.0833  plane waves:     831
 k-point 71 :  -0.2500 0.2500 0.0833  plane waves:     826
 k-point 72 :  -0.1667 0.2500 0.0833  plane waves:     822
 k-point 73 :  -0.0833 0.2500 0.0833  plane waves:     825
 k-point 74 :   0.3333 0.3333 0.0833  plane waves:     834
 k-point 75 :   0.4167 0.3333 0.0833  plane waves:     832
 k-point 76 :   0.5000 0.3333 0.0833  plane waves:     828
 k-point 77 :  -0.4167 0.3333 0.0833  plane waves:     832
 k-point 78 :  -0.3333 0.3333 0.0833  plane waves:     832
 k-point 79 :  -0.2500 0.3333 0.0833  plane waves:     830
 k-point 80 :  -0.1667 0.3333 0.0833  plane waves:     827
 k-point 81 :  -0.0833 0.3333 0.0833  plane waves:     828
 k-point 82 :   0.4167 0.4167 0.0833  plane waves:     827
 k-point 83 :   0.5000 0.4167 0.0833  plane waves:     828
 k-point 84 :  -0.4167 0.4167 0.0833  plane waves:     828
 k-point 85 :  -0.3333 0.4167 0.0833  plane waves:     829
 k-point 86 :  -0.2500 0.4167 0.0833  plane waves:     831
 k-point 87 :  -0.1667 0.4167 0.0833  plane waves:     831
 k-point 88 :  -0.0833 0.4167 0.0833  plane waves:     829
 k-point 89 :   0.5000 0.5000 0.0833  plane waves:     832
 k-point 90 :  -0.4167 0.5000 0.0833  plane waves:     836
 k-point 91 :  -0.3333 0.5000 0.0833  plane waves:     828
 k-point 92 :  -0.2500 0.5000 0.0833  plane waves:     827
 k-point 93 :  -0.1667 0.5000 0.0833  plane waves:     829
 k-point 94 :  -0.0833 0.5000 0.0833  plane waves:     824
 k-point 95 :  -0.4167-0.4167 0.0833  plane waves:     833
 k-point 96 :  -0.3333-0.4167 0.0833  plane waves:     829
 k-point 97 :  -0.2500-0.4167 0.0833  plane waves:     829
 k-point 98 :  -0.1667-0.4167 0.0833  plane waves:     833
 k-point 99 :  -0.3333-0.3333 0.0833  plane waves:     828
 k-point ** :  -0.2500-0.3333 0.0833  plane waves:     826
 k-point ** :  -0.1667-0.3333 0.0833  plane waves:     831
 k-point ** :  -0.2500-0.2500 0.0833  plane waves:     830
 k-point ** :  -0.1667-0.2500 0.0833  plane waves:     826
 k-point ** :  -0.1667-0.1667 0.0833  plane waves:     824
 k-point ** :   0.1667 0.1667 0.1667  plane waves:     826
 k-point ** :   0.2500 0.1667 0.1667  plane waves:     828
 k-point ** :   0.3333 0.1667 0.1667  plane waves:     823
 k-point ** :   0.4167 0.1667 0.1667  plane waves:     832
 k-point ** :   0.5000 0.1667 0.1667  plane waves:     830
 k-point ** :  -0.4167 0.1667 0.1667  plane waves:     824
 k-point ** :  -0.3333 0.1667 0.1667  plane waves:     822
 k-point ** :  -0.2500 0.1667 0.1667  plane waves:     823
 k-point ** :  -0.1667 0.1667 0.1667  plane waves:     814
 k-point ** :   0.2500 0.2500 0.1667  plane waves:     829
 k-point ** :   0.3333 0.2500 0.1667  plane waves:     829
 k-point ** :   0.4167 0.2500 0.1667  plane waves:     828
 k-point ** :   0.5000 0.2500 0.1667  plane waves:     825
 k-point ** :  -0.4167 0.2500 0.1667  plane waves:     829
 k-point ** :  -0.3333 0.2500 0.1667  plane waves:     830
 k-point ** :  -0.2500 0.2500 0.1667  plane waves:     829
 k-point ** :  -0.1667 0.2500 0.1667  plane waves:     825
 k-point ** :   0.3333 0.3333 0.1667  plane waves:     837
 k-point ** :   0.4167 0.3333 0.1667  plane waves:     833
 k-point ** :   0.5000 0.3333 0.1667  plane waves:     828
 k-point ** :  -0.4167 0.3333 0.1667  plane waves:     824
 k-point ** :  -0.3333 0.3333 0.1667  plane waves:     826
 k-point ** :  -0.2500 0.3333 0.1667  plane waves:     834
 k-point ** :  -0.1667 0.3333 0.1667  plane waves:     830
 k-point ** :   0.4167 0.4167 0.1667  plane waves:     831
 k-point ** :   0.5000 0.4167 0.1667  plane waves:     831
 k-point ** :  -0.4167 0.4167 0.1667  plane waves:     827
 k-point ** :  -0.3333 0.4167 0.1667  plane waves:     825
 k-point ** :  -0.2500 0.4167 0.1667  plane waves:     824
 k-point ** :  -0.1667 0.4167 0.1667  plane waves:     827
 k-point ** :   0.5000 0.5000 0.1667  plane waves:     832
 k-point ** :  -0.4167 0.5000 0.1667  plane waves:     831
 k-point ** :  -0.3333 0.5000 0.1667  plane waves:     824
 k-point ** :  -0.2500 0.5000 0.1667  plane waves:     827
 k-point ** :  -0.1667 0.5000 0.1667  plane waves:     818
 k-point ** :  -0.4167-0.4167 0.1667  plane waves:     827
 k-point ** :  -0.3333-0.4167 0.1667  plane waves:     823
 k-point ** :  -0.2500-0.4167 0.1667  plane waves:     825
 k-point ** :  -0.3333-0.3333 0.1667  plane waves:     824
 k-point ** :  -0.2500-0.3333 0.1667  plane waves:     829
 k-point ** :  -0.2500-0.2500 0.1667  plane waves:     829
 k-point ** :   0.2500 0.2500 0.2500  plane waves:     826
 k-point ** :   0.3333 0.2500 0.2500  plane waves:     833
 k-point ** :   0.4167 0.2500 0.2500  plane waves:     832
 k-point ** :   0.5000 0.2500 0.2500  plane waves:     834
 k-point ** :  -0.4167 0.2500 0.2500  plane waves:     822
 k-point ** :  -0.3333 0.2500 0.2500  plane waves:     822
 k-point ** :  -0.2500 0.2500 0.2500  plane waves:     834
 k-point ** :   0.3333 0.3333 0.2500  plane waves:     835
 k-point ** :   0.4167 0.3333 0.2500  plane waves:     835
 k-point ** :   0.5000 0.3333 0.2500  plane waves:     832
 k-point ** :  -0.4167 0.3333 0.2500  plane waves:     825
 k-point ** :  -0.3333 0.3333 0.2500  plane waves:     826
 k-point ** :  -0.2500 0.3333 0.2500  plane waves:     829
 k-point ** :   0.4167 0.4167 0.2500  plane waves:     831
 k-point ** :   0.5000 0.4167 0.2500  plane waves:     833
 k-point ** :  -0.4167 0.4167 0.2500  plane waves:     832
 k-point ** :  -0.3333 0.4167 0.2500  plane waves:     829
 k-point ** :  -0.2500 0.4167 0.2500  plane waves:     826
 k-point ** :   0.5000 0.5000 0.2500  plane waves:     840
 k-point ** :  -0.4167 0.5000 0.2500  plane waves:     829
 k-point ** :  -0.3333 0.5000 0.2500  plane waves:     830
 k-point ** :  -0.2500 0.5000 0.2500  plane waves:     828
 k-point ** :  -0.4167-0.4167 0.2500  plane waves:     827
 k-point ** :  -0.3333-0.4167 0.2500  plane waves:     826
 k-point ** :  -0.3333-0.3333 0.2500  plane waves:     821
 k-point ** :   0.3333 0.3333 0.3333  plane waves:     828
 k-point ** :   0.4167 0.3333 0.3333  plane waves:     835
 k-point ** :   0.5000 0.3333 0.3333  plane waves:     835
 k-point ** :  -0.4167 0.3333 0.3333  plane waves:     833
 k-point ** :  -0.3333 0.3333 0.3333  plane waves:     832
 k-point ** :   0.4167 0.4167 0.3333  plane waves:     832
 k-point ** :   0.5000 0.4167 0.3333  plane waves:     836
 k-point ** :  -0.4167 0.4167 0.3333  plane waves:     833
 k-point ** :  -0.3333 0.4167 0.3333  plane waves:     827
 k-point ** :   0.5000 0.5000 0.3333  plane waves:     841
 k-point ** :  -0.4167 0.5000 0.3333  plane waves:     828
 k-point ** :  -0.3333 0.5000 0.3333  plane waves:     828
 k-point ** :  -0.4167-0.4167 0.3333  plane waves:     829
 k-point ** :   0.4167 0.4167 0.4167  plane waves:     834
 k-point ** :   0.5000 0.4167 0.4167  plane waves:     838
 k-point ** :  -0.4167 0.4167 0.4167  plane waves:     844
 k-point ** :   0.5000 0.5000 0.4167  plane waves:     844
 k-point ** :  -0.4167 0.5000 0.4167  plane waves:     842
 k-point ** :   0.5000 0.5000 0.5000  plane waves:     840

 maximum and minimum number of plane-waves per node :       230      184

 maximum number of plane-waves:       844
 maximum index in each direction: 
   IXMAX=    6   IYMAX=    6   IZMAX=    5
   IXMIN=   -6   IYMIN=   -6   IZMIN=   -6


 parallel 3D FFT for wavefunctions:
    minimum data exchange during FFTs selected (reduces bandwidth)
 parallel 3D FFT for charge:
    minimum data exchange during FFTs selected (reduces bandwidth)


 total amount of memory used by VASP MPI-rank0    37682. kBytes
=======================================================================

   base      :      30000. kBytes
   nonl-proj :       2640. kBytes
   fftplans  :        346. kBytes
   grid      :        481. kBytes
   one-center:          6. kBytes
   wavefun   :       4209. kBytes
 
     INWAV:  cpu time    0.0004: real time    0.0006
 Broyden mixing: mesh for mixing (old mesh)
   NGX = 11   NGY = 11   NGZ = 11
  (NGX  = 48   NGY  = 48   NGZ  = 48)
  gives a total of   1331 points

 initial charge density was supplied:
 charge density of overlapping atoms calculated
 number of electron      32.0000000 magnetization 
 keeping initial charge density in first step


--------------------------------------------------------------------------------------------------------


 Maximum index for augmentation-charges          281 (set IRDMAX)


--------------------------------------------------------------------------------------------------------


 First call to EWALD:  gamma=   0.496
 Maximum number of real-space cells 3x 3x 3
 Maximum number of reciprocal cells 3x 3x 3

    FEWALD:  cpu time    0.0052: real time    0.0052


--------------------------------------- Iteration      1(   1)  ---------------------------------------


    POTLOK:  cpu time    0.0258: real time    0.0299
    SETDIJ:  cpu time    0.0065: real time    0.0065
     EDDAV:  cpu time    9.3821: real time    9.3954
 BZINTS: Fermi energy: 18.466715; 32.000000 electrons
         Band energy: 121.820137;  BLOECHL correction: -0.170650
       DOS:  cpu time    0.4901: real time    0.4904
    --------------------------------------------
      LOOP:  cpu time    9.9044: real time    9.9222

 eigenvalue-minimisations  :  9072
 total energy-change (2. order) : 0.5805090E+02  (-0.1439864E+04)
 number of electron      32.0000000 magnetization 
 augmentation part       32.0000000 magnetization 

 Free energy of the ion-electron system (eV)
  ---------------------------------------------------
  alpha Z        PSCENC =       114.32420397
  Ewald energy   TEWEN  =     -1389.10862991
  -Hartree energ DENC   =       -71.05631429
  -exchange      EXHF   =         0.00000000
  -V(xc)+E(xc)   XCENC  =       114.25755502
  PAW double counting   =       302.65154477     -311.85538214
  entropy T*S    EENTRO =         0.00000000
  eigenvalues    EBANDS =       121.82013652
  atomic energy  EATOM  =      1177.01779097
  Solvation  Ediel_sol  =         0.00000000
  ---------------------------------------------------
  free energy    TOTEN  =        58.05090491 eV

  energy without entropy =       58.05090491  energy(sigma->0) =       58.05090491


--------------------------------------------------------------------------------------------------------




--------------------------------------- Iteration      1(   2)  ---------------------------------------


     EDDAV:  cpu time   11.7060: real time   11.7074
 BZINTS: Fermi energy:  8.826674; 32.000000 electrons
         Band energy:  -7.184154;  BLOECHL correction:  0.000000
       DOS:  cpu time    0.1083: real time    0.1084
    --------------------------------------------
      LOOP:  cpu time   11.8144: real time   11.8158

 eigenvalue-minimisations  : 12504
 total energy-change (2. order) :-0.1290043E+03  (-0.1226315E+03)
 number of electron      32.0000000 magnetization 
 augmentation part       32.0000000 magnetization 

 Free energy of the ion-electron system (eV)
  ---------------------------------------------------
  alpha Z        PSCENC =       114.32420397
  Ewald energy   TEWEN  =     -1389.10862991
  -Hartree energ DENC   =       -71.05631429
  -exchange      EXHF   =         0.00000000
  -V(xc)+E(xc)   XCENC  =       114.25755502
  PAW double counting   =       302.65154477     -311.85538214
  entropy T*S    EENTRO =         0.00000000
  eigenvalues    EBANDS =        -7.18415358
  atomic energy  EATOM  =      1177.01779097
  Solvation  Ediel_sol  =         0.00000000
  ---------------------------------------------------
  free energy    TOTEN  =       -70.95338519 eV

  energy without entropy =      -70.95338519  energy(sigma->0) =      -70.95338519


--------------------------------------------------------------------------------------------------------




--------------------------------------- Iteration      1(   3)  ---------------------------------------


     EDDAV:  cpu time   11.2776: real time   11.2818
 BZINTS: Fermi energy:  8.394135; 32.000000 electrons
         Band energy: -11.347491;  BLOECHL correction:  0.000000
       DOS:  cpu time    0.1074: real time    0.1075
    --------------------------------------------
      LOOP:  cpu time   11.3851: real time   11.3892

 eigenvalue-minimisations  : 11800
 total energy-change (2. order) :-0.4163337E+01  (-0.4143106E+01)
 number of electron      32.0000000 magnetization 
 augmentation part       32.0000000 magnetization 

 Free energy of the ion-electron system (eV)
  ---------------------------------------------------
  alpha Z        PSCENC =       114.32420397
  Ewald energy   TEWEN  =     -1389.10862991
  -Hartree energ DENC   =       -71.05631429
  -exchange      EXHF   =         0.00000000
  -V(xc)+E(xc)   XCENC  =       114.25755502
  PAW double counting   =       302.65154477     -311.85538214
  entropy T*S    EENTRO =         0.00000000
  eigenvalues    EBANDS =       -11.34749065
  atomic energy  EATOM  =      1177.01779097
  Solvation  Ediel_sol  =         0.00000000
  ---------------------------------------------------
  free energy    TOTEN  =       -75.11672226 eV

  energy without entropy =      -75.11672226  energy(sigma->0) =      -75.11672226


--------------------------------------------------------------------------------------------------------




--------------------------------------- Iteration      1(   4)  ---------------------------------------


     EDDAV:  cpu time   10.7617: real time   10.7628
 BZINTS: Fermi energy:  8.313761; 32.000000 electrons
         Band energy: -11.389125;  BLOECHL correction:  0.000000
       DOS:  cpu time    0.1079: real time    0.1079
    --------------------------------------------
      LOOP:  cpu time   10.8696: real time   10.8707

 eigenvalue-minimisations  : 11408
 total energy-change (2. order) :-0.4163451E-01  (-0.4158214E-01)
 number of electron      32.0000000 magnetization 
 augmentation part       32.0000000 magnetization 

 Free energy of the ion-electron system (eV)
  ---------------------------------------------------
  alpha Z        PSCENC =       114.32420397
  Ewald energy   TEWEN  =     -1389.10862991
  -Hartree energ DENC   =       -71.05631429
  -exchange      EXHF   =         0.00000000
  -V(xc)+E(xc)   XCENC  =       114.25755502
  PAW double counting   =       302.65154477     -311.85538214
  entropy T*S    EENTRO =         0.00000000
  eigenvalues    EBANDS =       -11.38912516
  atomic energy  EATOM  =      1177.01779097
  Solvation  Ediel_sol  =         0.00000000
  ---------------------------------------------------
  free energy    TOTEN  =       -75.15835677 eV

  energy without entropy =      -75.15835677  energy(sigma->0) =      -75.15835677


--------------------------------------------------------------------------------------------------------




--------------------------------------- Iteration      1(   5)  ---------------------------------------


     EDDAV:  cpu time   11.2343: real time   11.2359
 BZINTS: Fermi energy:  8.395345; 32.000000 electrons
         Band energy: -11.389957;  BLOECHL correction:  0.000000
       DOS:  cpu time    0.1216: real time    0.1216
    CHARGE:  cpu time    0.2620: real time    0.2620
    MIXING:  cpu time    0.0016: real time    0.0016
    --------------------------------------------
      LOOP:  cpu time   11.6194: real time   11.6210

 eigenvalue-minimisations  : 11696
 total energy-change (2. order) :-0.8318507E-03  (-0.8314824E-03)
 number of electron      32.0000022 magnetization 
 augmentation part        0.7851941 magnetization 

 Broyden mixing:
  rms(total) = 0.94640E+00    rms(broyden)= 0.94622E+00
  rms(prec ) = 0.22368E+01
  weight for this iteration     100.00

 Free energy of the ion-electron system (eV)
  ---------------------------------------------------
  alpha Z        PSCENC =       114.32420397
  Ewald energy   TEWEN  =     -1389.10862991
  -Hartree energ DENC   =       -71.05631429
  -exchange      EXHF   =         0.00000000
  -V(xc)+E(xc)   XCENC  =       114.25755502
  PAW double counting   =       302.65154477     -311.85538214
  entropy T*S    EENTRO =         0.00000000
  eigenvalues    EBANDS =       -11.38995701
  atomic energy  EATOM  =      1177.01779097
  Solvation  Ediel_sol  =         0.00000000
  ---------------------------------------------------
  free energy    TOTEN  =       -75.15918862 eV

  energy without entropy =      -75.15918862  energy(sigma->0) =      -75.15918862


--------------------------------------------------------------------------------------------------------




--------------------------------------- Iteration      1(   6)  ---------------------------------------


    POTLOK:  cpu time    0.0208: real time    0.0213
    SETDIJ:  cpu time    0.0058: real time    0.0058
     EDDAV:  cpu time   10.1084: real time   10.1092
 BZINTS: Fermi energy:  9.048243; 32.000000 electrons
         Band energy:   4.764521;  BLOECHL correction:  0.000000
       DOS:  cpu time    0.1080: real time    0.1080
    CHARGE:  cpu time    0.2578: real time    0.2578
    MIXING:  cpu time    0.0019: real time    0.0019
    --------------------------------------------
      LOOP:  cpu time   10.5027: real time   10.5040

 eigenvalue-minimisations  : 10240
 total energy-change (2. order) : 0.1882109E+01  (-0.1249047E+00)
 number of electron      32.0000021 magnetization 
 augmentation part        0.7674059 magnetization 

 Broyden mixing:
  rms(total) = 0.51892E+00    rms(broyden)= 0.51890E+00
  rms(prec ) = 0.12092E+01
  weight for this iteration     100.00

 eigenvalues of (default mixing * dielectric matrix)
  average eigenvalue GAMMA=   2.1669
  2.1669

 Free energy of the ion-electron system (eV)
  ---------------------------------------------------
  alpha Z        PSCENC =       114.32420397
  Ewald energy   TEWEN  =     -1389.10862991
  -Hartree energ DENC   =       -86.20816192
  -exchange      EXHF   =         0.00000000
  -V(xc)+E(xc)   XCENC  =       115.67400780
  PAW double counting   =       393.27642866     -403.01724038
  entropy T*S    EENTRO =         0.00000000
  eigenvalues    EBANDS =         4.76452116
  atomic energy  EATOM  =      1177.01779097
  Solvation  Ediel_sol  =         0.00000000
  ---------------------------------------------------
  free energy    TOTEN  =       -73.27707964 eV

  energy without entropy =      -73.27707964  energy(sigma->0) =      -73.27707964


--------------------------------------------------------------------------------------------------------




--------------------------------------- Iteration      1(   7)  ---------------------------------------


    POTLOK:  cpu time    0.0215: real time    0.0219
    SETDIJ:  cpu time    0.0058: real time    0.0058
     EDDAV:  cpu time   10.4558: real time   10.4567
 BZINTS: Fermi energy:  9.766799; 32.000000 electrons
         Band energy:  23.416096;  BLOECHL correction:  0.000000
       DOS:  cpu time    0.1084: real time    0.1084
    CHARGE:  cpu time    0.2640: real time    0.2640
    MIXING:  cpu time    0.0019: real time    0.0019
    --------------------------------------------
      LOOP:  cpu time   10.8573: real time   10.8587

 eigenvalue-minimisations  : 10688
 total energy-change (2. order) : 0.6350112E+00  (-0.1416091E+00)
 number of electron      32.0000021 magnetization 
 augmentation part        0.7482460 magnetization 

 Broyden mixing:
  rms(total) = 0.69819E-01    rms(broyden)= 0.69486E-01
  rms(prec ) = 0.12185E+00
  weight for this iteration     100.00

 eigenvalues of (default mixing * dielectric matrix)
  average eigenvalue GAMMA=   2.2694
  2.0088  2.5300

 Free energy of the ion-electron system (eV)
  ---------------------------------------------------
  alpha Z        PSCENC =       114.32420397
  Ewald energy   TEWEN  =     -1389.10862991
  -Hartree energ DENC   =      -105.54426467
  -exchange      EXHF   =         0.00000000
  -V(xc)+E(xc)   XCENC  =       117.50286230
  PAW double counting   =       516.42239655     -526.67252325
  entropy T*S    EENTRO =         0.00000000
  eigenvalues    EBANDS =        23.41609558
  atomic energy  EATOM  =      1177.01779097
  Solvation  Ediel_sol  =         0.00000000
  ---------------------------------------------------
  free energy    TOTEN  =       -72.64206845 eV

  energy without entropy =      -72.64206845  energy(sigma->0) =      -72.64206845


--------------------------------------------------------------------------------------------------------




--------------------------------------- Iteration      1(   8)  ---------------------------------------


    POTLOK:  cpu time    0.0207: real time    0.0212
    SETDIJ:  cpu time    0.0057: real time    0.0057
     EDDAV:  cpu time   11.1378: real time   11.1387
 BZINTS: Fermi energy:  9.777797; 32.000000 electrons
         Band energy:  23.713894;  BLOECHL correction:  0.000000
       DOS:  cpu time    0.1085: real time    0.1085
    CHARGE:  cpu time    0.2689: real time    0.2689
    MIXING:  cpu time    0.0018: real time    0.0018
    --------------------------------------------
      LOOP:  cpu time   11.5434: real time   11.5447

 eigenvalue-minimisations  : 11536
 total energy-change (2. order) :-0.7510088E-02  (-0.2949185E-02)
 number of electron      32.0000021 magnetization 
 augmentation part        0.7486778 magnetization 

 Broyden mixing:
  rms(total) = 0.78729E-02    rms(broyden)= 0.77683E-02
  rms(prec ) = 0.13572E-01
  weight for this iteration     100.00

 eigenvalues of (default mixing * dielectric matrix)
  average eigenvalue GAMMA=   2.0812
  1.4297  2.6660  2.1479

 Free energy of the ion-electron system (eV)
  ---------------------------------------------------
  alpha Z        PSCENC =       114.32420397
  Ewald energy   TEWEN  =     -1389.10862991
  -Hartree energ DENC   =      -106.02775337
  -exchange      EXHF   =         0.00000000
  -V(xc)+E(xc)   XCENC  =       117.55261857
  PAW double counting   =       525.81078147     -535.93248431
[...]

 k-point   177 :       0.5000    0.4167    0.3333
  band No.  band energies     occupation 
      1      -7.1455      2.00000
      2      -6.7945      2.00000
      3      -6.0634      2.00000
      4      -6.0102      2.00000
      5      -3.1625      2.00000
      6      -3.1077      2.00000
      7      -2.0489      2.00000
      8      -1.8906      2.00000
      9       5.6551      2.00000
     10       5.7001      2.00000
     11       6.0930      2.00000
     12       6.4075      2.00000
     13       6.5959      2.00000
     14       6.6068      2.00000
     15       6.6685      2.00000
     16       6.9771      2.00000
     17      17.6601      0.00000
     18      17.8805      0.00000
     19      17.9112      0.00000
     20      18.0290      0.00000
     21      18.0564      0.00000
     22      18.3166      0.00000
     23      18.4146      0.00000
     24      18.4391      0.00000

 k-point   178 :      -0.4167    0.4167    0.3333
  band No.  band energies     occupation 
      1      -7.7374      2.00000
      2      -6.4259      2.00000
      3      -6.0571      2.00000
      4      -5.7953      2.00000
      5      -3.2777      2.00000
      6      -2.6631      2.00000
      7      -2.5114      2.00000
      8      -1.3809      2.00000
      9       5.4170      2.00000
     10       5.5646      2.00000
     11       5.8642      2.00000
     12       6.1487      2.00000
     13       6.4233      2.00000
     14       6.5461      2.00000
     15       6.8326      2.00000
     16       7.2811      2.00000
     17      17.3378      0.00000
     18      17.5885      0.00000
     19      17.6671      0.00000
     20      17.8846      0.00000
     21      18.2116      0.00000
     22      18.4756      0.00000
     23      18.7000      0.00000
     24      18.9948      0.00000

 k-point   179 :      -0.3333    0.4167    0.3333
  band No.  band energies     occupation 
      1      -8.2361      2.00000
      2      -6.8628      2.00000
      3      -5.8142      2.00000
      4      -5.3150      2.00000
      5      -2.9431      2.00000
      6      -2.9244      2.00000
      7      -1.9251      2.00000
      8      -0.5891      2.00000
      9       4.7142      2.00000
     10       5.0804      2.00000
     11       5.7222      2.00000
     12       5.9062      2.00000
     13       5.9880      2.00000
     14       6.2344      2.00000
     15       7.0345      2.00000
     16       7.3715      2.00000
     17      17.0022      0.00000
     18      17.2205      0.00000
     19      17.4618      0.00000
     20      17.5771      0.00000
     21      18.3031      0.00000
     22      18.9753      0.00000
     23      19.0683      0.00000
     24      19.5876      0.00000

 k-point   180 :       0.5000    0.5000    0.3333
  band No.  band energies     occupation 
      1      -6.5940      2.00000
      2      -6.5940      2.00000
      3      -6.5406      2.00000
      4      -6.1722      2.00000
      5      -2.7682      2.00000
      6      -2.7120      2.00000
      7      -2.7120      2.00000
      8      -2.6113      2.00000
      9       5.7798      2.00000
     10       6.1200      2.00000
     11       6.1200      2.00000
     12       6.1415      2.00000
     13       6.6006      2.00000
     14       6.9228      2.00000
     15       6.9228      2.00000
     16       6.9575      2.00000
     17      17.7348      0.00000
     18      17.9569      0.00000
     19      17.9569      0.00000
     20      17.9801      0.00000
     21      18.2269      0.00000
     22      18.2818      0.00000
     23      18.5094      0.00000
     24      18.6217      0.00000

 k-point   181 :      -0.4167    0.5000    0.3333
  band No.  band energies     occupation 
      1      -7.1261      2.00000
      2      -7.0957      2.00000
      3      -6.0558      2.00000
      4      -5.5397      2.00000
      5      -3.1396      2.00000
      6      -3.1285      2.00000
      7      -2.1261      2.00000
      8      -2.0942      2.00000
      9       5.3765      2.00000
     10       5.7618      2.00000
     11       6.2459      2.00000
     12       6.4482      2.00000
     13       6.4724      2.00000
     14       6.5228      2.00000
     15       6.9721      2.00000
     16       7.0476      2.00000
     17      17.6399      0.00000
     18      17.7710      0.00000
     19      17.7888      0.00000
     20      17.8374      0.00000
     21      18.2195      0.00000
     22      18.3304      0.00000
     23      18.8182      0.00000
     24      19.1043      0.00000

 k-point   182 :      -0.3333    0.5000    0.3333
  band No.  band energies     occupation 
      1      -7.5928      2.00000
      2      -7.5928      2.00000
      3      -5.6904      2.00000
      4      -5.1092      2.00000
      5      -3.2320      2.00000
      6      -3.1735      2.00000
      7      -1.3235      2.00000
      8      -1.3235      2.00000
      9       4.7715      2.00000
     10       5.1938      2.00000
     11       5.7984      2.00000
     12       6.0105      2.00000
     13       6.6105      2.00000
     14       6.6105      2.00000
     15       6.8251      2.00000
     16       6.8251      2.00000
     17      17.4391      0.00000
     18      17.4391      0.00000
     19      17.6256      0.00000
     20      17.8643      0.00000
     21      18.2290      0.00000
     22      18.8702      0.00000
     23      18.8702      0.00000
     24      19.3865      0.00000

 k-point   183 :      -0.4167   -0.4167    0.3333
  band No.  band energies     occupation 
      1      -7.7110      2.00000
      2      -6.4579      2.00000
      3      -6.4579      2.00000
      4      -5.2183      2.00000
      5      -3.3394      2.00000
      6      -2.6412      2.00000
      7      -2.6412      2.00000
      8      -1.4216      2.00000
      9       5.1086      2.00000
     10       5.9798      2.00000
     11       5.9798      2.00000
     12       6.0745      2.00000
     13       6.4035      2.00000
     14       6.4035      2.00000
     15       6.8383      2.00000
     16       7.3514      2.00000
     17      17.1744      0.00000
     18      17.6432      0.00000
     19      17.6432      0.00000
     20      17.7310      0.00000
     21      18.1836      0.00000
     22      19.0854      0.00000
     23      19.1041      0.00000
     24      19.2943      0.00000

 k-point   184 :       0.4167    0.4167    0.4167
  band No.  band energies     occupation 
      1      -6.9105      2.00000
      2      -6.1740      2.00000
      3      -6.1740      2.00000
      4      -6.1740      2.00000
      5      -3.2209      2.00000
      6      -3.2209      2.00000
      7      -3.2209      2.00000
      8      -1.9913      2.00000
      9       6.2974      2.00000
     10       6.2974      2.00000
     11       6.2974      2.00000
     12       6.6501      2.00000
     13       6.6501      2.00000
     14       6.6501      2.00000
     15       6.7619      2.00000
     16       6.7619      2.00000
     17      17.7204      0.00000
     18      17.7204      0.00000
     19      17.7204      0.00000
     20      17.7318      0.00000
     21      17.9545      0.00000
     22      17.9545      0.00000
     23      18.5475      0.00000
     24      18.5475      0.00000

 k-point   185 :       0.5000    0.4167    0.4167
  band No.  band energies     occupation 
      1      -6.7074      2.00000
      2      -6.2854      2.00000
      3      -6.0155      2.00000
      4      -6.0155      2.00000
      5      -3.5036      2.00000
      6      -3.5036      2.00000
      7      -2.8230      2.00000
      8      -2.7182      2.00000
      9       6.3922      2.00000
     10       6.3922      2.00000
     11       6.5229      2.00000
     12       6.5866      2.00000
     13       6.8056      2.00000
     14       6.8056      2.00000
     15       6.8752      2.00000
     16       6.9233      2.00000
     17      17.7147      0.00000
     18      17.9809      0.00000
     19      17.9878      0.00000
     20      18.0706      0.00000
     21      18.0710      0.00000
     22      18.1070      0.00000
     23      18.1602      0.00000
     24      18.1780      0.00000

 k-point   186 :      -0.4167    0.4167    0.4167
  band No.  band energies     occupation 
      1      -7.2422      2.00000
      2      -6.1488      2.00000
      3      -6.1488      2.00000
      4      -5.6496      2.00000
      5      -3.2712      2.00000
      6      -3.2712      2.00000
      7      -3.2386      2.00000
      8      -2.1994      2.00000
      9       6.0032      2.00000
     10       6.2891      2.00000
     11       6.3454      2.00000
     12       6.3455      2.00000
     13       6.6517      2.00000
     14       6.6517      2.00000
     15       7.0639      2.00000
     16       7.1639      2.00000
     17      17.4611      0.00000
     18      17.7319      0.00000
     19      17.7319      0.00000
     20      17.8294      0.00000
     21      18.1251      0.00000
     22      18.5160      0.00000
     23      18.5817      0.00000
     24      18.7944      0.00000

 k-point   187 :       0.5000    0.5000    0.4167
  band No.  band energies     occupation 
      1      -6.2785      2.00000
      2      -6.2785      2.00000
      3      -6.2608      2.00000
      4      -5.7617      2.00000
      5      -3.3831      2.00000
      6      -3.3647      2.00000
      7      -3.3647      2.00000
      8      -3.3466      2.00000
      9       6.4027      2.00000
     10       6.6198      2.00000
     11       6.7324      2.00000
     12       6.7689      2.00000
     13       6.7689      2.00000
     14       6.9693      2.00000
     15       6.9693      2.00000
     16       7.0246      2.00000
     17      17.8319      0.00000
     18      17.9026      0.00000
     19      17.9026      0.00000
     20      17.9580      0.00000
     21      18.0277      0.00000
     22      18.0381      0.00000
     23      18.1228      0.00000
     24      18.2978      0.00000

 k-point   188 :      -0.4167    0.5000    0.4167
  band No.  band energies     occupation 
      1      -6.6861      2.00000
      2      -6.6861      2.00000
      3      -6.0202      2.00000
      4      -5.4373      2.00000
      5      -3.5581      2.00000
      6      -3.5108      2.00000
      7      -2.8575      2.00000
      8      -2.8575      2.00000
      9       6.0803      2.00000
     10       6.4170      2.00000
     11       6.5028      2.00000
     12       6.7018      2.00000
     13       6.8530      2.00000
     14       6.8530      2.00000
     15       6.9845      2.00000
     16       6.9845      2.00000
     17      17.7963      0.00000
     18      17.7963      0.00000
     19      17.8231      0.00000
     20      17.8322      0.00000
     21      17.9432      0.00000
     22      18.3529      0.00000
     23      18.3529      0.00000
     24      18.5777      0.00000

 k-point   189 :       0.5000    0.5000    0.5000
  band No.  band energies     occupation 
      1      -6.1308      2.00000
      2      -6.1308      2.00000
      3      -6.1308      2.00000
      4      -5.5474      2.00000
      5      -3.6707      2.00000
      6      -3.6254      2.00000
      7      -3.6254      2.00000
      8      -3.6254      2.00000
      9       6.6330      2.00000
     10       6.6330      2.00000
     11       6.9419      2.00000
     12       6.9419      2.00000
     13       6.9419      2.00000
     14       7.0513      2.00000
     15       7.0513      2.00000
     16       7.0513      2.00000
     17      17.7712      0.00000
     18      17.8594      0.00000
     19      17.8594      0.00000
     20      17.8595      0.00000
     21      17.9530      0.00000
     22      17.9534      0.00000
     23      18.1644      0.00000
     24      18.1644      0.00000


--------------------------------------------------------------------------------------------------------


 soft charge-density along one line, spin component           1
         0         1         2         3         4         5         6         7         8         9
 total charge-density along one line
 
 pseudopotential strength for first ion, spin component:           1
  9.443  -0.005  -0.000  -0.000  -0.000   0.000   0.000   0.000
 -0.005  -0.002  -0.000  -0.000  -0.000   0.000   0.000   0.000
 -0.000  -0.000  -3.663   0.000   0.000  -0.009  -0.000  -0.000
 -0.000  -0.000   0.000  -3.663   0.000  -0.000  -0.009  -0.000
 -0.000  -0.000   0.000   0.000  -3.663  -0.000  -0.000  -0.009
  0.000   0.000  -0.009  -0.000  -0.000  -0.757   0.000   0.000
  0.000   0.000  -0.000  -0.009  -0.000   0.000  -0.757   0.000
  0.000   0.000  -0.000  -0.000  -0.009   0.000   0.000  -0.757
 total augmentation occupancy for first ion, spin component:           1
  1.424  -1.030  -0.007  -0.007  -0.007  -0.004  -0.004  -0.003
 -1.030   1.026   0.017   0.017   0.017   0.005   0.006   0.005
 -0.007   0.017   1.097   0.014   0.014   0.184   0.002   0.002
 -0.007   0.017   0.014   1.098   0.014   0.002   0.184   0.002
 -0.007   0.017   0.014   0.014   1.097   0.002   0.002   0.184
 -0.004   0.005   0.184   0.002   0.002   0.036   0.000   0.000
 -0.004   0.006   0.002   0.184   0.002   0.000   0.036   0.000
 -0.003   0.005   0.002   0.002   0.184   0.000   0.000   0.036


------------------------ aborting loop because EDIFF is reached ----------------------------------------


    CHARGE:  cpu time    0.2747: real time    0.2747
    FORLOC:  cpu time    0.0019: real time    0.0019
    FORNL :  cpu time    0.4673: real time    0.4673
    STRESS:  cpu time    1.0986: real time    1.0989
    FORHAR:  cpu time    0.0060: real time    0.0060
    MIXING:  cpu time    0.0023: real time    0.0023
    OFIELD:  cpu time    0.0001: real time    0.0001

  FORCE on cell =-STRESS in cart. coord.  units (eV):
  Direction    XX          YY          ZZ          XY          YZ          ZX
  --------------------------------------------------------------------------------------
  Alpha Z   114.32420   114.32420   114.32420
  Ewald    -463.45513  -463.04544  -462.61009    10.24099    10.66333    10.45216
  Hartree    35.22811    35.32847    35.43512     2.50882     2.61229     2.56055
  E(xc)    -119.58131  -119.58081  -119.58027     0.01267     0.01319     0.01293
  Local     -46.68076   -47.14684   -47.64214   -11.65093   -12.13143   -11.89118
  n-local   -28.05109   -28.41667   -28.08459    -0.52072     0.01980    -0.87864
  augment    -2.82812    -2.82823    -2.82835    -0.00277    -0.00289    -0.00283
  Kinetic   504.08239   509.86401   516.43234     3.18836    -1.24309     5.83776
  Fock        0.00000     0.00000     0.00000     0.00000     0.00000     0.00000
  -------------------------------------------------------------------------------------
  Total      -1.13850    -1.00831    -0.86998     3.25411     3.38831     3.32121
  in kB     -39.98987   -35.41693   -30.55821   114.30062   119.01452   116.65757
  external pressure =      -35.32 kB  Pullay stress =        0.00 kB


 VOLUME and BASIS-vectors are now :
 -----------------------------------------------------------------------------
  energy-cutoff  :      400.00
  volume of cell :       45.61
      direct lattice vectors                 reciprocal lattice vectors
     3.573710000  0.000000000  0.000000000     0.279821250  0.005597529  0.005712954
    -0.071474000  3.572995000  0.000000000     0.000000000  0.279877246  0.005712949
    -0.071474000 -0.072918000  3.572251000     0.000000000  0.000000000  0.279935536

  length of vectors
     3.573710000  3.573709810  3.573709945     0.279935532  0.279935547  0.279935536


 FORCES acting on ions
    electron-ion (+dipol)            ewald-force                    non-local-force                 convergence-correction
 -----------------------------------------------------------------------------------------------
   -.350E+01 -.357E+01 -.364E+01   0.361E+01 0.368E+01 0.376E+01   -.203E-01 -.207E-01 -.211E-01   -.964E-05 -.983E-05 -.100E-04
   0.350E+01 0.357E+01 0.364E+01   -.361E+01 -.368E+01 -.376E+01   0.203E-01 0.207E-01 0.211E-01   0.964E-05 0.983E-05 0.100E-04
   -.350E+01 -.357E+01 -.364E+01   0.361E+01 0.368E+01 0.376E+01   -.203E-01 -.207E-01 -.211E-01   -.964E-05 -.983E-05 -.100E-04
   0.350E+01 0.357E+01 0.364E+01   -.361E+01 -.368E+01 -.376E+01   0.203E-01 0.207E-01 0.211E-01   0.964E-05 0.983E-05 0.100E-04
   -.350E+01 -.357E+01 -.364E+01   0.361E+01 0.368E+01 0.376E+01   -.203E-01 -.207E-01 -.211E-01   -.964E-05 -.983E-05 -.100E-04
   0.350E+01 0.357E+01 0.364E+01   -.361E+01 -.368E+01 -.376E+01   0.203E-01 0.207E-01 0.211E-01   0.964E-05 0.983E-05 0.100E-04
   -.350E+01 -.357E+01 -.364E+01   0.361E+01 0.368E+01 0.376E+01   -.203E-01 -.207E-01 -.211E-01   -.964E-05 -.983E-05 -.100E-04
   0.350E+01 0.357E+01 0.364E+01   -.361E+01 -.368E+01 -.376E+01   0.203E-01 0.207E-01 0.211E-01   0.964E-05 0.983E-05 0.100E-04
 -----------------------------------------------------------------------------------------------
   0.104E-12 0.126E-12 0.120E-13   -.222E-14 0.000E+00 -.888E-15   -.347E-17 0.278E-16 0.347E-16   -.552E-13 0.156E-13 0.148E-13
 
 
 POSITION                                       TOTAL-FORCE (eV/Angst)
 -----------------------------------------------------------------------------------
      0.82195      2.66152      0.89306         0.088660      0.090451      0.092317
     -0.03574     -0.03646      1.78613        -0.088660     -0.090451     -0.092317
      0.82195      0.83856      2.67919         0.088660      0.090451      0.092317
     -0.03574      1.78650      0.00000        -0.088660     -0.090451     -0.092317
      2.57307      2.62506      2.67919         0.088660      0.090451      0.092317
      1.78686      0.00000      0.00000        -0.088660     -0.090451     -0.092317
      2.64455      0.87502      0.89306         0.088660      0.090451      0.092317
      1.71538      1.75004      1.78613        -0.088660     -0.090451     -0.092317
 -----------------------------------------------------------------------------------
    total drift:                                0.000000      0.000000      0.000000


--------------------------------------------------------------------------------------------------------



  FREE ENERGIE OF THE ION-ELECTRON SYSTEM (eV)
  ---------------------------------------------------
  free  energy   TOTEN  =       -72.64985748 eV

  energy  without entropy=      -72.64985748  energy(sigma->0) =      -72.64985748
 


--------------------------------------------------------------------------------------------------------


    POTLOK:  cpu time    0.0270: real time    0.0270


--------------------------------------------------------------------------------------------------------


     LOOP+:  cpu time  131.9112: real time  131.9526
    4ORBIT:  cpu time    0.0000: real time    0.0000
 BZINTS: Fermi energy:  9.774378; 32.000000 electrons
         Band energy:  23.670707;  BLOECHL correction:  0.000000

 total amount of memory used by VASP MPI-rank0    37682. kBytes
=======================================================================

   base      :      30000. kBytes
   nonl-proj :       2640. kBytes
   fftplans  :        346. kBytes
   grid      :        481. kBytes
   one-center:          6. kBytes
   wavefun   :       4209. kBytes
 
  
  
 General timing and accounting informations for this job:
 ========================================================
  
                  Total CPU time used (sec):      135.561
                            User time (sec):      131.348
                          System time (sec):        4.213
                         Elapsed time (sec):      135.739
  
                   Maximum memory used (kb):      193696.
                   Average memory used (kb):           0.
  
                          Minor page faults:        36887
                          Major page faults:           36
                 Voluntary context switches:          783
