   8   8   0   0
  0.5701782E+01  0.3573710E-09  0.3573710E-09  0.3573710E-09  0.2000000E-16
  1.000000000000000E-004
  CAR 
 unknown system                          
     23.19684692    -13.39468025  301      9.79520009      1.00000000
    -13.395  0.0000E+00  0.0000E+00
    -13.273  0.0000E+00  0.0000E+00
    -13.151  0.0000E+00  0.0000E+00
    -13.029  0.0000E+00  0.0000E+00
    -12.907  0.0000E+00  0.0000E+00
    -12.785  0.0000E+00  0.0000E+00
    -12.663  0.0000E+00  0.0000E+00
    -12.541  0.0000E+00  0.0000E+00
    -12.419  0.0000E+00  0.0000E+00
    -12.297  0.0000E+00  0.0000E+00
    -12.175  0.0000E+00  0.0000E+00
    -12.053  0.0000E+00  0.0000E+00
    -11.931  0.0000E+00  0.0000E+00
    -11.809  0.0000E+00  0.0000E+00
    -11.687  0.3607E-01  0.5333E-03
    -11.565  0.1551E+00  0.1507E-01
    -11.443  0.2412E+00  0.3927E-01
    -11.321  0.2735E+00  0.7035E-01
    -11.199  0.3212E+00  0.1066E+00
    -11.077  0.3606E+00  0.1487E+00
    -10.955  0.3902E+00  0.1944E+00
    -10.833  0.4216E+00  0.2438E+00
    -10.711  0.4597E+00  0.2975E+00
    -10.589  0.4826E+00  0.3551E+00
    -10.467  0.5061E+00  0.4154E+00
    -10.345  0.5322E+00  0.4787E+00
    -10.223  0.5605E+00  0.5454E+00
    -10.101  0.5874E+00  0.6154E+00
     -9.979  0.6069E+00  0.6882E+00
     -9.857  0.6287E+00  0.7636E+00
     -9.736  0.6538E+00  0.8417E+00
     -9.614  0.6809E+00  0.9231E+00
     -9.492  0.7108E+00  0.1008E+01
     -9.370  0.7194E+00  0.1096E+01
     -9.248  0.7340E+00  0.1185E+01
     -9.126  0.7514E+00  0.1275E+01
     -9.004  0.7696E+00  0.1368E+01
     -8.882  0.7902E+00  0.1463E+01
     -8.760  0.8140E+00  0.1561E+01
     -8.638  0.8341E+00  0.1661E+01
     -8.516  0.8500E+00  0.1764E+01
     -8.394  0.8735E+00  0.1869E+01
     -8.272  0.8941E+00  0.1977E+01
     -8.150  0.9134E+00  0.2087E+01
     -8.028  0.9328E+00  0.2200E+01
     -7.906  0.9495E+00  0.2314E+01
     -7.784  0.1023E+01  0.2433E+01
     -7.662  0.1101E+01  0.2563E+01
     -7.540  0.1110E+01  0.2699E+01
     -7.418  0.1082E+01  0.2833E+01
     -7.296  0.1031E+01  0.2962E+01
     -7.174  0.1025E+01  0.3087E+01
     -7.052  0.1055E+01  0.3213E+01
     -6.930  0.1077E+01  0.3343E+01
     -6.808  0.1102E+01  0.3475E+01
     -6.686  0.1177E+01  0.3614E+01
     -6.564  0.1188E+01  0.3758E+01
     -6.442  0.1284E+01  0.3908E+01
     -6.320  0.1268E+01  0.4064E+01
     -6.198  0.1360E+01  0.4230E+01
     -6.076  0.1411E+01  0.4398E+01
     -5.954  0.1523E+01  0.4576E+01
     -5.832  0.1549E+01  0.4766E+01
     -5.710  0.1522E+01  0.4956E+01
     -5.588  0.1389E+01  0.5133E+01
     -5.467  0.1496E+01  0.5306E+01
     -5.345  0.1400E+01  0.5481E+01
     -5.223  0.1438E+01  0.5653E+01
     -5.101  0.1332E+01  0.5824E+01
     -4.979  0.1269E+01  0.5982E+01
     -4.857  0.1232E+01  0.6135E+01
     -4.735  0.1180E+01  0.6281E+01
     -4.613  0.1156E+01  0.6424E+01
     -4.491  0.1108E+01  0.6562E+01
     -4.369  0.1079E+01  0.6696E+01
     -4.247  0.1214E+01  0.6834E+01
     -4.125  0.1074E+01  0.6969E+01
     -4.003  0.1004E+01  0.7097E+01
     -3.881  0.9559E+00  0.7216E+01
     -3.759  0.9081E+00  0.7330E+01
     -3.637  0.8876E+00  0.7440E+01
     -3.515  0.9259E+00  0.7548E+01
     -3.393  0.1026E+01  0.7671E+01
     -3.271  0.1014E+01  0.7793E+01
     -3.149  0.1066E+01  0.7921E+01
     -3.027  0.9451E+00  0.8045E+01
     -2.905  0.9332E+00  0.8157E+01
     -2.783  0.9956E+00  0.8280E+01
     -2.661  0.9288E+00  0.8398E+01
     -2.539  0.9287E+00  0.8509E+01
     -2.417  0.1058E+01  0.8630E+01
     -2.295  0.1252E+01  0.8771E+01
     -2.173  0.1482E+01  0.8937E+01
     -2.051  0.1777E+01  0.9134E+01
     -1.929  0.2200E+01  0.9376E+01
     -1.807  0.2624E+01  0.9673E+01
     -1.685  0.2444E+01  0.9993E+01
     -1.563  0.2552E+01  0.1029E+02
     -1.441  0.2054E+01  0.1058E+02
     -1.319  0.1820E+01  0.1082E+02
     -1.198  0.1688E+01  0.1103E+02
     -1.076  0.1570E+01  0.1123E+02
     -0.954  0.1475E+01  0.1141E+02
     -0.832  0.1405E+01  0.1159E+02
     -0.710  0.1365E+01  0.1176E+02
     -0.588  0.1338E+01  0.1192E+02
     -0.466  0.1299E+01  0.1208E+02
     -0.344  0.1234E+01  0.1224E+02
     -0.222  0.1307E+01  0.1240E+02
     -0.100  0.1104E+01  0.1254E+02
      0.022  0.1093E+01  0.1267E+02
      0.144  0.1088E+01  0.1280E+02
      0.266  0.1068E+01  0.1293E+02
      0.388  0.9646E+00  0.1306E+02
      0.510  0.1150E+01  0.1318E+02
      0.632  0.1503E+01  0.1334E+02
      0.754  0.1840E+01  0.1355E+02
      0.876  0.2192E+01  0.1379E+02
      0.998  0.2141E+01  0.1406E+02
      1.120  0.2222E+01  0.1433E+02
      1.242  0.2169E+01  0.1459E+02
      1.364  0.2191E+01  0.1486E+02
      1.486  0.2255E+01  0.1513E+02
      1.608  0.1999E+01  0.1539E+02
      1.730  0.1364E+01  0.1560E+02
      1.852  0.1440E+01  0.1577E+02
      1.974  0.1743E+01  0.1596E+02
      2.096  0.2095E+01  0.1620E+02
      2.218  0.2340E+01  0.1647E+02
      2.340  0.2360E+01  0.1677E+02
      2.462  0.2366E+01  0.1705E+02
      2.584  0.2240E+01  0.1733E+02
      2.706  0.2340E+01  0.1761E+02
      2.828  0.2627E+01  0.1791E+02
      2.950  0.2705E+01  0.1824E+02
      3.072  0.2940E+01  0.1858E+02
      3.193  0.2823E+01  0.1896E+02
      3.315  0.2316E+01  0.1926E+02
      3.437  0.2654E+01  0.1959E+02
      3.559  0.2667E+01  0.1992E+02
      3.681  0.2812E+01  0.2024E+02
      3.803  0.3355E+01  0.2062E+02
      3.925  0.3782E+01  0.2106E+02
      4.047  0.3382E+01  0.2151E+02
      4.169  0.3196E+01  0.2190E+02
      4.291  0.2870E+01  0.2228E+02
      4.413  0.2736E+01  0.2261E+02
      4.535  0.2847E+01  0.2295E+02
      4.657  0.2888E+01  0.2331E+02
      4.779  0.2768E+01  0.2365E+02
      4.901  0.2922E+01  0.2400E+02
      5.023  0.2919E+01  0.2436E+02
      5.145  0.3008E+01  0.2472E+02
      5.267  0.3077E+01  0.2509E+02
      5.389  0.2933E+01  0.2545E+02
      5.511  0.2865E+01  0.2581E+02
      5.633  0.2440E+01  0.2614E+02
      5.755  0.2396E+01  0.2642E+02
      5.877  0.2570E+01  0.2672E+02
      5.999  0.2615E+01  0.2703E+02
      6.121  0.2776E+01  0.2736E+02
      6.243  0.2825E+01  0.2771E+02
      6.365  0.2746E+01  0.2805E+02
      6.487  0.2543E+01  0.2837E+02
      6.609  0.2663E+01  0.2868E+02
      6.731  0.2613E+01  0.2900E+02
      6.853  0.2156E+01  0.2932E+02
      6.975  0.1927E+01  0.2956E+02
      7.097  0.2084E+01  0.2980E+02
      7.219  0.1797E+01  0.3005E+02
      7.341  0.1561E+01  0.3025E+02
      7.462  0.1425E+01  0.3043E+02
      7.584  0.1337E+01  0.3060E+02
      7.706  0.1247E+01  0.3076E+02
      7.828  0.1151E+01  0.3091E+02
      7.950  0.1027E+01  0.3104E+02
      8.072  0.9449E+00  0.3116E+02
      8.194  0.8852E+00  0.3127E+02
      8.316  0.8434E+00  0.3137E+02
      8.438  0.7799E+00  0.3147E+02
      8.560  0.6958E+00  0.3156E+02
      8.682  0.6172E+00  0.3164E+02
      8.804  0.5603E+00  0.3171E+02
      8.926  0.5282E+00  0.3178E+02
      9.048  0.4135E+00  0.3184E+02
      9.170  0.3583E+00  0.3188E+02
      9.292  0.3835E+00  0.3193E+02
      9.414  0.2106E+00  0.3197E+02
      9.536  0.1213E+00  0.3199E+02
      9.658  0.1607E-01  0.3200E+02
      9.780  0.0000E+00  0.3200E+02
      9.902  0.0000E+00  0.3200E+02
     10.024  0.0000E+00  0.3200E+02
     10.146  0.0000E+00  0.3200E+02
     10.268  0.0000E+00  0.3200E+02
     10.390  0.0000E+00  0.3200E+02
     10.512  0.0000E+00  0.3200E+02
     10.634  0.0000E+00  0.3200E+02
     10.756  0.0000E+00  0.3200E+02
     10.878  0.0000E+00  0.3200E+02
     11.000  0.0000E+00  0.3200E+02
     11.122  0.0000E+00  0.3200E+02
     11.244  0.0000E+00  0.3200E+02
     11.366  0.0000E+00  0.3200E+02
     11.488  0.0000E+00  0.3200E+02
     11.610  0.0000E+00  0.3200E+02
     11.732  0.0000E+00  0.3200E+02
     11.853  0.0000E+00  0.3200E+02
     11.975  0.0000E+00  0.3200E+02
     12.097  0.0000E+00  0.3200E+02
     12.219  0.0000E+00  0.3200E+02
     12.341  0.0000E+00  0.3200E+02
     12.463  0.0000E+00  0.3200E+02
     12.585  0.0000E+00  0.3200E+02
     12.707  0.0000E+00  0.3200E+02
     12.829  0.0000E+00  0.3200E+02
     12.951  0.0000E+00  0.3200E+02
     13.073  0.0000E+00  0.3200E+02
     13.195  0.0000E+00  0.3200E+02
     13.317  0.0000E+00  0.3200E+02
     13.439  0.0000E+00  0.3200E+02
     13.561  0.0000E+00  0.3200E+02
     13.683  0.0000E+00  0.3200E+02
     13.805  0.1454E-01  0.3200E+02
     13.927  0.1589E+00  0.3201E+02
     14.049  0.4529E+00  0.3205E+02
     14.171  0.5462E+00  0.3212E+02
     14.293  0.6393E+00  0.3220E+02
     14.415  0.6791E+00  0.3227E+02
     14.537  0.8629E+00  0.3237E+02
     14.659  0.9338E+00  0.3248E+02
     14.781  0.1083E+01  0.3260E+02
     14.903  0.1391E+01  0.3275E+02
     15.025  0.1534E+01  0.3293E+02
     15.147  0.1481E+01  0.3312E+02
     15.269  0.1471E+01  0.3330E+02
     15.391  0.1525E+01  0.3348E+02
     15.513  0.1563E+01  0.3367E+02
     15.635  0.1782E+01  0.3387E+02
     15.757  0.1964E+01  0.3410E+02
     15.879  0.2108E+01  0.3435E+02
     16.001  0.2131E+01  0.3461E+02
     16.122  0.2156E+01  0.3487E+02
     16.244  0.2168E+01  0.3514E+02
     16.366  0.2168E+01  0.3540E+02
     16.488  0.2258E+01  0.3567E+02
     16.610  0.2363E+01  0.3595E+02
     16.732  0.2531E+01  0.3625E+02
     16.854  0.2697E+01  0.3657E+02
     16.976  0.2869E+01  0.3691E+02
     17.098  0.3158E+01  0.3728E+02
     17.220  0.3166E+01  0.3767E+02
     17.342  0.3306E+01  0.3806E+02
     17.464  0.3707E+01  0.3848E+02
     17.586  0.4582E+01  0.3901E+02
     17.708  0.3600E+01  0.3953E+02
     17.830  0.3419E+01  0.3995E+02
     17.952  0.2825E+01  0.4031E+02
     18.074  0.3032E+01  0.4067E+02
     18.196  0.3330E+01  0.4105E+02
     18.318  0.3898E+01  0.4149E+02
     18.440  0.3981E+01  0.4198E+02
     18.562  0.4004E+01  0.4247E+02
     18.684  0.3768E+01  0.4295E+02
     18.806  0.3545E+01  0.4339E+02
     18.928  0.3419E+01  0.4382E+02
     19.050  0.3136E+01  0.4422E+02
     19.172  0.2837E+01  0.4458E+02
     19.294  0.2777E+01  0.4492E+02
     19.416  0.2770E+01  0.4526E+02
     19.538  0.2705E+01  0.4560E+02
     19.660  0.2665E+01  0.4592E+02
     19.782  0.2814E+01  0.4626E+02
     19.904  0.2897E+01  0.4660E+02
     20.026  0.2686E+01  0.4694E+02
     20.148  0.2318E+01  0.4724E+02
     20.270  0.1821E+01  0.4750E+02
     20.391  0.1346E+01  0.4770E+02
     20.513  0.6861E+00  0.4781E+02
     20.635  0.4081E+00  0.4788E+02
     20.757  0.2831E+00  0.4792E+02
     20.879  0.1853E+00  0.4795E+02
     21.001  0.1313E+00  0.4797E+02
     21.123  0.8907E-01  0.4798E+02
     21.245  0.5995E-01  0.4799E+02
     21.367  0.3954E-01  0.4800E+02
     21.489  0.1195E-01  0.4800E+02
     21.611  0.0000E+00  0.4800E+02
     21.733  0.0000E+00  0.4800E+02
     21.855  0.0000E+00  0.4800E+02
     21.977  0.0000E+00  0.4800E+02
     22.099  0.0000E+00  0.4800E+02
     22.221  0.0000E+00  0.4800E+02
     22.343  0.0000E+00  0.4800E+02
     22.465  0.0000E+00  0.4800E+02
     22.587  0.0000E+00  0.4800E+02
     22.709  0.0000E+00  0.4800E+02
     22.831  0.0000E+00  0.4800E+02
     22.953  0.0000E+00  0.4800E+02
     23.075  0.0000E+00  0.4800E+02
     23.197  0.0000E+00  0.4800E+02
