       N       E                     dE             d eps       ncg     rms          rms(c)
DAV:   1     0.588885733943E+02    0.58889E+02   -0.14439E+04  9080   0.106E+03
DAV:   2    -0.709035777302E+02   -0.12979E+03   -0.12299E+03 12584   0.222E+02
DAV:   3    -0.751215089547E+02   -0.42179E+01   -0.41965E+01 11768   0.375E+01
DAV:   4    -0.751633203866E+02   -0.41811E-01   -0.41773E-01 11392   0.413E+00
DAV:   5    -0.751641772935E+02   -0.85691E-03   -0.85650E-03 11688   0.531E-01    0.946E+00
DAV:   6    -0.732830304049E+02    0.18811E+01   -0.12488E+00 10360   0.637E+00    0.519E+00
DAV:   7    -0.726482802110E+02    0.63475E+00   -0.14150E+00 10648   0.697E+00    0.698E-01
DAV:   8    -0.726557914167E+02   -0.75112E-02   -0.29366E-02 11520   0.100E+00    0.790E-02
DAV:   9    -0.726560102187E+02   -0.21880E-03   -0.43862E-04 11064   0.142E-01    0.292E-02
DAV:  10    -0.726560664237E+02   -0.56205E-04   -0.46089E-05 11448   0.513E-02    0.277E-03
DAV:  11    -0.726560673379E+02   -0.91418E-06   -0.10905E-06  8440   0.754E-03
   1 F= -.72656067E+02 E0= -.72656067E+02  d E =0.000000E+00
