 vasp.5.4.4.18Apr17-6-g9f103f2a35 (build Mar 12 2022 03:36:41) complex          
  
 executed on IFC19.0.3.199_CrayMP date 2022.11.30  12:50:09
 running on   16 total cores
 distrk:  each k-point on   16 cores,    1 groups
 distr:  one band on NCORES_PER_BAND=   4 cores,    4 groups


--------------------------------------------------------------------------------------------------------


 INCAR:
 POTCAR:   PAW_PBE C 08Apr2002                    
 POTCAR:   PAW_PBE C 08Apr2002                    
   VRHFIN =C: s2p2                                                              
   LEXCH  = PE                                                                  
   EATOM  =   147.1560 eV,   10.8157 Ry                                         
                                                                                
   TITEL  = PAW_PBE C 08Apr2002                                                 
   LULTRA =        F    use ultrasoft PP ?                                      
   IUNSCR =        0    unscreen: 0-lin 1-nonlin 2-no                           
   RPACOR =     .000    partial core radius                                     
   POMASS =   12.011; ZVAL   =    4.000    mass and valenz                      
   RCORE  =    1.500    outmost cutoff radius                                   
   RWIGS  =    1.630; RWIGS  =     .863    wigner-seitz radius (au A)           
   ENMAX  =  400.000; ENMIN  =  300.000 eV                                      
   ICORE  =        2    local potential                                         
   LCOR   =        T    correct aug charges                                     
   LPAW   =        T    paw PP                                                  
   EAUG   =  644.873                                                            
   DEXC   =     .000                                                            
   RMAX   =    2.266    core radius for proj-oper                               
   RAUG   =    1.300    factor for augmentation sphere                          
   RDEP   =    1.501    radius for radial grids                                 
   RDEPT  =    1.300    core radius for aug-charge                              
   QCUT   =   -5.516; QGAM   =   11.032    optimization parameters              
                                                                                
   Description                                                                  
     l     E      TYP  RCUT    TYP  RCUT                                        
     0   .000     23  1.200                                                     
     0   .000     23  1.200                                                     
     1   .000     23  1.500                                                     
     1  2.500     23  1.500                                                     
     2   .000      7  1.500                                                     
  local pseudopotential read in
  atomic valenz-charges read in
  non local Contribution for L=           0  read in
    real space projection operators read in
  non local Contribution for L=           0  read in
    real space projection operators read in
  non local Contribution for L=           1  read in
    real space projection operators read in
  non local Contribution for L=           1  read in
    real space projection operators read in
    PAW grid and wavefunctions read in
 
   number of l-projection  operators is LMAX  =           4
   number of lm-projection operators is LMMAX =           8
 
 PAW_PBE C 08Apr2002                    :
 energy of atom  1       EATOM= -147.1560
 kinetic energy error for atom=    0.0288 (will be added to EATOM!!)
 
 
 POSCAR: C8                                      
  positions in direct lattice
  No initial velocities read in
 exchange correlation table for  LEXCH =        8
   RHO(1)=    0.500       N(1)  =     2000
   RHO(2)=  100.500       N(2)  =     4000
 


--------------------------------------------------------------------------------------------------------


 ion  position               nearest neighbor table
   1  0.250  0.750  0.250-   6 1.54   8 1.54   2 1.54   4 1.58
   2  0.000  0.000  0.500-   5 1.54   7 1.54   1 1.54   3 1.58
   3  0.250  0.250  0.750-   6 1.54   8 1.54   4 1.54   2 1.58
   4  0.000  0.500  0.000-   5 1.54   7 1.54   3 1.54   1 1.58
   5  0.750  0.750  0.750-   2 1.54   4 1.54   6 1.54   8 1.58
   6  0.500  0.000  0.000-   1 1.54   3 1.54   5 1.54   7 1.58
   7  0.750  0.250  0.250-   2 1.54   4 1.54   8 1.54   6 1.58
   8  0.500  0.500  0.500-   1 1.54   3 1.54   7 1.54   5 1.58
 
  LATTYP: Found a trigonal (rhomboedric) cell.
 ALAT       =     3.5737098095
 COS(alpha) =     0.0199999451
  
  Lattice vectors:
  
 A1 = (   3.5737100000,   0.0000000000,   0.0000000000)
 A2 = (   0.0714740000,   3.5729950000,   0.0000000000)
 A3 = (   0.0714740000,   0.0700590000,   3.5723080000)


Analysis of symmetry for initial positions (statically):
=====================================================================
 Subroutine PRICEL returns following result:
 
  LATTYP: Found a trigonal (rhomboedric) cell.
 ALAT       =     2.5521393489
 COS(alpha) =     0.5196078137
  
  Lattice vectors:
  
 A1 = (  -0.0714740000,  -1.8215270000,  -1.7861540000)
 A2 = (  -1.8225920000,  -1.7864975000,   0.0000000000)
 A3 = (  -1.8225920000,  -0.0350295000,  -1.7861540000)
 
   4 primitive cells build up your supercell.
 

 Routine SETGRP: Setting up the symmetry group for a 
 trigonal (rhombohedral) supercell.


 Subroutine GETGRP returns: Found 12 space group operations
 (whereof  6 operations were pure point group operations)
 out of a pool of 12 trial point group operations.


The static configuration has the point symmetry C_3v.
 The point group associated with its full space group is D_3d.


Analysis of symmetry for dynamics (positions and initial velocities):
=====================================================================
 Subroutine PRICEL returns following result:
 
  LATTYP: Found a trigonal (rhomboedric) cell.
 ALAT       =     2.5521393489
 COS(alpha) =     0.5196078137
  
  Lattice vectors:
  
 A1 = (  -0.0714740000,  -1.8215270000,  -1.7861540000)
 A2 = (  -1.8225920000,  -1.7864975000,   0.0000000000)
 A3 = (  -1.8225920000,  -0.0350295000,  -1.7861540000)
 
   4 primitive cells build up your supercell.
 

 Routine SETGRP: Setting up the symmetry group for a 
 trigonal (rhombohedral) supercell.


 Subroutine GETGRP returns: Found 12 space group operations
 (whereof  6 operations were pure point group operations)
 out of a pool of 12 trial point group operations.


The dynamic configuration has the point symmetry C_3v.
 The point group associated with its full space group is D_3d.


 Subroutine INISYM returns: Found 12 space group operations
 (whereof  6 operations are pure point group operations),
 and found     4 'primitive' translations

 
 
 KPOINTS: kpt_density=1000                        

Automatic generation of k-mesh.
Space group operators:
 irot       det(A)        alpha          n_x          n_y          n_z        tau_x        tau_y        tau_z
    1     1.000000     0.000001     1.000000     0.000000     0.000000     0.000000     0.000000     0.000000
    2    -1.000000   180.000000     0.000000    -0.700140     0.714006     0.000000     0.000000     0.000000
    3     1.000000   120.000000    -0.588784    -0.577124    -0.565916     0.000000     0.000000     0.000000
    4    -1.000000   180.000000    -0.700000     0.714143    -0.000000     0.000000     0.000000     0.000000
    5     1.000000   120.000000     0.588784     0.577124     0.565916     0.000000     0.000000     0.000000
    6    -1.000000   180.000000    -0.700000     0.014003     0.714006     0.000000     0.000000     0.000000
    7    -1.000000     0.000001     1.000000     0.000000     0.000000    -0.750000    -0.750000    -0.750000
    8     1.000000   180.000000     0.000000    -0.700140     0.714006    -0.750000    -0.750000    -0.750000
    9    -1.000000   120.000000    -0.588784    -0.577124    -0.565916    -0.750000    -0.750000    -0.750000
   10     1.000000   180.000000    -0.700000     0.714143    -0.000000    -0.750000    -0.750000    -0.750000
   11    -1.000000   120.000000     0.588784     0.577124     0.565916    -0.750000    -0.750000    -0.750000
   12     1.000000   180.000000    -0.700000     0.014003     0.714006    -0.750000    -0.750000    -0.750000
 
 Subroutine IBZKPT returns following result:
 ===========================================
 
 Found    189 irreducible k-points:
 
 Following reciprocal coordinates:
            Coordinates               Weight
  0.000000  0.000000  0.000000      1.000000
  0.083333 -0.000000 -0.000000      6.000000
  0.166667 -0.000000 -0.000000      6.000000
  0.250000  0.000000 -0.000000      6.000000
  0.333333 -0.000000 -0.000000      6.000000
  0.416667 -0.000000 -0.000000      6.000000
  0.500000  0.000000 -0.000000      3.000000
  0.083333  0.083333 -0.000000      6.000000
  0.166667  0.083333 -0.000000     12.000000
  0.250000  0.083333 -0.000000     12.000000
  0.333333  0.083333 -0.000000     12.000000
  0.416667  0.083333 -0.000000     12.000000
  0.500000  0.083333 -0.000000     12.000000
 -0.416667  0.083333  0.000000     12.000000
 -0.333333  0.083333  0.000000     12.000000
 -0.250000  0.083333  0.000000     12.000000
 -0.166667  0.083333  0.000000     12.000000
 -0.083333  0.083333  0.000000      6.000000
  0.166667  0.166667  0.000000      6.000000
  0.250000  0.166667 -0.000000     12.000000
  0.333333  0.166667 -0.000000     12.000000
  0.416667  0.166667 -0.000000     12.000000
  0.500000  0.166667 -0.000000     12.000000
 -0.416667  0.166667  0.000000     12.000000
 -0.333333  0.166667  0.000000     12.000000
 -0.250000  0.166667  0.000000     12.000000
 -0.166667  0.166667  0.000000      6.000000
  0.250000  0.250000 -0.000000      6.000000
  0.333333  0.250000 -0.000000     12.000000
  0.416667  0.250000 -0.000000     12.000000
  0.500000  0.250000 -0.000000     12.000000
 -0.416667  0.250000  0.000000     12.000000
 -0.333333  0.250000  0.000000     12.000000
 -0.250000  0.250000  0.000000      6.000000
  0.333333  0.333333 -0.000000      6.000000
  0.416667  0.333333 -0.000000     12.000000
  0.500000  0.333333 -0.000000     12.000000
 -0.416667  0.333333  0.000000     12.000000
 -0.333333  0.333333  0.000000      6.000000
  0.416667  0.416667 -0.000000      6.000000
  0.500000  0.416667 -0.000000     12.000000
 -0.416667  0.416667  0.000000      6.000000
  0.500000  0.500000 -0.000000      3.000000
  0.083333  0.083333  0.083333      2.000000
  0.166667  0.083333  0.083333      6.000000
  0.250000  0.083333  0.083333      6.000000
  0.333333  0.083333  0.083333      6.000000
  0.416667  0.083333  0.083333      6.000000
  0.500000  0.083333  0.083333      6.000000
 -0.416667  0.083333  0.083333      6.000000
 -0.333333  0.083333  0.083333      6.000000
 -0.250000  0.083333  0.083333      6.000000
 -0.166667  0.083333  0.083333      6.000000
 -0.083333  0.083333  0.083333      6.000000
  0.166667  0.166667  0.083333      6.000000
  0.250000  0.166667  0.083333     12.000000
  0.333333  0.166667  0.083333     12.000000
  0.416667  0.166667  0.083333     12.000000
  0.500000  0.166667  0.083333     12.000000
 -0.416667  0.166667  0.083333     12.000000
 -0.333333  0.166667  0.083333     12.000000
 -0.250000  0.166667  0.083333     12.000000
 -0.166667  0.166667  0.083333     12.000000
 -0.083333  0.166667  0.083333     12.000000
  0.250000  0.250000  0.083333      6.000000
  0.333333  0.250000  0.083333     12.000000
  0.416667  0.250000  0.083333     12.000000
  0.500000  0.250000  0.083333     12.000000
 -0.416667  0.250000  0.083333     12.000000
 -0.333333  0.250000  0.083333     12.000000
 -0.250000  0.250000  0.083333     12.000000
 -0.166667  0.250000  0.083333     12.000000
 -0.083333  0.250000  0.083333     12.000000
  0.333333  0.333333  0.083333      6.000000
  0.416667  0.333333  0.083333     12.000000
  0.500000  0.333333  0.083333     12.000000
 -0.416667  0.333333  0.083333     12.000000
 -0.333333  0.333333  0.083333     12.000000
 -0.250000  0.333333  0.083333     12.000000
 -0.166667  0.333333  0.083333     12.000000
 -0.083333  0.333333  0.083333     12.000000
  0.416667  0.416667  0.083333      6.000000
  0.500000  0.416667  0.083333     12.000000
 -0.416667  0.416667  0.083333     12.000000
 -0.333333  0.416667  0.083333     12.000000
 -0.250000  0.416667  0.083333     12.000000
 -0.166667  0.416667  0.083333     12.000000
 -0.083333  0.416667  0.083333     12.000000
  0.500000  0.500000  0.083333      6.000000
 -0.416667  0.500000  0.083333     12.000000
 -0.333333  0.500000  0.083333     12.000000
 -0.250000  0.500000  0.083333     12.000000
 -0.166667  0.500000  0.083333     12.000000
 -0.083333  0.500000  0.083333      6.000000
 -0.416667 -0.416667  0.083333      6.000000
 -0.333333 -0.416667  0.083333     12.000000
 -0.250000 -0.416667  0.083333     12.000000
 -0.166667 -0.416667  0.083333     12.000000
 -0.333333 -0.333333  0.083333      6.000000
 -0.250000 -0.333333  0.083333     12.000000
 -0.166667 -0.333333  0.083333     12.000000
 -0.250000 -0.250000  0.083333      6.000000
 -0.166667 -0.250000  0.083333     12.000000
 -0.166667 -0.166667  0.083333      6.000000
  0.166667  0.166667  0.166667      2.000000
  0.250000  0.166667  0.166667      6.000000
  0.333333  0.166667  0.166667      6.000000
  0.416667  0.166667  0.166667      6.000000
  0.500000  0.166667  0.166667      6.000000
 -0.416667  0.166667  0.166667      6.000000
 -0.333333  0.166667  0.166667      6.000000
 -0.250000  0.166667  0.166667      6.000000
 -0.166667  0.166667  0.166667      6.000000
  0.250000  0.250000  0.166667      6.000000
  0.333333  0.250000  0.166667     12.000000
  0.416667  0.250000  0.166667     12.000000
  0.500000  0.250000  0.166667     12.000000
 -0.416667  0.250000  0.166667     12.000000
 -0.333333  0.250000  0.166667     12.000000
 -0.250000  0.250000  0.166667     12.000000
 -0.166667  0.250000  0.166667     12.000000
  0.333333  0.333333  0.166667      6.000000
  0.416667  0.333333  0.166667     12.000000
  0.500000  0.333333  0.166667     12.000000
 -0.416667  0.333333  0.166667     12.000000
 -0.333333  0.333333  0.166667     12.000000
 -0.250000  0.333333  0.166667     12.000000
 -0.166667  0.333333  0.166667     12.000000
  0.416667  0.416667  0.166667      6.000000
  0.500000  0.416667  0.166667     12.000000
 -0.416667  0.416667  0.166667     12.000000
 -0.333333  0.416667  0.166667     12.000000
 -0.250000  0.416667  0.166667     12.000000
 -0.166667  0.416667  0.166667     12.000000
  0.500000  0.500000  0.166667      6.000000
 -0.416667  0.500000  0.166667     12.000000
 -0.333333  0.500000  0.166667     12.000000
 -0.250000  0.500000  0.166667     12.000000
 -0.166667  0.500000  0.166667      6.000000
 -0.416667 -0.416667  0.166667      6.000000
 -0.333333 -0.416667  0.166667     12.000000
 -0.250000 -0.416667  0.166667     12.000000
 -0.333333 -0.333333  0.166667      6.000000
 -0.250000 -0.333333  0.166667     12.000000
 -0.250000 -0.250000  0.166667      6.000000
  0.250000  0.250000  0.250000      2.000000
  0.333333  0.250000  0.250000      6.000000
  0.416667  0.250000  0.250000      6.000000
  0.500000  0.250000  0.250000      6.000000
 -0.416667  0.250000  0.250000      6.000000
 -0.333333  0.250000  0.250000      6.000000
 -0.250000  0.250000  0.250000      6.000000
  0.333333  0.333333  0.250000      6.000000
  0.416667  0.333333  0.250000     12.000000
  0.500000  0.333333  0.250000     12.000000
 -0.416667  0.333333  0.250000     12.000000
 -0.333333  0.333333  0.250000     12.000000
 -0.250000  0.333333  0.250000     12.000000
  0.416667  0.416667  0.250000      6.000000
  0.500000  0.416667  0.250000     12.000000
 -0.416667  0.416667  0.250000     12.000000
 -0.333333  0.416667  0.250000     12.000000
 -0.250000  0.416667  0.250000     12.000000
  0.500000  0.500000  0.250000      6.000000
 -0.416667  0.500000  0.250000     12.000000
 -0.333333  0.500000  0.250000     12.000000
 -0.250000  0.500000  0.250000      6.000000
 -0.416667 -0.416667  0.250000      6.000000
 -0.333333 -0.416667  0.250000     12.000000
 -0.333333 -0.333333  0.250000      6.000000
  0.333333  0.333333  0.333333      2.000000
  0.416667  0.333333  0.333333      6.000000
  0.500000  0.333333  0.333333      6.000000
 -0.416667  0.333333  0.333333      6.000000
 -0.333333  0.333333  0.333333      6.000000
  0.416667  0.416667  0.333333      6.000000
  0.500000  0.416667  0.333333     12.000000
 -0.416667  0.416667  0.333333     12.000000
 -0.333333  0.416667  0.333333     12.000000
  0.500000  0.500000  0.333333      6.000000
 -0.416667  0.500000  0.333333     12.000000
 -0.333333  0.500000  0.333333      6.000000
 -0.416667 -0.416667  0.333333      6.000000
  0.416667  0.416667  0.416667      2.000000
  0.500000  0.416667  0.416667      6.000000
 -0.416667  0.416667  0.416667      6.000000
  0.500000  0.500000  0.416667      6.000000
 -0.416667  0.500000  0.416667      6.000000
  0.500000  0.500000  0.500000      1.000000
 
 Following cartesian coordinates:
            Coordinates               Weight
  0.000000  0.000000  0.000000      1.000000
  0.023318 -0.000466 -0.000457      6.000000
  0.046637 -0.000933 -0.000915      6.000000
  0.069955 -0.001399 -0.001372      6.000000
  0.093274 -0.001866 -0.001830      6.000000
  0.116592 -0.002332 -0.002287      6.000000
  0.139911 -0.002799 -0.002744      3.000000
  0.023318  0.022857 -0.000915      6.000000
  0.046637  0.022390 -0.001372     12.000000
  0.069955  0.021924 -0.001830     12.000000
  0.093274  0.021457 -0.002287     12.000000
  0.116592  0.020991 -0.002744     12.000000
  0.139911  0.020524 -0.003202     12.000000
 -0.116592  0.025655  0.001830     12.000000
 -0.093274  0.025189  0.001372     12.000000
 -0.069955  0.024722  0.000915     12.000000
 -0.046637  0.024256  0.000457     12.000000
 -0.023318  0.023790 -0.000000      6.000000
  0.046637  0.045713 -0.001830      6.000000
  0.069955  0.045247 -0.002287     12.000000
  0.093274  0.044780 -0.002744     12.000000
  0.116592  0.044314 -0.003202     12.000000
  0.139911  0.043847 -0.003659     12.000000
 -0.116592  0.048979  0.001372     12.000000
 -0.093274  0.048512  0.000915     12.000000
 -0.069955  0.048046  0.000457     12.000000
 -0.046637  0.047579 -0.000000      6.000000
  0.069955  0.068570 -0.002744      6.000000
  0.093274  0.068103 -0.003202     12.000000
  0.116592  0.067637 -0.003659     12.000000
  0.139911  0.067171 -0.004117     12.000000
 -0.116592  0.072302  0.000915     12.000000
 -0.093274  0.071835  0.000457     12.000000
 -0.069955  0.071369 -0.000000      6.000000
  0.093274  0.091427 -0.003659      6.000000
  0.116592  0.090960 -0.004117     12.000000
  0.139911  0.090494 -0.004574     12.000000
 -0.116592  0.095625  0.000457     12.000000
 -0.093274  0.095158 -0.000000      6.000000
  0.116592  0.114283 -0.004574      6.000000
  0.139911  0.113817 -0.005031     12.000000
 -0.116592  0.118948 -0.000000      6.000000
  0.139911  0.137140 -0.005489      3.000000
  0.023318  0.022857  0.022413      2.000000
  0.046637  0.022390  0.021955      6.000000
  0.069955  0.021924  0.021498      6.000000
  0.093274  0.021457  0.021041      6.000000
  0.116592  0.020991  0.020583      6.000000
  0.139911  0.020524  0.020126      6.000000
 -0.116592  0.025655  0.025157      6.000000
 -0.093274  0.025189  0.024700      6.000000
 -0.069955  0.024722  0.024242      6.000000
 -0.046637  0.024256  0.023785      6.000000
 -0.023318  0.023790  0.023328      6.000000
  0.046637  0.045713  0.021498      6.000000
  0.069955  0.045247  0.021041     12.000000
  0.093274  0.044780  0.020583     12.000000
  0.116592  0.044314  0.020126     12.000000
  0.139911  0.043847  0.019668     12.000000
 -0.116592  0.048979  0.024700     12.000000
 -0.093274  0.048512  0.024242     12.000000
 -0.069955  0.048046  0.023785     12.000000
 -0.046637  0.047579  0.023328     12.000000
 -0.023318  0.047113  0.022870     12.000000
  0.069955  0.068570  0.020583      6.000000
  0.093274  0.068103  0.020126     12.000000
  0.116592  0.067637  0.019668     12.000000
  0.139911  0.067171  0.019211     12.000000
 -0.116592  0.072302  0.024242     12.000000
 -0.093274  0.071835  0.023785     12.000000
 -0.069955  0.071369  0.023328     12.000000
 -0.046637  0.070902  0.022870     12.000000
 -0.023318  0.070436  0.022413     12.000000
  0.093274  0.091427  0.019668      6.000000
  0.116592  0.090960  0.019211     12.000000
  0.139911  0.090494  0.018754     12.000000
 -0.116592  0.095625  0.023785     12.000000
 -0.093274  0.095158  0.023328     12.000000
 -0.069955  0.094692  0.022870     12.000000
 -0.046637  0.094225  0.022413     12.000000
 -0.023318  0.093759  0.021955     12.000000
  0.116592  0.114283  0.018754      6.000000
  0.139911  0.113817  0.018296     12.000000
 -0.116592  0.118948  0.023328     12.000000
 -0.093274  0.118481  0.022870     12.000000
 -0.069955  0.118015  0.022413     12.000000
 -0.046637  0.117548  0.021955     12.000000
 -0.023318  0.117082  0.021498     12.000000
  0.139911  0.137140  0.017839      6.000000
 -0.116592  0.142271  0.022870     12.000000
 -0.093274  0.141804  0.022413     12.000000
 -0.069955  0.141338  0.021955     12.000000
 -0.046637  0.140872  0.021498     12.000000
 -0.023318  0.140405  0.021041      6.000000
 -0.116592 -0.114283  0.027902      6.000000
 -0.093274 -0.114750  0.027444     12.000000
 -0.069955 -0.115216  0.026987     12.000000
 -0.046637 -0.115683  0.026529     12.000000
 -0.093274 -0.091427  0.026987      6.000000
 -0.069955 -0.091893  0.026529     12.000000
 -0.046637 -0.092359  0.026072     12.000000
 -0.069955 -0.068570  0.026072      6.000000
 -0.046637 -0.069036  0.025615     12.000000
 -0.046637 -0.045713  0.025157      6.000000
  0.046637  0.045713  0.044826      2.000000
  0.069955  0.045247  0.044368      6.000000
  0.093274  0.044780  0.043911      6.000000
  0.116592  0.044314  0.043453      6.000000
  0.139911  0.043847  0.042996      6.000000
 -0.116592  0.048979  0.048027      6.000000
 -0.093274  0.048512  0.047570      6.000000
 -0.069955  0.048046  0.047113      6.000000
 -0.046637  0.047579  0.046655      6.000000
  0.069955  0.068570  0.043911      6.000000
  0.093274  0.068103  0.043453     12.000000
  0.116592  0.067637  0.042996     12.000000
  0.139911  0.067171  0.042539     12.000000
 -0.116592  0.072302  0.047570     12.000000
 -0.093274  0.071835  0.047113     12.000000
 -0.069955  0.071369  0.046655     12.000000
 -0.046637  0.070902  0.046198     12.000000
  0.093274  0.091427  0.042996      6.000000
  0.116592  0.090960  0.042539     12.000000
  0.139911  0.090494  0.042081     12.000000
 -0.116592  0.095625  0.047113     12.000000
 -0.093274  0.095158  0.046655     12.000000
 -0.069955  0.094692  0.046198     12.000000
 -0.046637  0.094225  0.045740     12.000000
  0.116592  0.114283  0.042081      6.000000
  0.139911  0.113817  0.041624     12.000000
 -0.116592  0.118948  0.046655     12.000000
 -0.093274  0.118481  0.046198     12.000000
 -0.069955  0.118015  0.045740     12.000000
 -0.046637  0.117548  0.045283     12.000000
  0.139911  0.137140  0.041166      6.000000
 -0.116592  0.142271  0.046198     12.000000
 -0.093274  0.141804  0.045740     12.000000
 -0.069955  0.141338  0.045283     12.000000
 -0.046637  0.140872  0.044826      6.000000
 -0.116592 -0.114283  0.051229      6.000000
 -0.093274 -0.114750  0.050772     12.000000
 -0.069955 -0.115216  0.050314     12.000000
 -0.093274 -0.091427  0.050314      6.000000
 -0.069955 -0.091893  0.049857     12.000000
 -0.069955 -0.068570  0.049400      6.000000
  0.069955  0.068570  0.067238      2.000000
  0.093274  0.068103  0.066781      6.000000
  0.116592  0.067637  0.066324      6.000000
  0.139911  0.067171  0.065866      6.000000
 -0.116592  0.072302  0.070898      6.000000
 -0.093274  0.071835  0.070440      6.000000
 -0.069955  0.071369  0.069983      6.000000
  0.093274  0.091427  0.066324      6.000000
  0.116592  0.090960  0.065866     12.000000
  0.139911  0.090494  0.065409     12.000000
 -0.116592  0.095625  0.070440     12.000000
 -0.093274  0.095158  0.069983     12.000000
 -0.069955  0.094692  0.069525     12.000000
  0.116592  0.114283  0.065409      6.000000
  0.139911  0.113817  0.064951     12.000000
 -0.116592  0.118948  0.069983     12.000000
 -0.093274  0.118481  0.069525     12.000000
 -0.069955  0.118015  0.069068     12.000000
  0.139911  0.137140  0.064494      6.000000
 -0.116592  0.142271  0.069525     12.000000
 -0.093274  0.141804  0.069068     12.000000
 -0.069955  0.141338  0.068611      6.000000
 -0.116592 -0.114283  0.074557      6.000000
 -0.093274 -0.114750  0.074099     12.000000
 -0.093274 -0.091427  0.073642      6.000000
  0.093274  0.091427  0.089651      2.000000
  0.116592  0.090960  0.089194      6.000000
  0.139911  0.090494  0.088736      6.000000
 -0.116592  0.095625  0.093768      6.000000
 -0.093274  0.095158  0.093310      6.000000
  0.116592  0.114283  0.088736      6.000000
  0.139911  0.113817  0.088279     12.000000
 -0.116592  0.118948  0.093310     12.000000
 -0.093274  0.118481  0.092853     12.000000
  0.139911  0.137140  0.087822      6.000000
 -0.116592  0.142271  0.092853     12.000000
 -0.093274  0.141804  0.092396      6.000000
 -0.116592 -0.114283  0.097884      6.000000
  0.116592  0.114283  0.112064      2.000000
  0.139911  0.113817  0.111607      6.000000
 -0.116592  0.118948  0.116638      6.000000
  0.139911  0.137140  0.111149      6.000000
 -0.116592  0.142271  0.116181      6.000000
  0.139911  0.137140  0.134477      1.000000
 
 TETIRR: Found    864 inequivalent tetrahedra from    10368


--------------------------------------------------------------------------------------------------------




 Dimension of arrays:
   k-points           NKPTS =    189   k-points in BZ     NKDIM =    189   number of bands    NBANDS=     24
   number of dos      NEDOS =    301   number of ions     NIONS =      8
   non local maximal  LDIM  =      4   non local SUM 2l+1 LMDIM =      8
   total plane-waves  NPLWV =  13824
   max r-space proj   IRMAX =      1   max aug-charges    IRDMAX=   3775
   dimension x,y,z NGX =    24 NGY =   24 NGZ =   24
   dimension x,y,z NGXF=    48 NGYF=   48 NGZF=   48
   support grid    NGXF=    48 NGYF=   48 NGZF=   48
   ions per type =               8
   NGX,Y,Z   is equivalent  to a cutoff of  11.16, 11.16, 11.16 a.u.
   NGXF,Y,Z  is equivalent  to a cutoff of  22.33, 22.33, 22.33 a.u.

 SYSTEM =  unknown system                          
 POSCAR =  C8                                      

 Startparameter for this run:
   NWRITE =      2    write-flag & timer
   PREC   = accura    normal or accurate (medium, high low for compatibility)
   ISTART =      0    job   : 0-new  1-cont  2-samecut
   ICHARG =      2    charge: 1-file 2-atom 10-const
   ISPIN  =      1    spin polarized calculation?
   LNONCOLLINEAR =      F non collinear calculations
   LSORBIT =      F    spin-orbit coupling
   INIWAV =      1    electr: 0-lowe 1-rand  2-diag
   LASPH  =      F    aspherical Exc in radial PAW
   METAGGA=      F    non-selfconsistent MetaGGA calc.

 Electronic Relaxation 1
   ENCUT  =  400.0 eV  29.40 Ry    5.42 a.u.   5.83  5.83  5.83*2*pi/ulx,y,z
   ENINI  =  400.0     initial cutoff
   ENAUG  =  644.9 eV  augmentation charge cutoff
   NELM   =     60;   NELMIN=  2; NELMDL= -5     # of ELM steps 
   EDIFF  = 0.1E-05   stopping-criterion for ELM
   LREAL  =      F    real-space projection
   NLSPLINE    = F    spline interpolate recip. space projectors
   LCOMPAT=      F    compatible to vasp.4.4
   GGA_COMPAT  = T    GGA compatible to vasp.4.4-vasp.4.6
   LMAXPAW     = -100 max onsite density
   LMAXMIX     =    2 max onsite mixed and CHGCAR
   VOSKOWN=      0    Vosko Wilk Nusair interpolation
   ROPT   =    0.00000
 Ionic relaxation
   EDIFFG = 0.1E-04   stopping-criterion for IOM
   NSW    =      0    number of steps for IOM
   NBLOCK =      1;   KBLOCK =      1    inner block; outer block 
   IBRION =     -1    ionic relax: 0-MD 1-quasi-New 2-CG
   NFREE  =      0    steps in history (QN), initial steepest desc. (CG)
   ISIF   =      2    stress and relaxation
   IWAVPR =     10    prediction:  0-non 1-charg 2-wave 3-comb
   ISYM   =      2    0-nonsym 1-usesym 2-fastsym
   LCORR  =      T    Harris-Foulkes like correction to forces

   POTIM  = 0.0200    time-step for ionic-motion
   TEIN   =    0.0    initial temperature
   TEBEG  =    0.0;   TEEND  =   0.0 temperature during run
   SMASS  =  -3.00    Nose mass-parameter (am)
   estimated Nose-frequenzy (Omega)   =  0.10E-29 period in steps =****** mass=  -0.292E-27a.u.
   SCALEE = 1.0000    scale energy and forces
   NPACO  =    256;   APACO  = 16.0  distance and # of slots for P.C.
   PSTRESS=    0.0 pullay stress

  Mass of Ions in am
   POMASS =  12.01
  Ionic Valenz
   ZVAL   =   4.00
  Atomic Wigner-Seitz radii
   RWIGS  =  -1.00
  virtual crystal weights 
   VCA    =   1.00
   NELECT =      32.0000    total number of electrons
   NUPDOWN=      -1.0000    fix difference up-down

 DOS related values:
   EMIN   =  10.00;   EMAX   =-10.00  energy-range for DOS
   EFERMI =   0.00
   ISMEAR =    -5;   SIGMA  =   0.06  broadening in eV -4-tet -1-fermi 0-gaus

 Electronic relaxation 2 (details)
   IALGO  =     38    algorithm
   LDIAG  =      T    sub-space diagonalisation (order eigenvalues)
   LSUBROT=      F    optimize rotation matrix (better conditioning)
   TURBO    =      0    0=normal 1=particle mesh
   IRESTART =      0    0=no restart 2=restart with 2 vectors
   NREBOOT  =      0    no. of reboots
   NMIN     =      0    reboot dimension
   EREF     =   0.00    reference energy to select bands
   IMIX   =      4    mixing-type and parameters
     AMIX     =   0.40;   BMIX     =  1.00
     AMIX_MAG =   1.60;   BMIX_MAG =  1.00
     AMIN     =   0.10
     WC   =   100.;   INIMIX=   1;  MIXPRE=   1;  MAXMIX= -45

 Intra band minimization:
   WEIMIN = 0.0000     energy-eigenvalue tresh-hold
   EBREAK =  0.10E-07  absolut break condition
   DEPER  =   0.30     relativ break condition  

   TIME   =   0.40     timestep for ELM

  volume/ion in A,a.u.               =       5.70        38.48
  Fermi-wavevector in a.u.,A,eV,Ry     =   1.454648  2.748886 28.789944  2.116001
  Thomas-Fermi vector in A             =   2.571774
 
 Write flags
   LWAVE        =      F    write WAVECAR
   LDOWNSAMPLE  =      F    k-point downsampling of WAVECAR
   LCHARG       =      F    write CHGCAR
   LVTOT        =      F    write LOCPOT, total local potential
   LVHAR        =      F    write LOCPOT, Hartree potential only
   LELF         =      F    write electronic localiz. function (ELF)
   LORBIT       =      0    0 simple, 1 ext, 2 COOP (PROOUT), +10 PAW based schemes


 Dipole corrections
   LMONO  =      F    monopole corrections only (constant potential shift)
   LDIPOL =      F    correct potential (dipole corrections)
   IDIPOL =      0    1-x, 2-y, 3-z, 4-all directions 
   EPSILON=  1.0000000 bulk dielectric constant

 Exchange correlation treatment:
   GGA     =    --    GGA type
   LEXCH   =     8    internal setting for exchange type
   VOSKOWN=      0    Vosko Wilk Nusair interpolation
   LHFCALC =     F    Hartree Fock is set to
   LHFONE  =     F    Hartree Fock one center treatment
   AEXX    =    0.0000 exact exchange contribution

 Linear response parameters
   LEPSILON=     F    determine dielectric tensor
   LRPA    =     F    only Hartree local field effects (RPA)
   LNABLA  =     F    use nabla operator in PAW spheres
   LVEL    =     F    velocity operator in full k-point grid
   LINTERFAST=   F  fast interpolation
   KINTER  =     0    interpolate to denser k-point grid
   CSHIFT  =0.1000    complex shift for real part using Kramers Kronig
   OMEGAMAX=  -1.0    maximum frequency
   DEG_THRESHOLD= 0.2000000E-02 threshold for treating states as degnerate
   RTIME   =   -0.100 relaxation time in fs
  (WPLASMAI=    0.000 imaginary part of plasma frequency in eV, 0.658/RTIME)
   DFIELD  = 0.0000000 0.0000000 0.0000000 field for delta impulse in time
 
 Orbital magnetization related:
   ORBITALMAG=     F  switch on orbital magnetization
   LCHIMAG   =     F  perturbation theory with respect to B field
   DQ        =  0.001000  dq finite difference perturbation B field
   LLRAUG    =     F  two centre corrections for induced B field



--------------------------------------------------------------------------------------------------------


 Static calculation
 charge density and potential will be updated during run
 non-spin polarized calculation
 Variant of blocked Davidson
 Davidson routine will perform the subspace rotation
 perform sub-space diagonalisation
    after iterative eigenvector-optimisation
 modified Broyden-mixing scheme, WC =      100.0
 initial mixing is a Kerker type mixing with AMIX =  0.4000 and BMIX =      1.0000
 Hartree-type preconditioning will be used
 using additional bands            8
 reciprocal scheme for non local part
 calculate Harris-corrections to forces 
   (improved forces if not selfconsistent)
 use gradient corrections 
 use of overlap-Matrix (Vanderbilt PP)
 Fermi weights with tetrahedron method with Bloechl corrections


--------------------------------------------------------------------------------------------------------


  energy-cutoff  :      400.00
  volume of cell :       45.61
      direct lattice vectors                 reciprocal lattice vectors
     3.573710000  0.000000000  0.000000000     0.279821250 -0.005597529 -0.005488829
     0.071474000  3.572995000  0.000000000     0.000000000  0.279877246 -0.005488866
     0.071474000  0.070059000  3.572308000     0.000000000  0.000000000  0.279931070

  length of vectors
     3.573710000  3.573709810  3.573709731     0.279931048  0.279931064  0.279931070


 
 k-points in units of 2pi/SCALE and weight: kpt_density=1000                        
   0.00000000  0.00000000  0.00000000       0.001
   0.02331844 -0.00046646 -0.00045740       0.003
   0.04663688 -0.00093292 -0.00091480       0.003
   0.06995531 -0.00139938 -0.00137221       0.003
   0.09327375 -0.00186584 -0.00182961       0.003
   0.11659219 -0.00233230 -0.00228701       0.003
   0.13991063 -0.00279876 -0.00274441       0.002
   0.02331844  0.02285664 -0.00091481       0.003
   0.04663688  0.02239018 -0.00137221       0.007
   0.06995531  0.02192372 -0.00182961       0.007
   0.09327375  0.02145726 -0.00228702       0.007
   0.11659219  0.02099080 -0.00274442       0.007
   0.13991063  0.02052434 -0.00320182       0.007
  -0.11659219  0.02565541  0.00182961       0.007
  -0.09327375  0.02518895  0.00137220       0.007
  -0.06995531  0.02472249  0.00091480       0.007
  -0.04663688  0.02425603  0.00045740       0.007
  -0.02331844  0.02378956 -0.00000000       0.003
   0.04663688  0.04571329 -0.00182962       0.003
   0.06995531  0.04524683 -0.00228702       0.007
   0.09327375  0.04478036 -0.00274442       0.007
   0.11659219  0.04431390 -0.00320182       0.007
   0.13991063  0.04384744 -0.00365923       0.007
  -0.11659219  0.04897851  0.00137220       0.007
  -0.09327375  0.04851205  0.00091480       0.007
  -0.06995531  0.04804559  0.00045740       0.007
  -0.04663688  0.04757913 -0.00000001       0.003
   0.06995531  0.06856993 -0.00274442       0.003
   0.09327375  0.06810347 -0.00320183       0.007
   0.11659219  0.06763701 -0.00365923       0.007
   0.13991063  0.06717055 -0.00411663       0.007
  -0.11659219  0.07230162  0.00091480       0.007
  -0.09327375  0.07183515  0.00045739       0.007
  -0.06995531  0.07136869 -0.00000001       0.003
   0.09327375  0.09142657 -0.00365923       0.003
   0.11659219  0.09096011 -0.00411663       0.007
   0.13991063  0.09049365 -0.00457404       0.007
  -0.11659219  0.09562472  0.00045739       0.007
  -0.09327375  0.09515826 -0.00000001       0.003
   0.11659219  0.11428322 -0.00457404       0.003
   0.13991063  0.11381675 -0.00503144       0.007
  -0.11659219  0.11894782 -0.00000002       0.003
   0.13991063  0.13713986 -0.00548885       0.002
   0.02331844  0.02285664  0.02241278       0.001
   0.04663688  0.02239018  0.02195538       0.003
   0.06995531  0.02192372  0.02149798       0.003
   0.09327375  0.02145726  0.02104057       0.003
   0.11659219  0.02099080  0.02058317       0.003
   0.13991063  0.02052434  0.02012577       0.003
  -0.11659219  0.02565541  0.02515720       0.003
  -0.09327375  0.02518895  0.02469979       0.003
  -0.06995531  0.02472249  0.02424239       0.003
  -0.04663688  0.02425603  0.02378499       0.003
  -0.02331844  0.02378956  0.02332759       0.003
   0.04663688  0.04571329  0.02149797       0.003
   0.06995531  0.04524683  0.02104057       0.007
   0.09327375  0.04478036  0.02058317       0.007
   0.11659219  0.04431390  0.02012577       0.007
   0.13991063  0.04384744  0.01966836       0.007
  -0.11659219  0.04897851  0.02469979       0.007
  -0.09327375  0.04851205  0.02424239       0.007
  -0.06995531  0.04804559  0.02378499       0.007
  -0.04663688  0.04757913  0.02332758       0.007
  -0.02331844  0.04711267  0.02287018       0.007
   0.06995531  0.06856993  0.02058317       0.003
   0.09327375  0.06810347  0.02012576       0.007
   0.11659219  0.06763701  0.01966836       0.007
   0.13991063  0.06717055  0.01921096       0.007
  -0.11659219  0.07230162  0.02424238       0.007
  -0.09327375  0.07183515  0.02378498       0.007
  -0.06995531  0.07136869  0.02332758       0.007
  -0.04663688  0.07090223  0.02287018       0.007
  -0.02331844  0.07043577  0.02241278       0.007
   0.09327375  0.09142657  0.01966836       0.003
   0.11659219  0.09096011  0.01921096       0.007
   0.13991063  0.09049365  0.01875355       0.007
  -0.11659219  0.09562472  0.02378498       0.007
  -0.09327375  0.09515826  0.02332758       0.007
  -0.06995531  0.09469180  0.02287017       0.007
  -0.04663688  0.09422534  0.02241277       0.007
  -0.02331844  0.09375888  0.02195537       0.007
   0.11659219  0.11428322  0.01875355       0.003
   0.13991063  0.11381675  0.01829615       0.007
  -0.11659219  0.11894782  0.02332757       0.007
  -0.09327375  0.11848136  0.02287017       0.007
  -0.06995531  0.11801490  0.02241277       0.007
  -0.04663688  0.11754844  0.02195537       0.007
  -0.02331844  0.11708198  0.02149796       0.007
   0.13991063  0.13713986  0.01783874       0.003
  -0.11659219  0.14227093  0.02287017       0.007
  -0.09327375  0.14180447  0.02241277       0.007
  -0.06995531  0.14133801  0.02195536       0.007
  -0.04663688  0.14087154  0.02149796       0.007
  -0.02331844  0.14040508  0.02104056       0.003
  -0.11659219 -0.11428322  0.02790163       0.003
  -0.09327375 -0.11474968  0.02744423       0.007
  -0.06995531 -0.11521614  0.02698682       0.007
  -0.04663688 -0.11568260  0.02652942       0.007
  -0.09327375 -0.09142657  0.02698682       0.003
  -0.06995531 -0.09189303  0.02652942       0.007
  -0.04663688 -0.09235949  0.02607202       0.007
  -0.06995531 -0.06856993  0.02607201       0.003
  -0.04663688 -0.06903639  0.02561461       0.007
  -0.04663688 -0.04571329  0.02515720       0.003
   0.04663688  0.04571329  0.04482556       0.001
   0.06995531  0.04524683  0.04436816       0.003
   0.09327375  0.04478036  0.04391076       0.003
   0.11659219  0.04431390  0.04345336       0.003
   0.13991063  0.04384744  0.04299595       0.003
  -0.11659219  0.04897851  0.04802738       0.003
  -0.09327375  0.04851205  0.04756998       0.003
  -0.06995531  0.04804559  0.04711257       0.003
  -0.04663688  0.04757913  0.04665517       0.003
   0.06995531  0.06856993  0.04391075       0.003
   0.09327375  0.06810347  0.04345335       0.007
   0.11659219  0.06763701  0.04299595       0.007
   0.13991063  0.06717055  0.04253855       0.007
  -0.11659219  0.07230162  0.04756997       0.007
  -0.09327375  0.07183515  0.04711257       0.007
  -0.06995531  0.07136869  0.04665517       0.007
  -0.04663688  0.07090223  0.04619777       0.007
   0.09327375  0.09142657  0.04299595       0.003
   0.11659219  0.09096011  0.04253854       0.007
   0.13991063  0.09049365  0.04208114       0.007
  -0.11659219  0.09562472  0.04711257       0.007
  -0.09327375  0.09515826  0.04665517       0.007
  -0.06995531  0.09469180  0.04619776       0.007
  -0.04663688  0.09422534  0.04574036       0.007
   0.11659219  0.11428322  0.04208114       0.003
   0.13991063  0.11381675  0.04162374       0.007
  -0.11659219  0.11894782  0.04665516       0.007
  -0.09327375  0.11848136  0.04619776       0.007
  -0.06995531  0.11801490  0.04574036       0.007
  -0.04663688  0.11754844  0.04528296       0.007
   0.13991063  0.13713986  0.04116633       0.003
  -0.11659219  0.14227093  0.04619776       0.007
  -0.09327375  0.14180447  0.04574035       0.007
  -0.06995531  0.14133801  0.04528295       0.007
  -0.04663688  0.14087154  0.04482555       0.003
  -0.11659219 -0.11428322  0.05122922       0.003
  -0.09327375 -0.11474968  0.05077182       0.007
  -0.06995531 -0.11521614  0.05031441       0.007
  -0.09327375 -0.09142657  0.05031441       0.003
  -0.06995531 -0.09189303  0.04985701       0.007
  -0.06995531 -0.06856993  0.04939960       0.003
   0.06995531  0.06856993  0.06723834       0.001
   0.09327375  0.06810347  0.06678094       0.003
   0.11659219  0.06763701  0.06632354       0.003
   0.13991063  0.06717055  0.06586614       0.003
  -0.11659219  0.07230162  0.07089756       0.003
  -0.09327375  0.07183515  0.07044016       0.003
  -0.06995531  0.07136869  0.06998276       0.003
   0.09327375  0.09142657  0.06632354       0.003
   0.11659219  0.09096011  0.06586613       0.007
   0.13991063  0.09049365  0.06540873       0.007
  -0.11659219  0.09562472  0.07044016       0.007
  -0.09327375  0.09515826  0.06998276       0.007
  -0.06995531  0.09469180  0.06952535       0.007
   0.11659219  0.11428322  0.06540873       0.003
   0.13991063  0.11381675  0.06495133       0.007
  -0.11659219  0.11894782  0.06998275       0.007
  -0.09327375  0.11848136  0.06952535       0.007
  -0.06995531  0.11801490  0.06906795       0.007
   0.13991063  0.13713986  0.06449392       0.003
  -0.11659219  0.14227093  0.06952535       0.007
  -0.09327375  0.14180447  0.06906794       0.007
  -0.06995531  0.14133801  0.06861054       0.003
  -0.11659219 -0.11428322  0.07455681       0.003
  -0.09327375 -0.11474968  0.07409940       0.007
  -0.09327375 -0.09142657  0.07364200       0.003
   0.09327375  0.09142657  0.08965113       0.001
   0.11659219  0.09096011  0.08919372       0.003
   0.13991063  0.09049365  0.08873632       0.003
  -0.11659219  0.09562472  0.09376775       0.003
  -0.09327375  0.09515826  0.09331034       0.003
   0.11659219  0.11428322  0.08873632       0.003
   0.13991063  0.11381675  0.08827891       0.007
  -0.11659219  0.11894782  0.09331034       0.007
  -0.09327375  0.11848136  0.09285294       0.007
   0.13991063  0.13713986  0.08782151       0.003
  -0.11659219  0.14227093  0.09285294       0.007
  -0.09327375  0.14180447  0.09239553       0.003
  -0.11659219 -0.11428322  0.09788440       0.003
   0.11659219  0.11428322  0.11206391       0.001
   0.13991063  0.11381675  0.11160650       0.003
  -0.11659219  0.11894782  0.11663793       0.003
   0.13991063  0.13713986  0.11114910       0.003
  -0.11659219  0.14227093  0.11618052       0.003
   0.13991063  0.13713986  0.13447669       0.001
 
 k-points in reciprocal lattice and weights: kpt_density=1000                        
   0.00000000  0.00000000  0.00000000       0.001
   0.08333333 -0.00000000 -0.00000000       0.003
   0.16666667 -0.00000000 -0.00000000       0.003
   0.25000000  0.00000000 -0.00000000       0.003
   0.33333333 -0.00000000 -0.00000000       0.003
   0.41666667 -0.00000000 -0.00000000       0.003
   0.50000000  0.00000000 -0.00000000       0.002
   0.08333333  0.08333333 -0.00000000       0.003
   0.16666667  0.08333333 -0.00000000       0.007
   0.25000000  0.08333333 -0.00000000       0.007
   0.33333333  0.08333333 -0.00000000       0.007
   0.41666667  0.08333333 -0.00000000       0.007
   0.50000000  0.08333333 -0.00000000       0.007
  -0.41666667  0.08333333  0.00000000       0.007
  -0.33333333  0.08333333  0.00000000       0.007
  -0.25000000  0.08333333  0.00000000       0.007
  -0.16666667  0.08333333  0.00000000       0.007
  -0.08333333  0.08333333  0.00000000       0.003
   0.16666667  0.16666667  0.00000000       0.003
   0.25000000  0.16666667 -0.00000000       0.007
   0.33333333  0.16666667 -0.00000000       0.007
   0.41666667  0.16666667 -0.00000000       0.007
   0.50000000  0.16666667 -0.00000000       0.007
  -0.41666667  0.16666667  0.00000000       0.007
  -0.33333333  0.16666667  0.00000000       0.007
  -0.25000000  0.16666667  0.00000000       0.007
  -0.16666667  0.16666667  0.00000000       0.003
   0.25000000  0.25000000 -0.00000000       0.003
   0.33333333  0.25000000 -0.00000000       0.007
   0.41666667  0.25000000 -0.00000000       0.007
   0.50000000  0.25000000 -0.00000000       0.007
  -0.41666667  0.25000000  0.00000000       0.007
  -0.33333333  0.25000000  0.00000000       0.007
  -0.25000000  0.25000000  0.00000000       0.003
   0.33333333  0.33333333 -0.00000000       0.003
   0.41666667  0.33333333 -0.00000000       0.007
   0.50000000  0.33333333 -0.00000000       0.007
  -0.41666667  0.33333333  0.00000000       0.007
  -0.33333333  0.33333333  0.00000000       0.003
   0.41666667  0.41666667 -0.00000000       0.003
   0.50000000  0.41666667 -0.00000000       0.007
  -0.41666667  0.41666667  0.00000000       0.003
   0.50000000  0.50000000 -0.00000000       0.002
   0.08333333  0.08333333  0.08333333       0.001
   0.16666667  0.08333333  0.08333333       0.003
   0.25000000  0.08333333  0.08333333       0.003
   0.33333333  0.08333333  0.08333333       0.003
   0.41666667  0.08333333  0.08333333       0.003
   0.50000000  0.08333333  0.08333333       0.003
  -0.41666667  0.08333333  0.08333333       0.003
  -0.33333333  0.08333333  0.08333333       0.003
  -0.25000000  0.08333333  0.08333333       0.003
  -0.16666667  0.08333333  0.08333333       0.003
  -0.08333333  0.08333333  0.08333333       0.003
   0.16666667  0.16666667  0.08333333       0.003
   0.25000000  0.16666667  0.08333333       0.007
   0.33333333  0.16666667  0.08333333       0.007
   0.41666667  0.16666667  0.08333333       0.007
   0.50000000  0.16666667  0.08333333       0.007
  -0.41666667  0.16666667  0.08333333       0.007
  -0.33333333  0.16666667  0.08333333       0.007
  -0.25000000  0.16666667  0.08333333       0.007
  -0.16666667  0.16666667  0.08333333       0.007
  -0.08333333  0.16666667  0.08333333       0.007
   0.25000000  0.25000000  0.08333333       0.003
   0.33333333  0.25000000  0.08333333       0.007
   0.41666667  0.25000000  0.08333333       0.007
   0.50000000  0.25000000  0.08333333       0.007
  -0.41666667  0.25000000  0.08333333       0.007
  -0.33333333  0.25000000  0.08333333       0.007
  -0.25000000  0.25000000  0.08333333       0.007
  -0.16666667  0.25000000  0.08333333       0.007
  -0.08333333  0.25000000  0.08333333       0.007
   0.33333333  0.33333333  0.08333333       0.003
   0.41666667  0.33333333  0.08333333       0.007
   0.50000000  0.33333333  0.08333333       0.007
  -0.41666667  0.33333333  0.08333333       0.007
  -0.33333333  0.33333333  0.08333333       0.007
  -0.25000000  0.33333333  0.08333333       0.007
  -0.16666667  0.33333333  0.08333333       0.007
  -0.08333333  0.33333333  0.08333333       0.007
   0.41666667  0.41666667  0.08333333       0.003
   0.50000000  0.41666667  0.08333333       0.007
  -0.41666667  0.41666667  0.08333333       0.007
  -0.33333333  0.41666667  0.08333333       0.007
  -0.25000000  0.41666667  0.08333333       0.007
  -0.16666667  0.41666667  0.08333333       0.007
  -0.08333333  0.41666667  0.08333333       0.007
   0.50000000  0.50000000  0.08333333       0.003
  -0.41666667  0.50000000  0.08333333       0.007
  -0.33333333  0.50000000  0.08333333       0.007
  -0.25000000  0.50000000  0.08333333       0.007
  -0.16666667  0.50000000  0.08333333       0.007
  -0.08333333  0.50000000  0.08333333       0.003
  -0.41666667 -0.41666667  0.08333333       0.003
  -0.33333333 -0.41666667  0.08333333       0.007
  -0.25000000 -0.41666667  0.08333333       0.007
  -0.16666667 -0.41666667  0.08333333       0.007
  -0.33333333 -0.33333333  0.08333333       0.003
  -0.25000000 -0.33333333  0.08333333       0.007
  -0.16666667 -0.33333333  0.08333333       0.007
  -0.25000000 -0.25000000  0.08333333       0.003
  -0.16666667 -0.25000000  0.08333333       0.007
  -0.16666667 -0.16666667  0.08333333       0.003
   0.16666667  0.16666667  0.16666667       0.001
   0.25000000  0.16666667  0.16666667       0.003
   0.33333333  0.16666667  0.16666667       0.003
   0.41666667  0.16666667  0.16666667       0.003
   0.50000000  0.16666667  0.16666667       0.003
  -0.41666667  0.16666667  0.16666667       0.003
  -0.33333333  0.16666667  0.16666667       0.003
  -0.25000000  0.16666667  0.16666667       0.003
  -0.16666667  0.16666667  0.16666667       0.003
   0.25000000  0.25000000  0.16666667       0.003
   0.33333333  0.25000000  0.16666667       0.007
   0.41666667  0.25000000  0.16666667       0.007
   0.50000000  0.25000000  0.16666667       0.007
  -0.41666667  0.25000000  0.16666667       0.007
  -0.33333333  0.25000000  0.16666667       0.007
  -0.25000000  0.25000000  0.16666667       0.007
  -0.16666667  0.25000000  0.16666667       0.007
   0.33333333  0.33333333  0.16666667       0.003
   0.41666667  0.33333333  0.16666667       0.007
   0.50000000  0.33333333  0.16666667       0.007
  -0.41666667  0.33333333  0.16666667       0.007
  -0.33333333  0.33333333  0.16666667       0.007
  -0.25000000  0.33333333  0.16666667       0.007
  -0.16666667  0.33333333  0.16666667       0.007
   0.41666667  0.41666667  0.16666667       0.003
   0.50000000  0.41666667  0.16666667       0.007
  -0.41666667  0.41666667  0.16666667       0.007
  -0.33333333  0.41666667  0.16666667       0.007
  -0.25000000  0.41666667  0.16666667       0.007
  -0.16666667  0.41666667  0.16666667       0.007
   0.50000000  0.50000000  0.16666667       0.003
  -0.41666667  0.50000000  0.16666667       0.007
  -0.33333333  0.50000000  0.16666667       0.007
  -0.25000000  0.50000000  0.16666667       0.007
  -0.16666667  0.50000000  0.16666667       0.003
  -0.41666667 -0.41666667  0.16666667       0.003
  -0.33333333 -0.41666667  0.16666667       0.007
  -0.25000000 -0.41666667  0.16666667       0.007
  -0.33333333 -0.33333333  0.16666667       0.003
  -0.25000000 -0.33333333  0.16666667       0.007
  -0.25000000 -0.25000000  0.16666667       0.003
   0.25000000  0.25000000  0.25000000       0.001
   0.33333333  0.25000000  0.25000000       0.003
   0.41666667  0.25000000  0.25000000       0.003
   0.50000000  0.25000000  0.25000000       0.003
  -0.41666667  0.25000000  0.25000000       0.003
  -0.33333333  0.25000000  0.25000000       0.003
  -0.25000000  0.25000000  0.25000000       0.003
   0.33333333  0.33333333  0.25000000       0.003
   0.41666667  0.33333333  0.25000000       0.007
   0.50000000  0.33333333  0.25000000       0.007
  -0.41666667  0.33333333  0.25000000       0.007
  -0.33333333  0.33333333  0.25000000       0.007
  -0.25000000  0.33333333  0.25000000       0.007
   0.41666667  0.41666667  0.25000000       0.003
   0.50000000  0.41666667  0.25000000       0.007
  -0.41666667  0.41666667  0.25000000       0.007
  -0.33333333  0.41666667  0.25000000       0.007
  -0.25000000  0.41666667  0.25000000       0.007
   0.50000000  0.50000000  0.25000000       0.003
  -0.41666667  0.50000000  0.25000000       0.007
  -0.33333333  0.50000000  0.25000000       0.007
  -0.25000000  0.50000000  0.25000000       0.003
  -0.41666667 -0.41666667  0.25000000       0.003
  -0.33333333 -0.41666667  0.25000000       0.007
  -0.33333333 -0.33333333  0.25000000       0.003
   0.33333333  0.33333333  0.33333333       0.001
   0.41666667  0.33333333  0.33333333       0.003
   0.50000000  0.33333333  0.33333333       0.003
  -0.41666667  0.33333333  0.33333333       0.003
  -0.33333333  0.33333333  0.33333333       0.003
   0.41666667  0.41666667  0.33333333       0.003
   0.50000000  0.41666667  0.33333333       0.007
  -0.41666667  0.41666667  0.33333333       0.007
  -0.33333333  0.41666667  0.33333333       0.007
   0.50000000  0.50000000  0.33333333       0.003
  -0.41666667  0.50000000  0.33333333       0.007
  -0.33333333  0.50000000  0.33333333       0.003
  -0.41666667 -0.41666667  0.33333333       0.003
   0.41666667  0.41666667  0.41666667       0.001
   0.50000000  0.41666667  0.41666667       0.003
  -0.41666667  0.41666667  0.41666667       0.003
   0.50000000  0.50000000  0.41666667       0.003
  -0.41666667  0.50000000  0.41666667       0.003
   0.50000000  0.50000000  0.50000000       0.001
 
 position of ions in fractional coordinates (direct lattice) 
   0.25000000  0.75000000  0.25000000
   0.00000000  0.00000000  0.50000000
   0.25000000  0.25000000  0.75000000
   0.00000000  0.50000000  0.00000000
   0.75000000  0.75000000  0.75000000
   0.50000000  0.00000000  0.00000000
   0.75000000  0.25000000  0.25000000
   0.50000000  0.50000000  0.50000000
 
 position of ions in cartesian coordinates  (Angst):
   0.96490150  2.69726100  0.89307700
   0.03573700  0.03502950  1.78615400
   0.96490150  0.94579300  2.67923100
   0.03573700  1.78649750  0.00000000
   2.78749350  2.73229050  2.67923100
   1.78685500  0.00000000  0.00000000
   2.71601950  0.91076350  0.89307700
   1.85832900  1.82152700  1.78615400
 


--------------------------------------------------------------------------------------------------------


 k-point  1 :   0.0000 0.0000 0.0000  plane waves:     817
 k-point  2 :   0.0833-0.0000-0.0000  plane waves:     821
 k-point  3 :   0.1667-0.0000-0.0000  plane waves:     824
 k-point  4 :   0.2500 0.0000-0.0000  plane waves:     821
 k-point  5 :   0.3333-0.0000-0.0000  plane waves:     828
 k-point  6 :   0.4167-0.0000-0.0000  plane waves:     833
 k-point  7 :   0.5000 0.0000-0.0000  plane waves:     834
 k-point  8 :   0.0833 0.0833-0.0000  plane waves:     819
 k-point  9 :   0.1667 0.0833-0.0000  plane waves:     818
 k-point 10 :   0.2500 0.0833-0.0000  plane waves:     825
 k-point 11 :   0.3333 0.0833-0.0000  plane waves:     830
 k-point 12 :   0.4167 0.0833-0.0000  plane waves:     825
 k-point 13 :   0.5000 0.0833-0.0000  plane waves:     828
 k-point 14 :  -0.4167 0.0833 0.0000  plane waves:     831
 k-point 15 :  -0.3333 0.0833 0.0000  plane waves:     827
 k-point 16 :  -0.2500 0.0833 0.0000  plane waves:     826
 k-point 17 :  -0.1667 0.0833 0.0000  plane waves:     823
 k-point 18 :  -0.0833 0.0833 0.0000  plane waves:     822
 k-point 19 :   0.1667 0.1667 0.0000  plane waves:     813
 k-point 20 :   0.2500 0.1667-0.0000  plane waves:     823
 k-point 21 :   0.3333 0.1667-0.0000  plane waves:     826
 k-point 22 :   0.4167 0.1667-0.0000  plane waves:     828
 k-point 23 :   0.5000 0.1667-0.0000  plane waves:     829
 k-point 24 :  -0.4167 0.1667 0.0000  plane waves:     832
 k-point 25 :  -0.3333 0.1667 0.0000  plane waves:     831
 k-point 26 :  -0.2500 0.1667 0.0000  plane waves:     829
 k-point 27 :  -0.1667 0.1667 0.0000  plane waves:     820
 k-point 28 :   0.2500 0.2500-0.0000  plane waves:     824
 k-point 29 :   0.3333 0.2500-0.0000  plane waves:     828
 k-point 30 :   0.4167 0.2500-0.0000  plane waves:     828
 k-point 31 :   0.5000 0.2500-0.0000  plane waves:     829
 k-point 32 :  -0.4167 0.2500 0.0000  plane waves:     834
 k-point 33 :  -0.3333 0.2500 0.0000  plane waves:     831
 k-point 34 :  -0.2500 0.2500 0.0000  plane waves:     836
 k-point 35 :   0.3333 0.3333-0.0000  plane waves:     830
 k-point 36 :   0.4167 0.3333-0.0000  plane waves:     830
 k-point 37 :   0.5000 0.3333-0.0000  plane waves:     827
 k-point 38 :  -0.4167 0.3333 0.0000  plane waves:     830
 k-point 39 :  -0.3333 0.3333 0.0000  plane waves:     836
 k-point 40 :   0.4167 0.4167-0.0000  plane waves:     825
 k-point 41 :   0.5000 0.4167-0.0000  plane waves:     832
 k-point 42 :  -0.4167 0.4167 0.0000  plane waves:     828
 k-point 43 :   0.5000 0.5000-0.0000  plane waves:     828
 k-point 44 :   0.0833 0.0833 0.0833  plane waves:     823
 k-point 45 :   0.1667 0.0833 0.0833  plane waves:     815
 k-point 46 :   0.2500 0.0833 0.0833  plane waves:     817
 k-point 47 :   0.3333 0.0833 0.0833  plane waves:     825
 k-point 48 :   0.4167 0.0833 0.0833  plane waves:     819
 k-point 49 :   0.5000 0.0833 0.0833  plane waves:     830
 k-point 50 :  -0.4167 0.0833 0.0833  plane waves:     828
 k-point 51 :  -0.3333 0.0833 0.0833  plane waves:     831
 k-point 52 :  -0.2500 0.0833 0.0833  plane waves:     829
 k-point 53 :  -0.1667 0.0833 0.0833  plane waves:     824
 k-point 54 :  -0.0833 0.0833 0.0833  plane waves:     821
 k-point 55 :   0.1667 0.1667 0.0833  plane waves:     810
 k-point 56 :   0.2500 0.1667 0.0833  plane waves:     815
 k-point 57 :   0.3333 0.1667 0.0833  plane waves:     829
 k-point 58 :   0.4167 0.1667 0.0833  plane waves:     827
 k-point 59 :   0.5000 0.1667 0.0833  plane waves:     828
 k-point 60 :  -0.4167 0.1667 0.0833  plane waves:     832
 k-point 61 :  -0.3333 0.1667 0.0833  plane waves:     833
 k-point 62 :  -0.2500 0.1667 0.0833  plane waves:     834
 k-point 63 :  -0.1667 0.1667 0.0833  plane waves:     827
 k-point 64 :  -0.0833 0.1667 0.0833  plane waves:     824
 k-point 65 :   0.2500 0.2500 0.0833  plane waves:     822
 k-point 66 :   0.3333 0.2500 0.0833  plane waves:     824
 k-point 67 :   0.4167 0.2500 0.0833  plane waves:     828
 k-point 68 :   0.5000 0.2500 0.0833  plane waves:     827
 k-point 69 :  -0.4167 0.2500 0.0833  plane waves:     831
 k-point 70 :  -0.3333 0.2500 0.0833  plane waves:     832
 k-point 71 :  -0.2500 0.2500 0.0833  plane waves:     826
 k-point 72 :  -0.1667 0.2500 0.0833  plane waves:     826
 k-point 73 :  -0.0833 0.2500 0.0833  plane waves:     827
 k-point 74 :   0.3333 0.3333 0.0833  plane waves:     826
 k-point 75 :   0.4167 0.3333 0.0833  plane waves:     829
 k-point 76 :   0.5000 0.3333 0.0833  plane waves:     829
 k-point 77 :  -0.4167 0.3333 0.0833  plane waves:     833
 k-point 78 :  -0.3333 0.3333 0.0833  plane waves:     834
 k-point 79 :  -0.2500 0.3333 0.0833  plane waves:     825
 k-point 80 :  -0.1667 0.3333 0.0833  plane waves:     830
 k-point 81 :  -0.0833 0.3333 0.0833  plane waves:     833
 k-point 82 :   0.4167 0.4167 0.0833  plane waves:     833
 k-point 83 :   0.5000 0.4167 0.0833  plane waves:     834
 k-point 84 :  -0.4167 0.4167 0.0833  plane waves:     830
 k-point 85 :  -0.3333 0.4167 0.0833  plane waves:     833
 k-point 86 :  -0.2500 0.4167 0.0833  plane waves:     831
 k-point 87 :  -0.1667 0.4167 0.0833  plane waves:     830
 k-point 88 :  -0.0833 0.4167 0.0833  plane waves:     835
 k-point 89 :   0.5000 0.5000 0.0833  plane waves:     833
 k-point 90 :  -0.4167 0.5000 0.0833  plane waves:     832
 k-point 91 :  -0.3333 0.5000 0.0833  plane waves:     831
 k-point 92 :  -0.2500 0.5000 0.0833  plane waves:     823
 k-point 93 :  -0.1667 0.5000 0.0833  plane waves:     825
 k-point 94 :  -0.0833 0.5000 0.0833  plane waves:     830
 k-point 95 :  -0.4167-0.4167 0.0833  plane waves:     821
 k-point 96 :  -0.3333-0.4167 0.0833  plane waves:     823
 k-point 97 :  -0.2500-0.4167 0.0833  plane waves:     823
 k-point 98 :  -0.1667-0.4167 0.0833  plane waves:     831
 k-point 99 :  -0.3333-0.3333 0.0833  plane waves:     828
 k-point ** :  -0.2500-0.3333 0.0833  plane waves:     830
 k-point ** :  -0.1667-0.3333 0.0833  plane waves:     829
 k-point ** :  -0.2500-0.2500 0.0833  plane waves:     831
 k-point ** :  -0.1667-0.2500 0.0833  plane waves:     824
 k-point ** :  -0.1667-0.1667 0.0833  plane waves:     821
 k-point ** :   0.1667 0.1667 0.1667  plane waves:     808
 k-point ** :   0.2500 0.1667 0.1667  plane waves:     821
 k-point ** :   0.3333 0.1667 0.1667  plane waves:     820
 k-point ** :   0.4167 0.1667 0.1667  plane waves:     823
 k-point ** :   0.5000 0.1667 0.1667  plane waves:     828
 k-point ** :  -0.4167 0.1667 0.1667  plane waves:     829
 k-point ** :  -0.3333 0.1667 0.1667  plane waves:     829
 k-point ** :  -0.2500 0.1667 0.1667  plane waves:     829
 k-point ** :  -0.1667 0.1667 0.1667  plane waves:     826
 k-point ** :   0.2500 0.2500 0.1667  plane waves:     824
 k-point ** :   0.3333 0.2500 0.1667  plane waves:     825
 k-point ** :   0.4167 0.2500 0.1667  plane waves:     829
 k-point ** :   0.5000 0.2500 0.1667  plane waves:     827
 k-point ** :  -0.4167 0.2500 0.1667  plane waves:     832
 k-point ** :  -0.3333 0.2500 0.1667  plane waves:     831
 k-point ** :  -0.2500 0.2500 0.1667  plane waves:     829
 k-point ** :  -0.1667 0.2500 0.1667  plane waves:     826
 k-point ** :   0.3333 0.3333 0.1667  plane waves:     825
 k-point ** :   0.4167 0.3333 0.1667  plane waves:     823
 k-point ** :   0.5000 0.3333 0.1667  plane waves:     826
 k-point ** :  -0.4167 0.3333 0.1667  plane waves:     828
 k-point ** :  -0.3333 0.3333 0.1667  plane waves:     826
 k-point ** :  -0.2500 0.3333 0.1667  plane waves:     827
 k-point ** :  -0.1667 0.3333 0.1667  plane waves:     831
 k-point ** :   0.4167 0.4167 0.1667  plane waves:     829
 k-point ** :   0.5000 0.4167 0.1667  plane waves:     826
 k-point ** :  -0.4167 0.4167 0.1667  plane waves:     829
 k-point ** :  -0.3333 0.4167 0.1667  plane waves:     831
 k-point ** :  -0.2500 0.4167 0.1667  plane waves:     826
 k-point ** :  -0.1667 0.4167 0.1667  plane waves:     824
 k-point ** :   0.5000 0.5000 0.1667  plane waves:     835
 k-point ** :  -0.4167 0.5000 0.1667  plane waves:     832
 k-point ** :  -0.3333 0.5000 0.1667  plane waves:     829
 k-point ** :  -0.2500 0.5000 0.1667  plane waves:     825
 k-point ** :  -0.1667 0.5000 0.1667  plane waves:     816
 k-point ** :  -0.4167-0.4167 0.1667  plane waves:     829
 k-point ** :  -0.3333-0.4167 0.1667  plane waves:     830
 k-point ** :  -0.2500-0.4167 0.1667  plane waves:     825
 k-point ** :  -0.3333-0.3333 0.1667  plane waves:     831
 k-point ** :  -0.2500-0.3333 0.1667  plane waves:     827
 k-point ** :  -0.2500-0.2500 0.1667  plane waves:     827
 k-point ** :   0.2500 0.2500 0.2500  plane waves:     832
 k-point ** :   0.3333 0.2500 0.2500  plane waves:     832
 k-point ** :   0.4167 0.2500 0.2500  plane waves:     831
 k-point ** :   0.5000 0.2500 0.2500  plane waves:     823
 k-point ** :  -0.4167 0.2500 0.2500  plane waves:     830
 k-point ** :  -0.3333 0.2500 0.2500  plane waves:     826
 k-point ** :  -0.2500 0.2500 0.2500  plane waves:     833
 k-point ** :   0.3333 0.3333 0.2500  plane waves:     827
 k-point ** :   0.4167 0.3333 0.2500  plane waves:     828
 k-point ** :   0.5000 0.3333 0.2500  plane waves:     827
 k-point ** :  -0.4167 0.3333 0.2500  plane waves:     826
 k-point ** :  -0.3333 0.3333 0.2500  plane waves:     829
 k-point ** :  -0.2500 0.3333 0.2500  plane waves:     830
 k-point ** :   0.4167 0.4167 0.2500  plane waves:     827
 k-point ** :   0.5000 0.4167 0.2500  plane waves:     831
 k-point ** :  -0.4167 0.4167 0.2500  plane waves:     830
 k-point ** :  -0.3333 0.4167 0.2500  plane waves:     832
 k-point ** :  -0.2500 0.4167 0.2500  plane waves:     827
 k-point ** :   0.5000 0.5000 0.2500  plane waves:     838
 k-point ** :  -0.4167 0.5000 0.2500  plane waves:     839
 k-point ** :  -0.3333 0.5000 0.2500  plane waves:     833
 k-point ** :  -0.2500 0.5000 0.2500  plane waves:     826
 k-point ** :  -0.4167-0.4167 0.2500  plane waves:     832
 k-point ** :  -0.3333-0.4167 0.2500  plane waves:     831
 k-point ** :  -0.3333-0.3333 0.2500  plane waves:     832
 k-point ** :   0.3333 0.3333 0.3333  plane waves:     823
 k-point ** :   0.4167 0.3333 0.3333  plane waves:     824
 k-point ** :   0.5000 0.3333 0.3333  plane waves:     833
 k-point ** :  -0.4167 0.3333 0.3333  plane waves:     835
 k-point ** :  -0.3333 0.3333 0.3333  plane waves:     833
 k-point ** :   0.4167 0.4167 0.3333  plane waves:     835
 k-point ** :   0.5000 0.4167 0.3333  plane waves:     833
 k-point ** :  -0.4167 0.4167 0.3333  plane waves:     831
 k-point ** :  -0.3333 0.4167 0.3333  plane waves:     831
 k-point ** :   0.5000 0.5000 0.3333  plane waves:     839
 k-point ** :  -0.4167 0.5000 0.3333  plane waves:     838
 k-point ** :  -0.3333 0.5000 0.3333  plane waves:     834
 k-point ** :  -0.4167-0.4167 0.3333  plane waves:     839
 k-point ** :   0.4167 0.4167 0.4167  plane waves:     856
 k-point ** :   0.5000 0.4167 0.4167  plane waves:     840
 k-point ** :  -0.4167 0.4167 0.4167  plane waves:     841
 k-point ** :   0.5000 0.5000 0.4167  plane waves:     844
 k-point ** :  -0.4167 0.5000 0.4167  plane waves:     836
 k-point ** :   0.5000 0.5000 0.5000  plane waves:     852

 maximum and minimum number of plane-waves per node :       218      194

 maximum number of plane-waves:       856
 maximum index in each direction: 
   IXMAX=    6   IYMAX=    6   IZMAX=    5
   IXMIN=   -6   IYMIN=   -6   IZMIN=   -6


 parallel 3D FFT for wavefunctions:
    minimum data exchange during FFTs selected (reduces bandwidth)
 parallel 3D FFT for charge:
    minimum data exchange during FFTs selected (reduces bandwidth)


 total amount of memory used by VASP MPI-rank0    37682. kBytes
=======================================================================

   base      :      30000. kBytes
   nonl-proj :       2640. kBytes
   fftplans  :        346. kBytes
   grid      :        481. kBytes
   one-center:          6. kBytes
   wavefun   :       4209. kBytes
 
     INWAV:  cpu time    0.0004: real time    0.0005
 Broyden mixing: mesh for mixing (old mesh)
   NGX = 11   NGY = 11   NGZ = 11
  (NGX  = 48   NGY  = 48   NGZ  = 48)
  gives a total of   1331 points

 initial charge density was supplied:
 charge density of overlapping atoms calculated
 number of electron      32.0000000 magnetization 
 keeping initial charge density in first step


--------------------------------------------------------------------------------------------------------


 Maximum index for augmentation-charges          281 (set IRDMAX)


--------------------------------------------------------------------------------------------------------


 First call to EWALD:  gamma=   0.496
 Maximum number of real-space cells 3x 3x 3
 Maximum number of reciprocal cells 3x 3x 3

    FEWALD:  cpu time    0.0054: real time    0.0054


--------------------------------------- Iteration      1(   1)  ---------------------------------------


    POTLOK:  cpu time    0.0277: real time    0.0324
    SETDIJ:  cpu time    0.0066: real time    0.0066
     EDDAV:  cpu time    9.3406: real time    9.3548
 BZINTS: Fermi energy: 18.586654; 32.000000 electrons
         Band energy: 122.666024;  BLOECHL correction: -0.157214
       DOS:  cpu time    0.1644: real time    0.1644
    --------------------------------------------
      LOOP:  cpu time    9.5394: real time    9.5582

 eigenvalue-minimisations  :  9080
 total energy-change (2. order) : 0.5888857E+02  (-0.1443868E+04)
 number of electron      32.0000000 magnetization 
 augmentation part       32.0000000 magnetization 

 Free energy of the ion-electron system (eV)
  ---------------------------------------------------
  alpha Z        PSCENC =       114.32237981
  Ewald energy   TEWEN  =     -1389.11090230
  -Hartree energ DENC   =       -71.05990660
  -exchange      EXHF   =         0.00000000
  -V(xc)+E(xc)   XCENC  =       114.25702453
  PAW double counting   =       302.65154477     -311.85538214
  entropy T*S    EENTRO =         0.00000000
  eigenvalues    EBANDS =       122.66602436
  atomic energy  EATOM  =      1177.01779097
  Solvation  Ediel_sol  =         0.00000000
  ---------------------------------------------------
  free energy    TOTEN  =        58.88857339 eV

  energy without entropy =       58.88857339  energy(sigma->0) =       58.88857339


--------------------------------------------------------------------------------------------------------




--------------------------------------- Iteration      1(   2)  ---------------------------------------


     EDDAV:  cpu time   11.4949: real time   11.4981
 BZINTS: Fermi energy:  8.903056; 32.000000 electrons
         Band energy:  -7.126127;  BLOECHL correction:  0.000000
       DOS:  cpu time    0.0425: real time    0.0425
    --------------------------------------------
      LOOP:  cpu time   11.5374: real time   11.5406

 eigenvalue-minimisations  : 12584
 total energy-change (2. order) :-0.1297922E+03  (-0.1229868E+03)
 number of electron      32.0000000 magnetization 
 augmentation part       32.0000000 magnetization 

 Free energy of the ion-electron system (eV)
  ---------------------------------------------------
  alpha Z        PSCENC =       114.32237981
  Ewald energy   TEWEN  =     -1389.11090230
  -Hartree energ DENC   =       -71.05990660
  -exchange      EXHF   =         0.00000000
  -V(xc)+E(xc)   XCENC  =       114.25702453
  PAW double counting   =       302.65154477     -311.85538214
  entropy T*S    EENTRO =         0.00000000
  eigenvalues    EBANDS =        -7.12612676
  atomic energy  EATOM  =      1177.01779097
  Solvation  Ediel_sol  =         0.00000000
  ---------------------------------------------------
  free energy    TOTEN  =       -70.90357773 eV

  energy without entropy =      -70.90357773  energy(sigma->0) =      -70.90357773


--------------------------------------------------------------------------------------------------------




--------------------------------------- Iteration      1(   3)  ---------------------------------------


     EDDAV:  cpu time   10.8121: real time   10.8135
 BZINTS: Fermi energy:  8.447375; 32.000000 electrons
         Band energy: -11.344058;  BLOECHL correction:  0.000000
       DOS:  cpu time    0.0420: real time    0.0420
    --------------------------------------------
      LOOP:  cpu time   10.8542: real time   10.8556

 eigenvalue-minimisations  : 11768
 total energy-change (2. order) :-0.4217931E+01  (-0.4196509E+01)
 number of electron      32.0000000 magnetization 
 augmentation part       32.0000000 magnetization 

 Free energy of the ion-electron system (eV)
  ---------------------------------------------------
  alpha Z        PSCENC =       114.32237981
  Ewald energy   TEWEN  =     -1389.11090230
  -Hartree energ DENC   =       -71.05990660
  -exchange      EXHF   =         0.00000000
  -V(xc)+E(xc)   XCENC  =       114.25702453
  PAW double counting   =       302.65154477     -311.85538214
  entropy T*S    EENTRO =         0.00000000
  eigenvalues    EBANDS =       -11.34405799
  atomic energy  EATOM  =      1177.01779097
  Solvation  Ediel_sol  =         0.00000000
  ---------------------------------------------------
  free energy    TOTEN  =       -75.12150895 eV

  energy without entropy =      -75.12150895  energy(sigma->0) =      -75.12150895


--------------------------------------------------------------------------------------------------------




--------------------------------------- Iteration      1(   4)  ---------------------------------------


     EDDAV:  cpu time   10.8516: real time   10.8529
 BZINTS: Fermi energy:  8.387907; 32.000000 electrons
         Band energy: -11.385869;  BLOECHL correction:  0.000000
       DOS:  cpu time    0.0421: real time    0.0421
    --------------------------------------------
      LOOP:  cpu time   10.8938: real time   10.8951

 eigenvalue-minimisations  : 11392
 total energy-change (2. order) :-0.4181143E-01  (-0.4177336E-01)
 number of electron      32.0000000 magnetization 
 augmentation part       32.0000000 magnetization 

 Free energy of the ion-electron system (eV)
  ---------------------------------------------------
  alpha Z        PSCENC =       114.32237981
  Ewald energy   TEWEN  =     -1389.11090230
  -Hartree energ DENC   =       -71.05990660
  -exchange      EXHF   =         0.00000000
  -V(xc)+E(xc)   XCENC  =       114.25702453
  PAW double counting   =       302.65154477     -311.85538214
  entropy T*S    EENTRO =         0.00000000
  eigenvalues    EBANDS =       -11.38586942
  atomic energy  EATOM  =      1177.01779097
  Solvation  Ediel_sol  =         0.00000000
  ---------------------------------------------------
  free energy    TOTEN  =       -75.16332039 eV

  energy without entropy =      -75.16332039  energy(sigma->0) =      -75.16332039


--------------------------------------------------------------------------------------------------------




--------------------------------------- Iteration      1(   5)  ---------------------------------------


     EDDAV:  cpu time   11.0314: real time   11.0327
 BZINTS: Fermi energy:  8.368491; 32.000000 electrons
         Band energy: -11.386726;  BLOECHL correction:  0.000000
       DOS:  cpu time    0.0424: real time    0.0424
    CHARGE:  cpu time    0.2634: real time    0.2634
    MIXING:  cpu time    0.0015: real time    0.0015
    --------------------------------------------
      LOOP:  cpu time   11.3387: real time   11.3400

 eigenvalue-minimisations  : 11688
 total energy-change (2. order) :-0.8569069E-03  (-0.8565030E-03)
 number of electron      32.0000023 magnetization 
 augmentation part        0.7851519 magnetization 

 Broyden mixing:
  rms(total) = 0.94616E+00    rms(broyden)= 0.94598E+00
  rms(prec ) = 0.22363E+01
  weight for this iteration     100.00

 Free energy of the ion-electron system (eV)
  ---------------------------------------------------
  alpha Z        PSCENC =       114.32237981
  Ewald energy   TEWEN  =     -1389.11090230
  -Hartree energ DENC   =       -71.05990660
  -exchange      EXHF   =         0.00000000
  -V(xc)+E(xc)   XCENC  =       114.25702453
  PAW double counting   =       302.65154477     -311.85538214
  entropy T*S    EENTRO =         0.00000000
  eigenvalues    EBANDS =       -11.38672633
  atomic energy  EATOM  =      1177.01779097
  Solvation  Ediel_sol  =         0.00000000
  ---------------------------------------------------
  free energy    TOTEN  =       -75.16417729 eV

  energy without entropy =      -75.16417729  energy(sigma->0) =      -75.16417729


--------------------------------------------------------------------------------------------------------




--------------------------------------- Iteration      1(   6)  ---------------------------------------


    POTLOK:  cpu time    0.0211: real time    0.0215
    SETDIJ:  cpu time    0.0057: real time    0.0057
     EDDAV:  cpu time   10.2184: real time   10.2193
 BZINTS: Fermi energy:  9.039873; 32.000000 electrons
         Band energy:   4.764483;  BLOECHL correction:  0.000000
       DOS:  cpu time    0.0421: real time    0.0421
    CHARGE:  cpu time    0.2757: real time    0.2757
    MIXING:  cpu time    0.0022: real time    0.0022
    --------------------------------------------
      LOOP:  cpu time   10.5652: real time   10.5665

 eigenvalue-minimisations  : 10360
 total energy-change (2. order) : 0.1881147E+01  (-0.1248807E+00)
 number of electron      32.0000023 magnetization 
 augmentation part        0.7673799 magnetization 

 Broyden mixing:
  rms(total) = 0.51879E+00    rms(broyden)= 0.51877E+00
  rms(prec ) = 0.12090E+01
  weight for this iteration     100.00

 eigenvalues of (default mixing * dielectric matrix)
  average eigenvalue GAMMA=   2.1669
  2.1669

 Free energy of the ion-electron system (eV)
  ---------------------------------------------------
  alpha Z        PSCENC =       114.32237981
  Ewald energy   TEWEN  =     -1389.11090230
  -Hartree energ DENC   =       -86.20936499
  -exchange      EXHF   =         0.00000000
  -V(xc)+E(xc)   XCENC  =       115.67323168
  PAW double counting   =       393.26071938     -403.00136755
  entropy T*S    EENTRO =         0.00000000
  eigenvalues    EBANDS =         4.76448260
  atomic energy  EATOM  =      1177.01779097
  Solvation  Ediel_sol  =         0.00000000
  ---------------------------------------------------
  free energy    TOTEN  =       -73.28303040 eV

  energy without entropy =      -73.28303040  energy(sigma->0) =      -73.28303040


--------------------------------------------------------------------------------------------------------




--------------------------------------- Iteration      1(   7)  ---------------------------------------


    POTLOK:  cpu time    0.0214: real time    0.0218
    SETDIJ:  cpu time    0.0058: real time    0.0058
     EDDAV:  cpu time   10.4782: real time   10.4790
 BZINTS: Fermi energy:  9.791829; 32.000000 electrons
         Band energy:  23.412525;  BLOECHL correction:  0.000000
       DOS:  cpu time    0.0375: real time    0.0375
    CHARGE:  cpu time    0.2741: real time    0.2741
    MIXING:  cpu time    0.0019: real time    0.0019
    --------------------------------------------
      LOOP:  cpu time   10.8188: real time   10.8200

 eigenvalue-minimisations  : 10648
 total energy-change (2. order) : 0.6347502E+00  (-0.1414979E+00)
 number of electron      32.0000022 magnetization 
 augmentation part        0.7482419 magnetization 

 Broyden mixing:
  rms(total) = 0.69785E-01    rms(broyden)= 0.69453E-01
  rms(prec ) = 0.12179E+00
  weight for this iteration     100.00

 eigenvalues of (default mixing * dielectric matrix)
  average eigenvalue GAMMA=   2.2696
  2.0075  2.5317

 Free energy of the ion-electron system (eV)
  ---------------------------------------------------
  alpha Z        PSCENC =       114.32237981
  Ewald energy   TEWEN  =     -1389.11090230
  -Hartree energ DENC   =      -105.54201829
  -exchange      EXHF   =         0.00000000
  -V(xc)+E(xc)   XCENC  =       117.50174983
  PAW double counting   =       516.38356982     -526.63337535
  entropy T*S    EENTRO =         0.00000000
  eigenvalues    EBANDS =        23.41252530
  atomic energy  EATOM  =      1177.01779097
  Solvation  Ediel_sol  =         0.00000000
  ---------------------------------------------------
  free energy    TOTEN  =       -72.64828021 eV

  energy without entropy =      -72.64828021  energy(sigma->0) =      -72.64828021


--------------------------------------------------------------------------------------------------------




--------------------------------------- Iteration      1(   8)  ---------------------------------------


    POTLOK:  cpu time    0.0205: real time    0.0207
    SETDIJ:  cpu time    0.0062: real time    0.0062
     EDDAV:  cpu time   10.9570: real time   10.9578
 BZINTS: Fermi energy:  9.796966; 32.000000 electrons
         Band energy:  23.714994;  BLOECHL correction:  0.000000
       DOS:  cpu time    0.0378: real time    0.0378
    CHARGE:  cpu time    0.2668: real time    0.2668
    MIXING:  cpu time    0.0019: real time    0.0019
    --------------------------------------------
      LOOP:  cpu time   11.2901: real time   11.2912

 eigenvalue-minimisations  : 11520
 total energy-change (2. order) :-0.7511206E-02  (-0.2936631E-02)
 number of electron      32.0000022 magnetization 
 augmentation part        0.7486570 magnetization 

 Broyden mixing:
  rms(total) = 0.78979E-02    rms(broyden)= 0.77933E-02
  rms(prec ) = 0.13636E-01
  weight for this iteration     100.00

 eigenvalues of (default mixing * dielectric matrix)
  average eigenvalue GAMMA=   2.0844
  1.4333  2.6674  2.1524

 Free energy of the ion-electron system (eV)
  ---------------------------------------------------
  alpha Z        PSCENC =       114.32237981
  Ewald energy   TEWEN  =     -1389.11090230
  -Hartree energ DENC   =      -106.03045378
  -exchange      EXHF   =         0.00000000
  -V(xc)+E(xc)   XCENC  =       117.55197649
  PAW double counting   =       525.79187200     -535.91344898
[...]

 k-point   177 :       0.5000    0.4167    0.3333
  band No.  band energies     occupation 
      1      -7.2862      2.00000
      2      -6.9346      2.00000
      3      -5.8312      2.00000
      4      -5.7721      2.00000
      5      -3.1675      2.00000
      6      -3.1068      2.00000
      7      -2.1710      2.00000
      8      -2.0380      2.00000
      9       5.5448      2.00000
     10       5.5930      2.00000
     11       6.3060      2.00000
     12       6.3837      2.00000
     13       6.3971      2.00000
     14       6.6156      2.00000
     15       6.8591      2.00000
     16       7.1482      2.00000
     17      17.5429      0.00000
     18      17.6097      0.00000
     19      17.7919      0.00000
     20      18.0792      0.00000
     21      18.4918      0.00000
     22      18.6719      0.00000
     23      18.6878      0.00000
     24      18.7463      0.00000

 k-point   178 :      -0.4167    0.4167    0.3333
  band No.  band energies     occupation 
      1      -7.5834      2.00000
      2      -6.6560      2.00000
      3      -6.2913      2.00000
      4      -5.5063      2.00000
      5      -3.2982      2.00000
      6      -2.6589      2.00000
      7      -2.5295      2.00000
      8      -1.2832      2.00000
      9       5.2625      2.00000
     10       5.7454      2.00000
     11       6.0400      2.00000
     12       6.2356      2.00000
     13       6.2560      2.00000
     14       6.6307      2.00000
     15       6.6681      2.00000
     16       7.1626      2.00000
     17      17.2418      0.00000
     18      17.4273      0.00000
     19      17.4632      0.00000
     20      17.8511      0.00000
     21      18.3908      0.00000
     22      18.5513      0.00000
     23      18.9766      0.00000
     24      19.0917      0.00000

 k-point   179 :      -0.3333    0.4167    0.3333
  band No.  band energies     occupation 
      1      -8.1374      2.00000
      2      -6.7413      2.00000
      3      -6.0488      2.00000
      4      -5.5646      2.00000
      5      -2.8996      2.00000
      6      -2.8921      2.00000
      7      -1.7514      2.00000
      8      -0.4085      2.00000
      9       4.7757      2.00000
     10       5.1345      2.00000
     11       5.7171      2.00000
     12       5.9378      2.00000
     13       6.0079      2.00000
     14       6.1911      2.00000
     15       6.8691      2.00000
     16       7.1443      2.00000
     17      16.9150      0.00000
     18      17.0624      0.00000
     19      17.4413      0.00000
     20      17.5881      0.00000
     21      18.3295      0.00000
     22      18.5521      0.00000
     23      18.9872      0.00000
     24      19.3985      0.00000

 k-point   180 :       0.5000    0.5000    0.3333
  band No.  band energies     occupation 
      1      -6.7761      2.00000
      2      -6.4117      2.00000
      3      -6.3555      2.00000
      4      -6.3555      2.00000
      5      -2.7726      2.00000
      6      -2.6973      2.00000
      7      -2.6973      2.00000
      8      -2.6391      2.00000
      9       5.9393      2.00000
     10       5.9637      2.00000
     11       5.9637      2.00000
     12       6.2976      2.00000
     13       6.7497      2.00000
     14       6.7849      2.00000
     15       6.7849      2.00000
     16       7.0844      2.00000
     17      17.6224      0.00000
     18      17.6224      0.00000
     19      17.8947      0.00000
     20      18.2445      0.00000
     21      18.4428      0.00000
     22      18.4429      0.00000
     23      18.6490      0.00000
     24      18.7362      0.00000

 k-point   181 :      -0.4167    0.5000    0.3333
  band No.  band energies     occupation 
      1      -6.9855      2.00000
      2      -6.9545      2.00000
      3      -6.2837      2.00000
      4      -5.7803      2.00000
      5      -3.1353      2.00000
      6      -3.1314      2.00000
      7      -1.9929      2.00000
      8      -1.9599      2.00000
      9       5.4904      2.00000
     10       5.8649      2.00000
     11       6.2459      2.00000
     12       6.2597      2.00000
     13       6.4597      2.00000
     14       6.7244      2.00000
     15       6.7970      2.00000
     16       6.8577      2.00000
     17      17.5281      0.00000
     18      17.6832      0.00000
     19      17.6943      0.00000
     20      18.1228      0.00000
     21      18.1817      0.00000
     22      18.2989      0.00000
     23      18.5629      0.00000
     24      18.8099      0.00000

 k-point   182 :      -0.3333    0.5000    0.3333
  band No.  band energies     occupation 
      1      -7.4863      2.00000
      2      -7.4863      2.00000
      3      -5.9378      2.00000
      4      -5.3856      2.00000
      5      -3.1769      2.00000
      6      -3.1197      2.00000
      7      -1.1409      2.00000
      8      -1.1409      2.00000
      9       4.8190      2.00000
     10       5.2196      2.00000
     11       6.0480      2.00000
     12       6.2563      2.00000
     13       6.4184      2.00000
     14       6.4184      2.00000
     15       6.5990      2.00000
     16       6.5990      2.00000
     17      17.2536      0.00000
     18      17.2536      0.00000
     19      17.8681      0.00000
     20      17.9534      0.00000
     21      18.1156      0.00000
     22      18.7612      0.00000
     23      18.7616      0.00000
     24      19.0142      0.00000

 k-point   183 :      -0.4167   -0.4167    0.3333
  band No.  band energies     occupation 
      1      -7.6100      2.00000
      2      -6.2575      2.00000
      3      -6.2575      2.00000
      4      -6.0533      2.00000
      5      -3.2388      2.00000
      6      -2.5529      2.00000
      7      -2.5529      2.00000
      8      -1.2425      2.00000
      9       5.5691      2.00000
     10       5.6488      2.00000
     11       5.6488      2.00000
     12       6.3748      2.00000
     13       6.3748      2.00000
     14       6.5580      2.00000
     15       6.6510      2.00000
     16       7.1028      2.00000
     17      17.3680      0.00000
     18      17.3680      0.00000
     19      17.7365      0.00000
     20      17.7421      0.00000
     21      18.3013      0.00000
     22      18.4658      0.00000
     23      18.4951      0.00000
     24      18.4951      0.00000

 k-point   184 :       0.4167    0.4167    0.4167
  band No.  band energies     occupation 
      1      -7.4078      2.00000
      2      -5.8879      2.00000
      3      -5.8879      2.00000
      4      -5.8879      2.00000
      5      -3.2862      2.00000
      6      -3.2862      2.00000
      7      -3.2862      2.00000
      8      -2.2849      2.00000
      9       6.2053      2.00000
     10       6.2053      2.00000
     11       6.2053      2.00000
     12       6.4697      2.00000
     13       6.4697      2.00000
     14       6.4697      2.00000
     15       7.2802      2.00000
     16       7.2802      2.00000
     17      17.5984      0.00000
     18      17.5984      0.00000
     19      17.5984      0.00000
     20      18.2548      0.00000
     21      18.2548      0.00000
     22      18.7400      0.00000
     23      18.7400      0.00000
     24      18.7404      0.00000

 k-point   185 :       0.5000    0.4167    0.4167
  band No.  band energies     occupation 
      1      -6.8951      2.00000
      2      -6.4744      2.00000
      3      -5.7368      2.00000
      4      -5.7368      2.00000
      5      -3.5340      2.00000
      6      -3.5340      2.00000
      7      -2.8913      2.00000
      8      -2.8120      2.00000
      9       6.2877      2.00000
     10       6.2877      2.00000
     11       6.5714      2.00000
     12       6.5714      2.00000
     13       6.6882      2.00000
     14       6.8154      2.00000
     15       7.0592      2.00000
     16       7.1000      2.00000
     17      17.5359      0.00000
     18      17.6813      0.00000
     19      17.6813      0.00000
     20      18.1447      0.00000
     21      18.4361      0.00000
     22      18.5149      0.00000
     23      18.5349      0.00000
     24      18.5357      0.00000

 k-point   186 :      -0.4167    0.4167    0.4167
  band No.  band energies     occupation 
      1      -7.0761      2.00000
      2      -6.4001      2.00000
      3      -5.9157      2.00000
      4      -5.9157      2.00000
      5      -3.2526      2.00000
      6      -3.2331      2.00000
      7      -3.2331      2.00000
      8      -2.1023      2.00000
      9       6.1502      2.00000
     10       6.1502      2.00000
     11       6.4788      2.00000
     12       6.4788      2.00000
     13       6.4945      2.00000
     14       6.8106      2.00000
     15       6.9037      2.00000
     16       6.9696      2.00000
     17      17.4761      0.00000
     18      17.4761      0.00000
     19      17.5007      0.00000
     20      17.9725      0.00000
     21      18.3780      0.00000
     22      18.4194      0.00000
     23      18.6075      0.00000
     24      18.6076      0.00000

 k-point   187 :       0.5000    0.5000    0.4167
  band No.  band energies     occupation 
      1      -6.5177      2.00000
      2      -6.0331      2.00000
      3      -6.0135      2.00000
      4      -6.0135      2.00000
      5      -3.3723      2.00000
      6      -3.3701      2.00000
      7      -3.3701      2.00000
      8      -3.3497      2.00000
      9       6.5702      2.00000
     10       6.5702      2.00000
     11       6.6121      2.00000
     12       6.7691      2.00000
     13       6.8262      2.00000
     14       6.8262      2.00000
     15       6.9382      2.00000
     16       7.1450      2.00000
     17      17.5644      0.00000
     18      17.5644      0.00000
     19      17.6657      0.00000
     20      18.3052      0.00000
     21      18.3911      0.00000
     22      18.3944      0.00000
     23      18.3964      0.00000
     24      18.4918      0.00000

 k-point   188 :      -0.4167    0.5000    0.4167
  band No.  band energies     occupation 
      1      -6.4968      2.00000
      2      -6.4968      2.00000
      3      -6.2850      2.00000
      4      -5.7309      2.00000
      5      -3.5281      2.00000
      6      -3.4808      2.00000
      7      -2.7771      2.00000
      8      -2.7771      2.00000
      9       6.2001      2.00000
     10       6.5960      2.00000
     11       6.6534      2.00000
     12       6.6954      2.00000
     13       6.6954      2.00000
     14       6.7636      2.00000
     15       6.7636      2.00000
     16       6.9364      2.00000
     17      17.5634      0.00000
     18      17.5634      0.00000
     19      17.6479      0.00000
     20      18.2023      0.00000
     21      18.2155      0.00000
     22      18.3800      0.00000
     23      18.3802      0.00000
     24      18.6263      0.00000

 k-point   189 :       0.5000    0.5000    0.5000
  band No.  band energies     occupation 
      1      -6.4011      2.00000
      2      -5.8465      2.00000
      3      -5.8465      2.00000
      4      -5.8465      2.00000
      5      -3.6480      2.00000
      6      -3.6480      2.00000
      7      -3.6480      2.00000
      8      -3.6031      2.00000
      9       6.7757      2.00000
     10       6.7757      2.00000
     11       6.7757      2.00000
     12       6.8529      2.00000
     13       6.8529      2.00000
     14       6.8529      2.00000
     15       7.1674      2.00000
     16       7.1674      2.00000
     17      17.5229      0.00000
     18      17.5229      0.00000
     19      17.5229      0.00000
     20      18.2952      0.00000
     21      18.2953      0.00000
     22      18.3901      0.00000
     23      18.3902      0.00000
     24      18.4087      0.00000


--------------------------------------------------------------------------------------------------------


 soft charge-density along one line, spin component           1
         0         1         2         3         4         5         6         7         8         9
 total charge-density along one line
 
 pseudopotential strength for first ion, spin component:           1
  9.443  -0.005   0.000   0.000   0.000  -0.000  -0.000  -0.000
 -0.005  -0.002   0.000   0.000   0.000  -0.000  -0.000  -0.000
  0.000   0.000  -3.663  -0.000  -0.000  -0.009   0.000   0.000
  0.000   0.000  -0.000  -3.663  -0.000   0.000  -0.009   0.000
  0.000   0.000  -0.000  -0.000  -3.663   0.000   0.000  -0.009
 -0.000  -0.000  -0.009   0.000   0.000  -0.757  -0.000  -0.000
 -0.000  -0.000   0.000  -0.009   0.000  -0.000  -0.757  -0.000
 -0.000  -0.000   0.000   0.000  -0.009  -0.000  -0.000  -0.757
 total augmentation occupancy for first ion, spin component:           1
  1.424  -1.030   0.006   0.006   0.006   0.003   0.003   0.003
 -1.030   1.026  -0.017  -0.016  -0.017  -0.005  -0.005  -0.005
  0.006  -0.017   1.097  -0.013  -0.014   0.184  -0.002  -0.002
  0.006  -0.016  -0.013   1.098  -0.013  -0.002   0.184  -0.002
  0.006  -0.017  -0.014  -0.013   1.097  -0.002  -0.002   0.184
  0.003  -0.005   0.184  -0.002  -0.002   0.036  -0.000  -0.000
  0.003  -0.005  -0.002   0.184  -0.002  -0.000   0.036  -0.000
  0.003  -0.005  -0.002  -0.002   0.184  -0.000  -0.000   0.036


------------------------ aborting loop because EDIFF is reached ----------------------------------------


    CHARGE:  cpu time    0.2645: real time    0.2645
    FORLOC:  cpu time    0.0020: real time    0.0020
    FORNL :  cpu time    0.4524: real time    0.4524
    STRESS:  cpu time    1.0705: real time    1.0707
    FORHAR:  cpu time    0.0054: real time    0.0054
    MIXING:  cpu time    0.0025: real time    0.0025
    OFIELD:  cpu time    0.0001: real time    0.0001

  FORCE on cell =-STRESS in cart. coord.  units (eV):
  Direction    XX          YY          ZZ          XY          YZ          ZX
  --------------------------------------------------------------------------------------
  Alpha Z   114.32238   114.32238   114.32238
  Ewald    -463.45327  -463.02953  -462.63020   -10.59246   -10.18113   -10.38676
  Hartree    35.21953    35.33236    35.43868    -2.82030    -2.71077    -2.76554
  E(xc)    -119.58021  -119.57969  -119.57920    -0.01305    -0.01254    -0.01280
  Local     -46.66905   -47.16710   -47.63646    12.45016    11.96663    12.20839
  n-local   -28.07153   -28.39043   -28.09325     0.40699     0.89062     0.05396
  augment    -2.82790    -2.82795    -2.82800     0.00133     0.00128     0.00130
  Kinetic   504.32398   509.53888   516.48670    -2.27996    -6.11775     0.69810
  Fock        0.00000     0.00000     0.00000     0.00000     0.00000     0.00000
  -------------------------------------------------------------------------------------
  Total      -1.14399    -1.01638    -0.89613    -3.18955    -3.06568    -3.12762
  in kB     -40.18192   -35.69981   -31.47622  -112.03147  -107.68031  -109.85588
  external pressure =      -35.79 kB  Pullay stress =        0.00 kB


 VOLUME and BASIS-vectors are now :
 -----------------------------------------------------------------------------
  energy-cutoff  :      400.00
  volume of cell :       45.61
      direct lattice vectors                 reciprocal lattice vectors
     3.573710000  0.000000000  0.000000000     0.279821250 -0.005597529 -0.005488829
     0.071474000  3.572995000  0.000000000     0.000000000  0.279877246 -0.005488866
     0.071474000  0.070059000  3.572308000     0.000000000  0.000000000  0.279931070

  length of vectors
     3.573710000  3.573709810  3.573709731     0.279931048  0.279931064  0.279931070


 FORCES acting on ions
    electron-ion (+dipol)            ewald-force                    non-local-force                 convergence-correction
 -----------------------------------------------------------------------------------------------
   0.359E+01 0.352E+01 0.345E+01   -.366E+01 -.358E+01 -.351E+01   0.398E-01 0.390E-01 0.382E-01   0.598E-04 0.586E-04 0.575E-04
   -.359E+01 -.352E+01 -.345E+01   0.366E+01 0.358E+01 0.351E+01   -.398E-01 -.390E-01 -.382E-01   -.598E-04 -.586E-04 -.575E-04
   0.359E+01 0.352E+01 0.345E+01   -.366E+01 -.358E+01 -.351E+01   0.398E-01 0.390E-01 0.382E-01   0.598E-04 0.586E-04 0.575E-04
   -.359E+01 -.352E+01 -.345E+01   0.366E+01 0.358E+01 0.351E+01   -.398E-01 -.390E-01 -.382E-01   -.598E-04 -.586E-04 -.575E-04
   0.359E+01 0.352E+01 0.345E+01   -.366E+01 -.358E+01 -.351E+01   0.398E-01 0.390E-01 0.382E-01   0.598E-04 0.586E-04 0.575E-04
   -.359E+01 -.352E+01 -.345E+01   0.366E+01 0.358E+01 0.351E+01   -.398E-01 -.390E-01 -.382E-01   -.598E-04 -.586E-04 -.575E-04
   0.359E+01 0.352E+01 0.345E+01   -.366E+01 -.358E+01 -.351E+01   0.398E-01 0.390E-01 0.382E-01   0.598E-04 0.586E-04 0.575E-04
   -.359E+01 -.352E+01 -.345E+01   0.366E+01 0.358E+01 0.351E+01   -.398E-01 -.390E-01 -.382E-01   -.598E-04 -.586E-04 -.575E-04
 -----------------------------------------------------------------------------------------------
   0.438E-12 0.386E-12 0.419E-12   0.129E-13 -.266E-14 -.444E-15   0.694E-17 0.694E-17 -.555E-16   -.149E-13 -.695E-14 -.773E-14
 
 
 POSITION                                       TOTAL-FORCE (eV/Angst)
 -----------------------------------------------------------------------------------
      0.96490      2.69726      0.89308        -0.026816     -0.026285     -0.025775
      0.03574      0.03503      1.78615         0.026816      0.026285      0.025775
      0.96490      0.94579      2.67923        -0.026816     -0.026285     -0.025775
      0.03574      1.78650      0.00000         0.026816      0.026285      0.025775
      2.78749      2.73229      2.67923        -0.026816     -0.026285     -0.025775
      1.78686      0.00000      0.00000         0.026816      0.026285      0.025775
      2.71602      0.91076      0.89308        -0.026816     -0.026285     -0.025775
      1.85833      1.82153      1.78615         0.026816      0.026285      0.025775
 -----------------------------------------------------------------------------------
    total drift:                                0.000000      0.000000      0.000000


--------------------------------------------------------------------------------------------------------



  FREE ENERGIE OF THE ION-ELECTRON SYSTEM (eV)
  ---------------------------------------------------
  free  energy   TOTEN  =       -72.65606734 eV

  energy  without entropy=      -72.65606734  energy(sigma->0) =      -72.65606734
 


--------------------------------------------------------------------------------------------------------


    POTLOK:  cpu time    0.0280: real time    0.0280


--------------------------------------------------------------------------------------------------------


     LOOP+:  cpu time  120.3033: real time  120.3626
    4ORBIT:  cpu time    0.0000: real time    0.0000
 BZINTS: Fermi energy:  9.795200; 32.000000 electrons
         Band energy:  23.668062;  BLOECHL correction:  0.000000

 total amount of memory used by VASP MPI-rank0    37682. kBytes
=======================================================================

   base      :      30000. kBytes
   nonl-proj :       2640. kBytes
   fftplans  :        346. kBytes
   grid      :        481. kBytes
   one-center:          6. kBytes
   wavefun   :       4209. kBytes
 
  
  
 General timing and accounting informations for this job:
 ========================================================
  
                  Total CPU time used (sec):      123.845
                            User time (sec):      119.953
                          System time (sec):        3.892
                         Elapsed time (sec):      123.982
  
                   Maximum memory used (kb):      193692.
                   Average memory used (kb):           0.
  
                          Minor page faults:        36875
                          Major page faults:           36
                 Voluntary context switches:          786
