<?xml version="1.0" encoding="ISO-8859-1"?>
<modeling>
 <generator>
  <i name="program" type="string">vasp </i>
  <i name="version" type="string">5.4.4.18Apr17-6-g9f103f2a35  </i>
  <i name="subversion" type="string">(build Mar 12 2022 03:36:41) complex            parallel </i>
  <i name="platform" type="string">IFC19.0.3.199_CrayMPICH7.7.19 </i>
  <i name="date" type="string">2022 11 30 </i>
  <i name="time" type="string">12:50:09 </i>
 </generator>
 <incar>
  <i type="int" name="ISTART">     0</i>
  <i type="string" name="PREC">accurate</i>
  <i name="EDIFF">      0.00000100</i>
  <i name="POTIM">      0.02000000</i>
  <i type="int" name="ISMEAR">    -5</i>
  <i name="SIGMA">      0.06000000</i>
  <i type="logical" name="LWAVE"> F  </i>
  <i type="logical" name="LCHARG"> F  </i>
  <v type="int" name="KPOINT_BSE">    -1     0     0     0</v>
 </incar>
 <structure name="primitive_cell" >
  <crystal>
   <varray name="basis" >
    <v>      -0.07147400      -1.82152700      -1.78615400 </v>
    <v>      -1.82259200      -1.78649750       0.00000000 </v>
    <v>      -1.82259200      -0.03502950      -1.78615400 </v>
   </varray>
   <i name="volume">     11.40356443 </i>
   <varray name="rec_basis" >
    <v>       0.27982125      -0.28547478      -0.27993103 </v>
    <v>      -0.27982125      -0.27427972       0.29090876 </v>
    <v>      -0.27982125       0.28547478      -0.27993111 </v>
   </varray>
  </crystal>
  <varray name="positions" >
   <v>       0.25000000       0.25000000       0.25000000 </v>
   <v>      -0.50000000      -0.50000000      -0.50000000 </v>
  </varray>
 </structure>
 <varray name="primitive_index" >
  <v type="int" >        1 </v>
  <v type="int" >        6 </v>
 </varray>
 <kpoints>
  <generation param="Gamma">
   <v type="int" name="divisions">      12       12       12 </v>
   <v name="usershift">      0.00000000       0.00000000       0.00000000 </v>
   <v name="genvec1">      0.08333333      -0.00000000      -0.00000000 </v>
   <v name="genvec2">      0.00000000       0.08333333      -0.00000000 </v>
   <v name="genvec3">      0.00000000       0.00000000       0.08333333 </v>
   <v name="shift">      0.00000000       0.00000000       0.00000000 </v>
  </generation>
  <varray name="kpointlist" >
   <v>       0.00000000       0.00000000       0.00000000 </v>
   <v>       0.08333333      -0.00000000      -0.00000000 </v>
   <v>       0.16666667      -0.00000000      -0.00000000 </v>
   <v>       0.25000000       0.00000000      -0.00000000 </v>
   <v>       0.33333333      -0.00000000      -0.00000000 </v>
   <v>       0.41666667      -0.00000000      -0.00000000 </v>
   <v>       0.50000000       0.00000000      -0.00000000 </v>
   <v>       0.08333333       0.08333333      -0.00000000 </v>
   <v>       0.16666667       0.08333333      -0.00000000 </v>
   <v>       0.25000000       0.08333333      -0.00000000 </v>
   <v>       0.33333333       0.08333333      -0.00000000 </v>
   <v>       0.41666667       0.08333333      -0.00000000 </v>
   <v>       0.50000000       0.08333333      -0.00000000 </v>
   <v>      -0.41666667       0.08333333       0.00000000 </v>
   <v>      -0.33333333       0.08333333       0.00000000 </v>
   <v>      -0.25000000       0.08333333       0.00000000 </v>
   <v>      -0.16666667       0.08333333       0.00000000 </v>
   <v>      -0.08333333       0.08333333       0.00000000 </v>
   <v>       0.16666667       0.16666667       0.00000000 </v>
   <v>       0.25000000       0.16666667      -0.00000000 </v>
   <v>       0.33333333       0.16666667      -0.00000000 </v>
   <v>       0.41666667       0.16666667      -0.00000000 </v>
   <v>       0.50000000       0.16666667      -0.00000000 </v>
   <v>      -0.41666667       0.16666667       0.00000000 </v>
   <v>      -0.33333333       0.16666667       0.00000000 </v>
   <v>      -0.25000000       0.16666667       0.00000000 </v>
   <v>      -0.16666667       0.16666667       0.00000000 </v>
   <v>       0.25000000       0.25000000      -0.00000000 </v>
   <v>       0.33333333       0.25000000      -0.00000000 </v>
   <v>       0.41666667       0.25000000      -0.00000000 </v>
   <v>       0.50000000       0.25000000      -0.00000000 </v>
   <v>      -0.41666667       0.25000000       0.00000000 </v>
   <v>      -0.33333333       0.25000000       0.00000000 </v>
   <v>      -0.25000000       0.25000000       0.00000000 </v>
   <v>       0.33333333       0.33333333      -0.00000000 </v>
   <v>       0.41666667       0.33333333      -0.00000000 </v>
   <v>       0.50000000       0.33333333      -0.00000000 </v>
   <v>      -0.41666667       0.33333333       0.00000000 </v>
   <v>      -0.33333333       0.33333333       0.00000000 </v>
   <v>       0.41666667       0.41666667      -0.00000000 </v>
   <v>       0.50000000       0.41666667      -0.00000000 </v>
   <v>      -0.41666667       0.41666667       0.00000000 </v>
   <v>       0.50000000       0.50000000      -0.00000000 </v>
   <v>       0.08333333       0.08333333       0.08333333 </v>
   <v>       0.16666667       0.08333333       0.08333333 </v>
   <v>       0.25000000       0.08333333       0.08333333 </v>
   <v>       0.33333333       0.08333333       0.08333333 </v>
   <v>       0.41666667       0.08333333       0.08333333 </v>
   <v>       0.50000000       0.08333333       0.08333333 </v>
   <v>      -0.41666667       0.08333333       0.08333333 </v>
   <v>      -0.33333333       0.08333333       0.08333333 </v>
   <v>      -0.25000000       0.08333333       0.08333333 </v>
   <v>      -0.16666667       0.08333333       0.08333333 </v>
   <v>      -0.08333333       0.08333333       0.08333333 </v>
   <v>       0.16666667       0.16666667       0.08333333 </v>
   <v>       0.25000000       0.16666667       0.08333333 </v>
   <v>       0.33333333       0.16666667       0.08333333 </v>
   <v>       0.41666667       0.16666667       0.08333333 </v>
   <v>       0.50000000       0.16666667       0.08333333 </v>
   <v>      -0.41666667       0.16666667       0.08333333 </v>
   <v>      -0.33333333       0.16666667       0.08333333 </v>
   <v>      -0.25000000       0.16666667       0.08333333 </v>
   <v>      -0.16666667       0.16666667       0.08333333 </v>
   <v>      -0.08333333       0.16666667       0.08333333 </v>
   <v>       0.25000000       0.25000000       0.08333333 </v>
   <v>       0.33333333       0.25000000       0.08333333 </v>
   <v>       0.41666667       0.25000000       0.08333333 </v>
   <v>       0.50000000       0.25000000       0.08333333 </v>
   <v>      -0.41666667       0.25000000       0.08333333 </v>
   <v>      -0.33333333       0.25000000       0.08333333 </v>
   <v>      -0.25000000       0.25000000       0.08333333 </v>
   <v>      -0.16666667       0.25000000       0.08333333 </v>
   <v>      -0.08333333       0.25000000       0.08333333 </v>
   <v>       0.33333333       0.33333333       0.08333333 </v>
   <v>       0.41666667       0.33333333       0.08333333 </v>
   <v>       0.50000000       0.33333333       0.08333333 </v>
   <v>      -0.41666667       0.33333333       0.08333333 </v>
   <v>      -0.33333333       0.33333333       0.08333333 </v>
   <v>      -0.25000000       0.33333333       0.08333333 </v>
   <v>      -0.16666667       0.33333333       0.08333333 </v>
   <v>      -0.08333333       0.33333333       0.08333333 </v>
   <v>       0.41666667       0.41666667       0.08333333 </v>
   <v>       0.50000000       0.41666667       0.08333333 </v>
   <v>      -0.41666667       0.41666667       0.08333333 </v>
   <v>      -0.33333333       0.41666667       0.08333333 </v>
   <v>      -0.25000000       0.41666667       0.08333333 </v>
   <v>      -0.16666667       0.41666667       0.08333333 </v>
   <v>      -0.08333333       0.41666667       0.08333333 </v>
   <v>       0.50000000       0.50000000       0.08333333 </v>
   <v>      -0.41666667       0.50000000       0.08333333 </v>
   <v>      -0.33333333       0.50000000       0.08333333 </v>
   <v>      -0.25000000       0.50000000       0.08333333 </v>
   <v>      -0.16666667       0.50000000       0.08333333 </v>
   <v>      -0.08333333       0.50000000       0.08333333 </v>
   <v>      -0.41666667      -0.41666667       0.08333333 </v>
   <v>      -0.33333333      -0.41666667       0.08333333 </v>
   <v>      -0.25000000      -0.41666667       0.08333333 </v>
   <v>      -0.16666667      -0.41666667       0.08333333 </v>
   <v>      -0.33333333      -0.33333333       0.08333333 </v>
   <v>      -0.25000000      -0.33333333       0.08333333 </v>
   <v>      -0.16666667      -0.33333333       0.08333333 </v>
   <v>      -0.25000000      -0.25000000       0.08333333 </v>
   <v>      -0.16666667      -0.25000000       0.08333333 </v>
   <v>      -0.16666667      -0.16666667       0.08333333 </v>
   <v>       0.16666667       0.16666667       0.16666667 </v>
   <v>       0.25000000       0.16666667       0.16666667 </v>
   <v>       0.33333333       0.16666667       0.16666667 </v>
   <v>       0.41666667       0.16666667       0.16666667 </v>
   <v>       0.50000000       0.16666667       0.16666667 </v>
   <v>      -0.41666667       0.16666667       0.16666667 </v>
   <v>      -0.33333333       0.16666667       0.16666667 </v>
   <v>      -0.25000000       0.16666667       0.16666667 </v>
   <v>      -0.16666667       0.16666667       0.16666667 </v>
   <v>       0.25000000       0.25000000       0.16666667 </v>
   <v>       0.33333333       0.25000000       0.16666667 </v>
   <v>       0.41666667       0.25000000       0.16666667 </v>
   <v>       0.50000000       0.25000000       0.16666667 </v>
   <v>      -0.41666667       0.25000000       0.16666667 </v>
   <v>      -0.33333333       0.25000000       0.16666667 </v>
   <v>      -0.25000000       0.25000000       0.16666667 </v>
   <v>      -0.16666667       0.25000000       0.16666667 </v>
   <v>       0.33333333       0.33333333       0.16666667 </v>
   <v>       0.41666667       0.33333333       0.16666667 </v>
   <v>       0.50000000       0.33333333       0.16666667 </v>
   <v>      -0.41666667       0.33333333       0.16666667 </v>
   <v>      -0.33333333       0.33333333       0.16666667 </v>
   <v>      -0.25000000       0.33333333       0.16666667 </v>
   <v>      -0.16666667       0.33333333       0.16666667 </v>
   <v>       0.41666667       0.41666667       0.16666667 </v>
   <v>       0.50000000       0.41666667       0.16666667 </v>
   <v>      -0.41666667       0.41666667       0.16666667 </v>
   <v>      -0.33333333       0.41666667       0.16666667 </v>
   <v>      -0.25000000       0.41666667       0.16666667 </v>
   <v>      -0.16666667       0.41666667       0.16666667 </v>
   <v>       0.50000000       0.50000000       0.16666667 </v>
   <v>      -0.41666667       0.50000000       0.16666667 </v>
   <v>      -0.33333333       0.50000000       0.16666667 </v>
   <v>      -0.25000000       0.50000000       0.16666667 </v>
   <v>      -0.16666667       0.50000000       0.16666667 </v>
   <v>      -0.41666667      -0.41666667       0.16666667 </v>
   <v>      -0.33333333      -0.41666667       0.16666667 </v>
   <v>      -0.25000000      -0.41666667       0.16666667 </v>
   <v>      -0.33333333      -0.33333333       0.16666667 </v>
   <v>      -0.25000000      -0.33333333       0.16666667 </v>
   <v>      -0.25000000      -0.25000000       0.16666667 </v>
   <v>       0.25000000       0.25000000       0.25000000 </v>
   <v>       0.33333333       0.25000000       0.25000000 </v>
   <v>       0.41666667       0.25000000       0.25000000 </v>
   <v>       0.50000000       0.25000000       0.25000000 </v>
   <v>      -0.41666667       0.25000000       0.25000000 </v>
   <v>      -0.33333333       0.25000000       0.25000000 </v>
   <v>      -0.25000000       0.25000000       0.25000000 </v>
   <v>       0.33333333       0.33333333       0.25000000 </v>
   <v>       0.41666667       0.33333333       0.25000000 </v>
   <v>       0.50000000       0.33333333       0.25000000 </v>
   <v>      -0.41666667       0.33333333       0.25000000 </v>
   <v>      -0.33333333       0.33333333       0.25000000 </v>
   <v>      -0.25000000       0.33333333       0.25000000 </v>
   <v>       0.41666667       0.41666667       0.25000000 </v>
   <v>       0.50000000       0.41666667       0.25000000 </v>
   <v>      -0.41666667       0.41666667       0.25000000 </v>
   <v>      -0.33333333       0.41666667       0.25000000 </v>
   <v>      -0.25000000       0.41666667       0.25000000 </v>
   <v>       0.50000000       0.50000000       0.25000000 </v>
   <v>      -0.41666667       0.50000000       0.25000000 </v>
   <v>      -0.33333333       0.50000000       0.25000000 </v>
   <v>      -0.25000000       0.50000000       0.25000000 </v>
   <v>      -0.41666667      -0.41666667       0.25000000 </v>
   <v>      -0.33333333      -0.41666667       0.25000000 </v>
   <v>      -0.33333333      -0.33333333       0.25000000 </v>
   <v>       0.33333333       0.33333333       0.33333333 </v>
   <v>       0.41666667       0.33333333       0.33333333 </v>
   <v>       0.50000000       0.33333333       0.33333333 </v>
   <v>      -0.41666667       0.33333333       0.33333333 </v>
   <v>      -0.33333333       0.33333333       0.33333333 </v>
   <v>       0.41666667       0.41666667       0.33333333 </v>
   <v>       0.50000000       0.41666667       0.33333333 </v>
   <v>      -0.41666667       0.41666667       0.33333333 </v>
   <v>      -0.33333333       0.41666667       0.33333333 </v>
   <v>       0.50000000       0.50000000       0.33333333 </v>
   <v>      -0.41666667       0.50000000       0.33333333 </v>
   <v>      -0.33333333       0.50000000       0.33333333 </v>
   <v>      -0.41666667      -0.41666667       0.33333333 </v>
   <v>       0.41666667       0.41666667       0.41666667 </v>
   <v>       0.50000000       0.41666667       0.41666667 </v>
   <v>      -0.41666667       0.41666667       0.41666667 </v>
   <v>       0.50000000       0.50000000       0.41666667 </v>
   <v>      -0.41666667       0.50000000       0.41666667 </v>
   <v>       0.50000000       0.50000000       0.50000000 </v>
  </varray>
  <varray name="weights" >
   <v>       0.00057870 </v>
   <v>       0.00347222 </v>
   <v>       0.00347222 </v>
   <v>       0.00347222 </v>
   <v>       0.00347222 </v>
   <v>       0.00347222 </v>
   <v>       0.00173611 </v>
   <v>       0.00347222 </v>
   <v>       0.00694444 </v>
   <v>       0.00694444 </v>
   <v>       0.00694444 </v>
   <v>       0.00694444 </v>
   <v>       0.00694444 </v>
   <v>       0.00694444 </v>
   <v>       0.00694444 </v>
   <v>       0.00694444 </v>
   <v>       0.00694444 </v>
   <v>       0.00347222 </v>
   <v>       0.00347222 </v>
   <v>       0.00694444 </v>
   <v>       0.00694444 </v>
   <v>       0.00694444 </v>
   <v>       0.00694444 </v>
   <v>       0.00694444 </v>
   <v>       0.00694444 </v>
   <v>       0.00694444 </v>
   <v>       0.00347222 </v>
   <v>       0.00347222 </v>
   <v>       0.00694444 </v>
   <v>       0.00694444 </v>
   <v>       0.00694444 </v>
   <v>       0.00694444 </v>
   <v>       0.00694444 </v>
   <v>       0.00347222 </v>
   <v>       0.00347222 </v>
   <v>       0.00694444 </v>
   <v>       0.00694444 </v>
   <v>       0.00694444 </v>
   <v>       0.00347222 </v>
   <v>       0.00347222 </v>
   <v>       0.00694444 </v>
   <v>       0.00347222 </v>
   <v>       0.00173611 </v>
   <v>       0.00115741 </v>
   <v>       0.00347222 </v>
   <v>       0.00347222 </v>
   <v>       0.00347222 </v>
   <v>       0.00347222 </v>
   <v>       0.00347222 </v>
   <v>       0.00347222 </v>
   <v>       0.00347222 </v>
   <v>       0.00347222 </v>
   <v>       0.00347222 </v>
   <v>       0.00347222 </v>
   <v>       0.00347222 </v>
   <v>       0.00694444 </v>
   <v>       0.00694444 </v>
   <v>       0.00694444 </v>
   <v>       0.00694444 </v>
   <v>       0.00694444 </v>
   <v>       0.00694444 </v>
   <v>       0.00694444 </v>
   <v>       0.00694444 </v>
   <v>       0.00694444 </v>
   <v>       0.00347222 </v>
   <v>       0.00694444 </v>
   <v>       0.00694444 </v>
   <v>       0.00694444 </v>
   <v>       0.00694444 </v>
   <v>       0.00694444 </v>
   <v>       0.00694444 </v>
   <v>       0.00694444 </v>
   <v>       0.00694444 </v>
   <v>       0.00347222 </v>
   <v>       0.00694444 </v>
   <v>       0.00694444 </v>
   <v>       0.00694444 </v>
   <v>       0.00694444 </v>
   <v>       0.00694444 </v>
   <v>       0.00694444 </v>
   <v>       0.00694444 </v>
   <v>       0.00347222 </v>
   <v>       0.00694444 </v>
   <v>       0.00694444 </v>
   <v>       0.00694444 </v>
   <v>       0.00694444 </v>
   <v>       0.00694444 </v>
   <v>       0.00694444 </v>
   <v>       0.00347222 </v>
   <v>       0.00694444 </v>
   <v>       0.00694444 </v>
   <v>       0.00694444 </v>
   <v>       0.00694444 </v>
   <v>       0.00347222 </v>
   <v>       0.00347222 </v>
   <v>       0.00694444 </v>
   <v>       0.00694444 </v>
   <v>       0.00694444 </v>
   <v>       0.00347222 </v>
   <v>       0.00694444 </v>
   <v>       0.00694444 </v>
   <v>       0.00347222 </v>
   <v>       0.00694444 </v>
   <v>       0.00347222 </v>
   <v>       0.00115741 </v>
   <v>       0.00347222 </v>
   <v>       0.00347222 </v>
   <v>       0.00347222 </v>
   <v>       0.00347222 </v>
   <v>       0.00347222 </v>
   <v>       0.00347222 </v>
   <v>       0.00347222 </v>
   <v>       0.00347222 </v>
   <v>       0.00347222 </v>
   <v>       0.00694444 </v>
   <v>       0.00694444 </v>
   <v>       0.00694444 </v>
   <v>       0.00694444 </v>
   <v>       0.00694444 </v>
   <v>       0.00694444 </v>
   <v>       0.00694444 </v>
   <v>       0.00347222 </v>
   <v>       0.00694444 </v>
   <v>       0.00694444 </v>
   <v>       0.00694444 </v>
   <v>       0.00694444 </v>
   <v>       0.00694444 </v>
   <v>       0.00694444 </v>
   <v>       0.00347222 </v>
   <v>       0.00694444 </v>
   <v>       0.00694444 </v>
   <v>       0.00694444 </v>
   <v>       0.00694444 </v>
   <v>       0.00694444 </v>
   <v>       0.00347222 </v>
   <v>       0.00694444 </v>
   <v>       0.00694444 </v>
   <v>       0.00694444 </v>
   <v>       0.00347222 </v>
   <v>       0.00347222 </v>
   <v>       0.00694444 </v>
   <v>       0.00694444 </v>
   <v>       0.00347222 </v>
   <v>       0.00694444 </v>
   <v>       0.00347222 </v>
   <v>       0.00115741 </v>
   <v>       0.00347222 </v>
   <v>       0.00347222 </v>
   <v>       0.00347222 </v>
   <v>       0.00347222 </v>
   <v>       0.00347222 </v>
   <v>       0.00347222 </v>
   <v>       0.00347222 </v>
   <v>       0.00694444 </v>
   <v>       0.00694444 </v>
   <v>       0.00694444 </v>
   <v>       0.00694444 </v>
   <v>       0.00694444 </v>
   <v>       0.00347222 </v>
   <v>       0.00694444 </v>
   <v>       0.00694444 </v>
   <v>       0.00694444 </v>
   <v>       0.00694444 </v>
   <v>       0.00347222 </v>
   <v>       0.00694444 </v>
   <v>       0.00694444 </v>
   <v>       0.00347222 </v>
   <v>       0.00347222 </v>
   <v>       0.00694444 </v>
   <v>       0.00347222 </v>
   <v>       0.00115741 </v>
   <v>       0.00347222 </v>
   <v>       0.00347222 </v>
   <v>       0.00347222 </v>
   <v>       0.00347222 </v>
   <v>       0.00347222 </v>
   <v>       0.00694444 </v>
   <v>       0.00694444 </v>
   <v>       0.00694444 </v>
   <v>       0.00347222 </v>
   <v>       0.00694444 </v>
   <v>       0.00347222 </v>
   <v>       0.00347222 </v>
   <v>       0.00115741 </v>
   <v>       0.00347222 </v>
   <v>       0.00347222 </v>
   <v>       0.00347222 </v>
   <v>       0.00347222 </v>
   <v>       0.00057870 </v>
  </varray>
  <varray name="tetrahedronlist"  type="int" >
   <v type="int" >       12        1        2        8       44 </v>
   <v type="int" >       12        2        8        9       45 </v>
   <v type="int" >       12        2        3        9       45 </v>
   <v type="int" >       12        2        8       44       45 </v>
   <v type="int" >       12        3        9       10       46 </v>
   <v type="int" >       12        3        4       10       46 </v>
   <v type="int" >       12        3        9       45       46 </v>
   <v type="int" >       12        4       10       11       47 </v>
   <v type="int" >       12        4        5       11       47 </v>
   <v type="int" >       12        4       10       46       47 </v>
   <v type="int" >       12        5       11       12       48 </v>
   <v type="int" >       12        5        6       12       48 </v>
   <v type="int" >       12        5       11       47       48 </v>
   <v type="int" >       12        6       12       13       49 </v>
   <v type="int" >       12        6        7       13       49 </v>
   <v type="int" >       12        6       12       48       49 </v>
   <v type="int" >       12        7       13       14       50 </v>
   <v type="int" >       12        6        7       14       50 </v>
   <v type="int" >       12        7       13       49       50 </v>
   <v type="int" >       12        6       14       15       51 </v>
   <v type="int" >       12        5        6       15       51 </v>
   <v type="int" >       12        6       14       50       51 </v>
   <v type="int" >       12        5       15       16       52 </v>
   <v type="int" >       12        4        5       16       52 </v>
   <v type="int" >       12        5       15       51       52 </v>
   <v type="int" >       12        4       16       17       53 </v>
   <v type="int" >       12        3        4       17       53 </v>
   <v type="int" >       12        4       16       52       53 </v>
   <v type="int" >       12        3       17       18       54 </v>
   <v type="int" >       12        2        3       18       54 </v>
   <v type="int" >       12        3       17       53       54 </v>
   <v type="int" >       12        2        2        8       18 </v>
   <v type="int" >       12        1        2        2        8 </v>
   <v type="int" >       12        2        8       18       54 </v>
   <v type="int" >       12        8        9       19       55 </v>
   <v type="int" >       12        8        9       45       55 </v>
   <v type="int" >       12        8       44       45       55 </v>
   <v type="int" >       12        9       19       20       56 </v>
   <v type="int" >       12        9       10       20       56 </v>
   <v type="int" >       12        9       10       46       56 </v>
   <v type="int" >       12        9       19       55       56 </v>
   <v type="int" >       12        9       45       55       56 </v>
   <v type="int" >       12        9       45       46       56 </v>
   <v type="int" >       12       10       20       21       57 </v>
   <v type="int" >       12       10       11       21       57 </v>
   <v type="int" >       12       10       11       47       57 </v>
   <v type="int" >       12       10       20       56       57 </v>
   <v type="int" >       12       10       46       56       57 </v>
   <v type="int" >       12       10       46       47       57 </v>
   <v type="int" >       12       11       21       22       58 </v>
   <v type="int" >       12       11       12       22       58 </v>
   <v type="int" >       12       11       12       48       58 </v>
   <v type="int" >       12       11       21       57       58 </v>
   <v type="int" >       12       11       47       57       58 </v>
   <v type="int" >       12       11       47       48       58 </v>
   <v type="int" >       12       12       22       23       59 </v>
   <v type="int" >       12       12       13       23       59 </v>
   <v type="int" >       12       12       13       49       59 </v>
   <v type="int" >       12       12       22       58       59 </v>
   <v type="int" >       12       12       48       58       59 </v>
   <v type="int" >       12       12       48       49       59 </v>
   <v type="int" >       12       13       23       24       60 </v>
   <v type="int" >       12       13       14       24       60 </v>
   <v type="int" >       12       13       14       50       60 </v>
   <v type="int" >       12       13       23       59       60 </v>
   <v type="int" >       12       13       49       59       60 </v>
   <v type="int" >       12       13       49       50       60 </v>
   <v type="int" >       12       14       24       25       61 </v>
   <v type="int" >       12       14       15       25       61 </v>
   <v type="int" >       12       14       15       51       61 </v>
   <v type="int" >       12       14       24       60       61 </v>
   <v type="int" >       12       14       50       60       61 </v>
   <v type="int" >       12       14       50       51       61 </v>
   <v type="int" >       12       15       25       26       62 </v>
   <v type="int" >       12       15       16       26       62 </v>
   <v type="int" >       12       15       16       52       62 </v>
   <v type="int" >       12       15       25       61       62 </v>
   <v type="int" >       12       15       51       61       62 </v>
   <v type="int" >       12       15       51       52       62 </v>
   <v type="int" >       12       16       26       27       63 </v>
   <v type="int" >       12       16       17       27       63 </v>
   <v type="int" >       12       16       17       53       63 </v>
   <v type="int" >       12       16       26       62       63 </v>
   <v type="int" >       12       16       52       62       63 </v>
   <v type="int" >       12       16       52       53       63 </v>
   <v type="int" >       12       17       17       27       64 </v>
   <v type="int" >       12       17       17       18       64 </v>
   <v type="int" >       12       17       18       54       64 </v>
   <v type="int" >       12       17       27       63       64 </v>
   <v type="int" >       12       17       53       63       64 </v>
   <v type="int" >       12       17       53       54       64 </v>
   <v type="int" >       12        3        9       17       18 </v>
   <v type="int" >       12        2        3        9       18 </v>
   <v type="int" >       12        2        8        9       18 </v>
   <v type="int" >       12        9       17       18       64 </v>
   <v type="int" >       12        9       18       54       64 </v>
   <v type="int" >       12        8        9       18       54 </v>
   <v type="int" >       12       19       20       28       65 </v>
   <v type="int" >       12       19       20       56       65 </v>
   <v type="int" >       12       19       55       56       65 </v>
   <v type="int" >       12       20       28       29       66 </v>
   <v type="int" >       12       20       21       29       66 </v>
   <v type="int" >       12       20       21       57       66 </v>
   <v type="int" >       12       20       28       65       66 </v>
   <v type="int" >       12       20       56       65       66 </v>
   <v type="int" >       12       20       56       57       66 </v>
   <v type="int" >       12       21       29       30       67 </v>
   <v type="int" >       12       21       22       30       67 </v>
   <v type="int" >       12       21       22       58       67 </v>
   <v type="int" >       12       21       29       66       67 </v>
   <v type="int" >       12       21       57       66       67 </v>
   <v type="int" >       12       21       57       58       67 </v>
   <v type="int" >       12       22       30       31       68 </v>
   <v type="int" >       12       22       23       31       68 </v>
   <v type="int" >       12       22       23       59       68 </v>
   <v type="int" >       12       22       30       67       68 </v>
   <v type="int" >       12       22       58       67       68 </v>
   <v type="int" >       12       22       58       59       68 </v>
   <v type="int" >       12       23       31       32       69 </v>
   <v type="int" >       12       23       24       32       69 </v>
   <v type="int" >       12       23       24       60       69 </v>
   <v type="int" >       12       23       31       68       69 </v>
   <v type="int" >       12       23       59       68       69 </v>
   <v type="int" >       12       23       59       60       69 </v>
   <v type="int" >       12       24       32       33       70 </v>
   <v type="int" >       12       24       25       33       70 </v>
   <v type="int" >       12       24       25       61       70 </v>
   <v type="int" >       12       24       32       69       70 </v>
   <v type="int" >       12       24       60       69       70 </v>
   <v type="int" >       12       24       60       61       70 </v>
   <v type="int" >       12       25       33       34       71 </v>
   <v type="int" >       12       25       26       34       71 </v>
   <v type="int" >       12       25       26       62       71 </v>
   <v type="int" >       12       25       33       70       71 </v>
   <v type="int" >       12       25       61       70       71 </v>
   <v type="int" >       12       25       61       62       71 </v>
   <v type="int" >       12       26       26       34       72 </v>
   <v type="int" >       12       26       26       27       72 </v>
   <v type="int" >       12       26       27       63       72 </v>
   <v type="int" >       12       26       34       71       72 </v>
   <v type="int" >       12       26       62       71       72 </v>
   <v type="int" >       12       26       62       63       72 </v>
   <v type="int" >       12       16       26       27       73 </v>
   <v type="int" >       12       16       17       27       73 </v>
   <v type="int" >       12       17       27       64       73 </v>
   <v type="int" >       12       26       27       72       73 </v>
   <v type="int" >       12       27       63       72       73 </v>
   <v type="int" >       12       27       63       64       73 </v>
   <v type="int" >       12        4       10       16       17 </v>
   <v type="int" >       12        3        4       10       17 </v>
   <v type="int" >       12        3        9       10       17 </v>
   <v type="int" >       12       10       16       17       73 </v>
   <v type="int" >       12       10       17       64       73 </v>
   <v type="int" >       12        9       10       17       64 </v>
   <v type="int" >       12       28       29       35       74 </v>
   <v type="int" >       12       28       29       66       74 </v>
   <v type="int" >       12       28       65       66       74 </v>
   <v type="int" >       12       29       35       36       75 </v>
   <v type="int" >       12       29       30       36       75 </v>
   <v type="int" >       12       29       30       67       75 </v>
   <v type="int" >       12       29       35       74       75 </v>
   <v type="int" >       12       29       66       74       75 </v>
   <v type="int" >       12       29       66       67       75 </v>
   <v type="int" >       12       30       36       37       76 </v>
   <v type="int" >       12       30       31       37       76 </v>
   <v type="int" >       12       30       31       68       76 </v>
   <v type="int" >       12       30       36       75       76 </v>
   <v type="int" >       12       30       67       75       76 </v>
   <v type="int" >       12       30       67       68       76 </v>
   <v type="int" >       12       31       37       38       77 </v>
   <v type="int" >       12       31       32       38       77 </v>
   <v type="int" >       12       31       32       69       77 </v>
   <v type="int" >       12       31       37       76       77 </v>
   <v type="int" >       12       31       68       76       77 </v>
   <v type="int" >       12       31       68       69       77 </v>
   <v type="int" >       12       32       38       39       78 </v>
   <v type="int" >       12       32       33       39       78 </v>
   <v type="int" >       12       32       33       70       78 </v>
   <v type="int" >       12       32       38       77       78 </v>
   <v type="int" >       12       32       69       77       78 </v>
   <v type="int" >       12       32       69       70       78 </v>
   <v type="int" >       12       33       33       39       79 </v>
   <v type="int" >       12       33       33       34       79 </v>
   <v type="int" >       12       33       34       71       79 </v>
   <v type="int" >       12       33       39       78       79 </v>
   <v type="int" >       12       33       70       78       79 </v>
   <v type="int" >       12       33       70       71       79 </v>
   <v type="int" >       12       25       33       34       80 </v>
   <v type="int" >       12       25       26       34       80 </v>
   <v type="int" >       12       26       34       72       80 </v>
   <v type="int" >       12       33       34       79       80 </v>
   <v type="int" >       12       34       71       79       80 </v>
   <v type="int" >       12       34       71       72       80 </v>
   <v type="int" >       12       15       25       26       81 </v>
   <v type="int" >       12       15       16       26       81 </v>
   <v type="int" >       12       16       26       73       81 </v>
   <v type="int" >       12       25       26       80       81 </v>
   <v type="int" >       12       26       72       80       81 </v>
   <v type="int" >       12       26       72       73       81 </v>
   <v type="int" >       12        5       11       15       16 </v>
   <v type="int" >       12        4        5       11       16 </v>
   <v type="int" >       12        4       10       11       16 </v>
   <v type="int" >       12       11       15       16       81 </v>
   <v type="int" >       12       11       16       73       81 </v>
   <v type="int" >       12       10       11       16       73 </v>
   <v type="int" >       12       35       36       40       82 </v>
   <v type="int" >       12       35       36       75       82 </v>
   <v type="int" >       12       35       74       75       82 </v>
   <v type="int" >       12       36       40       41       83 </v>
   <v type="int" >       12       36       37       41       83 </v>
   <v type="int" >       12       36       37       76       83 </v>
   <v type="int" >       12       36       40       82       83 </v>
   <v type="int" >       12       36       75       82       83 </v>
   <v type="int" >       12       36       75       76       83 </v>
   <v type="int" >       12       37       41       42       84 </v>
   <v type="int" >       12       37       38       42       84 </v>
   <v type="int" >       12       37       38       77       84 </v>
   <v type="int" >       12       37       41       83       84 </v>
   <v type="int" >       12       37       76       83       84 </v>
   <v type="int" >       12       37       76       77       84 </v>
   <v type="int" >       12       38       38       42       85 </v>
   <v type="int" >       12       38       38       39       85 </v>
   <v type="int" >       12       38       39       78       85 </v>
   <v type="int" >       12       38       42       84       85 </v>
   <v type="int" >       12       38       77       84       85 </v>
   <v type="int" >       12       38       77       78       85 </v>
   <v type="int" >       12       32       38       39       86 </v>
   <v type="int" >       12       32       33       39       86 </v>
   <v type="int" >       12       33       39       79       86 </v>
   <v type="int" >       12       38       39       85       86 </v>
   <v type="int" >       12       39       78       85       86 </v>
   <v type="int" >       12       39       78       79       86 </v>
   <v type="int" >       12       24       32       33       87 </v>
   <v type="int" >       12       24       25       33       87 </v>
   <v type="int" >       12       25       33       80       87 </v>
   <v type="int" >       12       32       33       86       87 </v>
   <v type="int" >       12       33       79       86       87 </v>
   <v type="int" >       12       33       79       80       87 </v>
   <v type="int" >       12       14       24       25       88 </v>
   <v type="int" >       12       14       15       25       88 </v>
   <v type="int" >       12       15       25       81       88 </v>
   <v type="int" >       12       24       25       87       88 </v>
   <v type="int" >       12       25       80       87       88 </v>
   <v type="int" >       12       25       80       81       88 </v>
   <v type="int" >       12        6       12       14       15 </v>
   <v type="int" >       12        5        6       12       15 </v>
   <v type="int" >       12        5       11       12       15 </v>
   <v type="int" >       12       12       14       15       88 </v>
   <v type="int" >       12       12       15       81       88 </v>
   <v type="int" >       12       11       12       15       81 </v>
   <v type="int" >       12       40       41       43       89 </v>
   <v type="int" >       12       40       41       83       89 </v>
   <v type="int" >       12       40       82       83       89 </v>
   <v type="int" >       12       41       41       43       90 </v>
   <v type="int" >       12       41       41       42       90 </v>
   <v type="int" >       12       41       42       84       90 </v>
   <v type="int" >       12       41       43       89       90 </v>
   <v type="int" >       12       41       83       89       90 </v>
   <v type="int" >       12       41       83       84       90 </v>
   <v type="int" >       12       37       41       42       91 </v>
   <v type="int" >       12       37       38       42       91 </v>
   <v type="int" >       12       38       42       85       91 </v>
   <v type="int" >       12       41       42       90       91 </v>
   <v type="int" >       12       42       84       90       91 </v>
   <v type="int" >       12       42       84       85       91 </v>
   <v type="int" >       12       31       37       38       92 </v>
   <v type="int" >       12       31       32       38       92 </v>
   <v type="int" >       12       32       38       86       92 </v>
   <v type="int" >       12       37       38       91       92 </v>
   <v type="int" >       12       38       85       91       92 </v>
   <v type="int" >       12       38       85       86       92 </v>
   <v type="int" >       12       23       31       32       93 </v>
   <v type="int" >       12       23       24       32       93 </v>
   <v type="int" >       12       24       32       87       93 </v>
   <v type="int" >       12       31       32       92       93 </v>
   <v type="int" >       12       32       86       92       93 </v>
   <v type="int" >       12       32       86       87       93 </v>
   <v type="int" >       12       13       23       24       94 </v>
   <v type="int" >       12       13       14       24       94 </v>
   <v type="int" >       12       14       24       88       94 </v>
   <v type="int" >       12       23       24       93       94 </v>
   <v type="int" >       12       24       87       93       94 </v>
   <v type="int" >       12       24       87       88       94 </v>
   <v type="int" >       12        7       13       13       14 </v>
   <v type="int" >       12        6        7       13       14 </v>
   <v type="int" >       12        6       12       13       14 </v>
   <v type="int" >       12       13       13       14       94 </v>
   <v type="int" >       12       13       14       88       94 </v>
   <v type="int" >       12       12       13       14       88 </v>
   <v type="int" >       12       40       41       43       95 </v>
   <v type="int" >       12       41       43       90       95 </v>
   <v type="int" >       12       43       89       90       95 </v>
   <v type="int" >       12       36       40       41       96 </v>
   <v type="int" >       12       36       37       41       96 </v>
   <v type="int" >       12       37       41       91       96 </v>
   <v type="int" >       12       40       41       95       96 </v>
   <v type="int" >       12       41       90       95       96 </v>
   <v type="int" >       12       41       90       91       96 </v>
   <v type="int" >       12       30       36       37       97 </v>
   <v type="int" >       12       30       31       37       97 </v>
   <v type="int" >       12       31       37       92       97 </v>
   <v type="int" >       12       36       37       96       97 </v>
   <v type="int" >       12       37       91       96       97 </v>
   <v type="int" >       12       37       91       92       97 </v>
   <v type="int" >       12       22       30       31       98 </v>
   <v type="int" >       12       22       23       31       98 </v>
   <v type="int" >       12       23       31       93       98 </v>
   <v type="int" >       12       30       31       97       98 </v>
   <v type="int" >       12       31       92       97       98 </v>
   <v type="int" >       12       31       92       93       98 </v>
   <v type="int" >       12       12       22       23       88 </v>
   <v type="int" >       12       12       13       23       88 </v>
   <v type="int" >       12       13       23       88       94 </v>
   <v type="int" >       12       22       23       88       98 </v>
   <v type="int" >       12       23       88       93       98 </v>
   <v type="int" >       12       23       88       93       94 </v>
   <v type="int" >       12       35       36       40       99 </v>
   <v type="int" >       12       36       40       96       99 </v>
   <v type="int" >       12       40       95       96       99 </v>
   <v type="int" >       12       29       35       36      100 </v>
   <v type="int" >       12       29       30       36      100 </v>
   <v type="int" >       12       30       36       97      100 </v>
   <v type="int" >       12       35       36       99      100 </v>
   <v type="int" >       12       36       96       99      100 </v>
   <v type="int" >       12       36       96       97      100 </v>
   <v type="int" >       12       21       29       30      101 </v>
   <v type="int" >       12       21       22       30      101 </v>
   <v type="int" >       12       22       30       98      101 </v>
   <v type="int" >       12       29       30      100      101 </v>
   <v type="int" >       12       30       97      100      101 </v>
   <v type="int" >       12       30       97       98      101 </v>
   <v type="int" >       12       11       21       22       81 </v>
   <v type="int" >       12       11       12       22       81 </v>
   <v type="int" >       12       12       22       81       88 </v>
   <v type="int" >       12       21       22       81      101 </v>
   <v type="int" >       12       22       81       98      101 </v>
   <v type="int" >       12       22       81       88       98 </v>
   <v type="int" >       12       28       29       35      102 </v>
   <v type="int" >       12       29       35      100      102 </v>
   <v type="int" >       12       35       99      100      102 </v>
   <v type="int" >       12       20       28       29      103 </v>
   <v type="int" >       12       20       21       29      103 </v>
   <v type="int" >       12       21       29      101      103 </v>
   <v type="int" >       12       28       29      102      103 </v>
   <v type="int" >       12       29      100      102      103 </v>
   <v type="int" >       12       29      100      101      103 </v>
   <v type="int" >       12       10       20       21       73 </v>
   <v type="int" >       12       10       11       21       73 </v>
   <v type="int" >       12       11       21       73       81 </v>
   <v type="int" >       12       20       21       73      103 </v>
   <v type="int" >       12       21       73      101      103 </v>
   <v type="int" >       12       21       73       81      101 </v>
   <v type="int" >       12       19       20       28      104 </v>
   <v type="int" >       12       20       28      103      104 </v>
   <v type="int" >       12       28      102      103      104 </v>
   <v type="int" >       12        9       19       20       64 </v>
   <v type="int" >       12        9       10       20       64 </v>
   <v type="int" >       12       10       20       64       73 </v>
   <v type="int" >       12       19       20       64      104 </v>
   <v type="int" >       12       20       64      103      104 </v>
   <v type="int" >       12       20       64       73      103 </v>
   <v type="int" >       12        8        9       19       54 </v>
   <v type="int" >       12        9       19       54       64 </v>
   <v type="int" >       12       19       54       64      104 </v>
   <v type="int" >       12       44       45       55      105 </v>
   <v type="int" >       12       45       55       56      106 </v>
   <v type="int" >       12       45       46       56      106 </v>
   <v type="int" >       12       45       55      105      106 </v>
   <v type="int" >       12       46       56       57      107 </v>
   <v type="int" >       12       46       47       57      107 </v>
   <v type="int" >       12       46       56      106      107 </v>
   <v type="int" >       12       47       57       58      108 </v>
   <v type="int" >       12       47       48       58      108 </v>
   <v type="int" >       12       47       57      107      108 </v>
   <v type="int" >       12       48       58       59      109 </v>
   <v type="int" >       12       48       49       59      109 </v>
   <v type="int" >       12       48       58      108      109 </v>
   <v type="int" >       12       49       59       60      110 </v>
   <v type="int" >       12       49       50       60      110 </v>
   <v type="int" >       12       49       59      109      110 </v>
   <v type="int" >       12       50       60       61      111 </v>
   <v type="int" >       12       50       51       61      111 </v>
   <v type="int" >       12       50       60      110      111 </v>
   <v type="int" >       12       51       61       62      112 </v>
   <v type="int" >       12       51       52       62      112 </v>
   <v type="int" >       12       51       61      111      112 </v>
   <v type="int" >       12       52       62       63      113 </v>
   <v type="int" >       12       52       53       63      113 </v>
   <v type="int" >       12       52       62      112      113 </v>
   <v type="int" >       12       53       63       64      104 </v>
   <v type="int" >       12       53       54       64      104 </v>
   <v type="int" >       12       53       63      104      113 </v>
   <v type="int" >       12       55       56       65      114 </v>
   <v type="int" >       12       55       56      106      114 </v>
   <v type="int" >       12       55      105      106      114 </v>
   <v type="int" >       12       56       65       66      115 </v>
   <v type="int" >       12       56       57       66      115 </v>
   <v type="int" >       12       56       57      107      115 </v>
   <v type="int" >       12       56       65      114      115 </v>
   <v type="int" >       12       56      106      114      115 </v>
   <v type="int" >       12       56      106      107      115 </v>
   <v type="int" >       12       57       66       67      116 </v>
   <v type="int" >       12       57       58       67      116 </v>
   <v type="int" >       12       57       58      108      116 </v>
   <v type="int" >       12       57       66      115      116 </v>
   <v type="int" >       12       57      107      115      116 </v>
   <v type="int" >       12       57      107      108      116 </v>
   <v type="int" >       12       58       67       68      117 </v>
   <v type="int" >       12       58       59       68      117 </v>
   <v type="int" >       12       58       59      109      117 </v>
   <v type="int" >       12       58       67      116      117 </v>
   <v type="int" >       12       58      108      116      117 </v>
   <v type="int" >       12       58      108      109      117 </v>
   <v type="int" >       12       59       68       69      118 </v>
   <v type="int" >       12       59       60       69      118 </v>
   <v type="int" >       12       59       60      110      118 </v>
   <v type="int" >       12       59       68      117      118 </v>
   <v type="int" >       12       59      109      117      118 </v>
   <v type="int" >       12       59      109      110      118 </v>
   <v type="int" >       12       60       69       70      119 </v>
   <v type="int" >       12       60       61       70      119 </v>
   <v type="int" >       12       60       61      111      119 </v>
   <v type="int" >       12       60       69      118      119 </v>
   <v type="int" >       12       60      110      118      119 </v>
   <v type="int" >       12       60      110      111      119 </v>
   <v type="int" >       12       61       70       71      120 </v>
   <v type="int" >       12       61       62       71      120 </v>
   <v type="int" >       12       61       62      112      120 </v>
   <v type="int" >       12       61       70      119      120 </v>
   <v type="int" >       12       61      111      119      120 </v>
   <v type="int" >       12       61      111      112      120 </v>
   <v type="int" >       12       62       71       72      121 </v>
   <v type="int" >       12       62       63       72      121 </v>
   <v type="int" >       12       62       63      113      121 </v>
   <v type="int" >       12       62       71      120      121 </v>
   <v type="int" >       12       62      112      120      121 </v>
   <v type="int" >       12       62      112      113      121 </v>
   <v type="int" >       12       63       72       73      103 </v>
   <v type="int" >       12       63       64       73      103 </v>
   <v type="int" >       12       63       64      103      104 </v>
   <v type="int" >       12       63       72      103      121 </v>
   <v type="int" >       12       63      103      113      121 </v>
   <v type="int" >       12       63      103      104      113 </v>
   <v type="int" >       12       65       66       74      122 </v>
   <v type="int" >       12       65       66      115      122 </v>
   <v type="int" >       12       65      114      115      122 </v>
   <v type="int" >       12       66       74       75      123 </v>
   <v type="int" >       12       66       67       75      123 </v>
   <v type="int" >       12       66       67      116      123 </v>
   <v type="int" >       12       66       74      122      123 </v>
   <v type="int" >       12       66      115      122      123 </v>
   <v type="int" >       12       66      115      116      123 </v>
   <v type="int" >       12       67       75       76      124 </v>
   <v type="int" >       12       67       68       76      124 </v>
   <v type="int" >       12       67       68      117      124 </v>
   <v type="int" >       12       67       75      123      124 </v>
   <v type="int" >       12       67      116      123      124 </v>
   <v type="int" >       12       67      116      117      124 </v>
   <v type="int" >       12       68       76       77      125 </v>
   <v type="int" >       12       68       69       77      125 </v>
   <v type="int" >       12       68       69      118      125 </v>
   <v type="int" >       12       68       76      124      125 </v>
   <v type="int" >       12       68      117      124      125 </v>
   <v type="int" >       12       68      117      118      125 </v>
   <v type="int" >       12       69       77       78      126 </v>
   <v type="int" >       12       69       70       78      126 </v>
   <v type="int" >       12       69       70      119      126 </v>
   <v type="int" >       12       69       77      125      126 </v>
   <v type="int" >       12       69      118      125      126 </v>
   <v type="int" >       12       69      118      119      126 </v>
   <v type="int" >       12       70       78       79      127 </v>
   <v type="int" >       12       70       71       79      127 </v>
   <v type="int" >       12       70       71      120      127 </v>
   <v type="int" >       12       70       78      126      127 </v>
   <v type="int" >       12       70      119      126      127 </v>
   <v type="int" >       12       70      119      120      127 </v>
   <v type="int" >       12       71       79       80      128 </v>
   <v type="int" >       12       71       72       80      128 </v>
   <v type="int" >       12       71       72      121      128 </v>
   <v type="int" >       12       71       79      127      128 </v>
   <v type="int" >       12       71      120      127      128 </v>
   <v type="int" >       12       71      120      121      128 </v>
   <v type="int" >       12       72       80       81      101 </v>
   <v type="int" >       12       72       73       81      101 </v>
   <v type="int" >       12       72       73      101      103 </v>
   <v type="int" >       12       72       80      101      128 </v>
   <v type="int" >       12       72      101      121      128 </v>
   <v type="int" >       12       72      101      103      121 </v>
   <v type="int" >       12       74       75       82      129 </v>
   <v type="int" >       12       74       75      123      129 </v>
   <v type="int" >       12       74      122      123      129 </v>
   <v type="int" >       12       75       82       83      130 </v>
   <v type="int" >       12       75       76       83      130 </v>
   <v type="int" >       12       75       76      124      130 </v>
   <v type="int" >       12       75       82      129      130 </v>
   <v type="int" >       12       75      123      129      130 </v>
   <v type="int" >       12       75      123      124      130 </v>
   <v type="int" >       12       76       83       84      131 </v>
   <v type="int" >       12       76       77       84      131 </v>
   <v type="int" >       12       76       77      125      131 </v>
   <v type="int" >       12       76       83      130      131 </v>
   <v type="int" >       12       76      124      130      131 </v>
   <v type="int" >       12       76      124      125      131 </v>
   <v type="int" >       12       77       84       85      132 </v>
   <v type="int" >       12       77       78       85      132 </v>
   <v type="int" >       12       77       78      126      132 </v>
   <v type="int" >       12       77       84      131      132 </v>
   <v type="int" >       12       77      125      131      132 </v>
   <v type="int" >       12       77      125      126      132 </v>
   <v type="int" >       12       78       85       86      133 </v>
   <v type="int" >       12       78       79       86      133 </v>
   <v type="int" >       12       78       79      127      133 </v>
   <v type="int" >       12       78       85      132      133 </v>
   <v type="int" >       12       78      126      132      133 </v>
   <v type="int" >       12       78      126      127      133 </v>
   <v type="int" >       12       79       86       87      134 </v>
   <v type="int" >       12       79       80       87      134 </v>
   <v type="int" >       12       79       80      128      134 </v>
   <v type="int" >       12       79       86      133      134 </v>
   <v type="int" >       12       79      127      133      134 </v>
   <v type="int" >       12       79      127      128      134 </v>
   <v type="int" >       12       80       87       88       98 </v>
   <v type="int" >       12       80       81       88       98 </v>
   <v type="int" >       12       80       81       98      101 </v>
   <v type="int" >       12       80       87       98      134 </v>
   <v type="int" >       12       80       98      128      134 </v>
   <v type="int" >       12       80       98      101      128 </v>
   <v type="int" >       12       82       83       89      135 </v>
   <v type="int" >       12       82       83      130      135 </v>
   <v type="int" >       12       82      129      130      135 </v>
   <v type="int" >       12       83       89       90      136 </v>
   <v type="int" >       12       83       84       90      136 </v>
   <v type="int" >       12       83       84      131      136 </v>
   <v type="int" >       12       83       89      135      136 </v>
   <v type="int" >       12       83      130      135      136 </v>
   <v type="int" >       12       83      130      131      136 </v>
   <v type="int" >       12       84       90       91      137 </v>
   <v type="int" >       12       84       85       91      137 </v>
   <v type="int" >       12       84       85      132      137 </v>
   <v type="int" >       12       84       90      136      137 </v>
   <v type="int" >       12       84      131      136      137 </v>
   <v type="int" >       12       84      131      132      137 </v>
   <v type="int" >       12       85       91       92      138 </v>
   <v type="int" >       12       85       86       92      138 </v>
   <v type="int" >       12       85       86      133      138 </v>
   <v type="int" >       12       85       91      137      138 </v>
   <v type="int" >       12       85      132      137      138 </v>
   <v type="int" >       12       85      132      133      138 </v>
   <v type="int" >       12       86       92       93      139 </v>
   <v type="int" >       12       86       87       93      139 </v>
   <v type="int" >       12       86       87      134      139 </v>
   <v type="int" >       12       86       92      138      139 </v>
   <v type="int" >       12       86      133      138      139 </v>
   <v type="int" >       12       86      133      134      139 </v>
   <v type="int" >       12       87       93       93       94 </v>
   <v type="int" >       12       87       88       93       94 </v>
   <v type="int" >       12       87       88       93       98 </v>
   <v type="int" >       12       87       93       93      139 </v>
   <v type="int" >       12       87       93      134      139 </v>
   <v type="int" >       12       87       93       98      134 </v>
   <v type="int" >       12       89       90       95      140 </v>
   <v type="int" >       12       89       90      136      140 </v>
   <v type="int" >       12       89      135      136      140 </v>
   <v type="int" >       12       90       95       96      141 </v>
   <v type="int" >       12       90       91       96      141 </v>
   <v type="int" >       12       90       91      137      141 </v>
   <v type="int" >       12       90       95      140      141 </v>
   <v type="int" >       12       90      136      140      141 </v>
   <v type="int" >       12       90      136      137      141 </v>
   <v type="int" >       12       91       96       97      142 </v>
   <v type="int" >       12       91       92       97      142 </v>
   <v type="int" >       12       91       92      138      142 </v>
   <v type="int" >       12       91       96      141      142 </v>
   <v type="int" >       12       91      137      141      142 </v>
   <v type="int" >       12       91      137      138      142 </v>
   <v type="int" >       12       92       97       98      134 </v>
   <v type="int" >       12       92       93       98      134 </v>
   <v type="int" >       12       92       93      134      139 </v>
   <v type="int" >       12       92       97      134      142 </v>
   <v type="int" >       12       92      134      138      142 </v>
   <v type="int" >       12       92      134      138      139 </v>
   <v type="int" >       12       95       96       99      143 </v>
   <v type="int" >       12       95       96      141      143 </v>
   <v type="int" >       12       95      140      141      143 </v>
   <v type="int" >       12       96       99      100      144 </v>
   <v type="int" >       12       96       97      100      144 </v>
   <v type="int" >       12       96       97      142      144 </v>
   <v type="int" >       12       96       99      143      144 </v>
   <v type="int" >       12       96      141      143      144 </v>
   <v type="int" >       12       96      141      142      144 </v>
   <v type="int" >       12       97      100      101      128 </v>
   <v type="int" >       12       97       98      101      128 </v>
   <v type="int" >       12       97       98      128      134 </v>
   <v type="int" >       12       97      100      128      144 </v>
   <v type="int" >       12       97      128      142      144 </v>
   <v type="int" >       12       97      128      134      142 </v>
   <v type="int" >       12       99      100      102      145 </v>
   <v type="int" >       12       99      100      144      145 </v>
   <v type="int" >       12       99      143      144      145 </v>
   <v type="int" >       12      100      102      103      121 </v>
   <v type="int" >       12      100      101      103      121 </v>
   <v type="int" >       12      100      101      121      128 </v>
   <v type="int" >       12      100      102      121      145 </v>
   <v type="int" >       12      100      121      144      145 </v>
   <v type="int" >       12      100      121      128      144 </v>
   <v type="int" >       12      102      103      104      113 </v>
   <v type="int" >       12      102      103      113      121 </v>
   <v type="int" >       12      102      113      121      145 </v>
   <v type="int" >       12      105      106      114      146 </v>
   <v type="int" >       12      106      114      115      147 </v>
   <v type="int" >       12      106      107      115      147 </v>
   <v type="int" >       12      106      114      146      147 </v>
   <v type="int" >       12      107      115      116      148 </v>
   <v type="int" >       12      107      108      116      148 </v>
   <v type="int" >       12      107      115      147      148 </v>
   <v type="int" >       12      108      116      117      149 </v>
   <v type="int" >       12      108      109      117      149 </v>
   <v type="int" >       12      108      116      148      149 </v>
   <v type="int" >       12      109      117      118      150 </v>
   <v type="int" >       12      109      110      118      150 </v>
   <v type="int" >       12      109      117      149      150 </v>
   <v type="int" >       12      110      118      119      151 </v>
   <v type="int" >       12      110      111      119      151 </v>
   <v type="int" >       12      110      118      150      151 </v>
   <v type="int" >       12      111      119      120      152 </v>
   <v type="int" >       12      111      112      120      152 </v>
   <v type="int" >       12      111      119      151      152 </v>
   <v type="int" >       12      112      120      121      145 </v>
   <v type="int" >       12      112      113      121      145 </v>
   <v type="int" >       12      112      120      145      152 </v>
   <v type="int" >       12      114      115      122      153 </v>
   <v type="int" >       12      114      115      147      153 </v>
   <v type="int" >       12      114      146      147      153 </v>
   <v type="int" >       12      115      122      123      154 </v>
   <v type="int" >       12      115      116      123      154 </v>
   <v type="int" >       12      115      116      148      154 </v>
   <v type="int" >       12      115      122      153      154 </v>
   <v type="int" >       12      115      147      153      154 </v>
   <v type="int" >       12      115      147      148      154 </v>
   <v type="int" >       12      116      123      124      155 </v>
   <v type="int" >       12      116      117      124      155 </v>
   <v type="int" >       12      116      117      149      155 </v>
   <v type="int" >       12      116      123      154      155 </v>
   <v type="int" >       12      116      148      154      155 </v>
   <v type="int" >       12      116      148      149      155 </v>
   <v type="int" >       12      117      124      125      156 </v>
   <v type="int" >       12      117      118      125      156 </v>
   <v type="int" >       12      117      118      150      156 </v>
   <v type="int" >       12      117      124      155      156 </v>
   <v type="int" >       12      117      149      155      156 </v>
   <v type="int" >       12      117      149      150      156 </v>
   <v type="int" >       12      118      125      126      157 </v>
   <v type="int" >       12      118      119      126      157 </v>
   <v type="int" >       12      118      119      151      157 </v>
   <v type="int" >       12      118      125      156      157 </v>
   <v type="int" >       12      118      150      156      157 </v>
   <v type="int" >       12      118      150      151      157 </v>
   <v type="int" >       12      119      126      127      158 </v>
   <v type="int" >       12      119      120      127      158 </v>
   <v type="int" >       12      119      120      152      158 </v>
   <v type="int" >       12      119      126      157      158 </v>
   <v type="int" >       12      119      151      157      158 </v>
   <v type="int" >       12      119      151      152      158 </v>
   <v type="int" >       12      120      127      128      144 </v>
   <v type="int" >       12      120      121      128      144 </v>
   <v type="int" >       12      120      121      144      145 </v>
   <v type="int" >       12      120      127      144      158 </v>
   <v type="int" >       12      120      144      152      158 </v>
   <v type="int" >       12      120      144      145      152 </v>
   <v type="int" >       12      122      123      129      159 </v>
   <v type="int" >       12      122      123      154      159 </v>
   <v type="int" >       12      122      153      154      159 </v>
   <v type="int" >       12      123      129      130      160 </v>
   <v type="int" >       12      123      124      130      160 </v>
   <v type="int" >       12      123      124      155      160 </v>
   <v type="int" >       12      123      129      159      160 </v>
   <v type="int" >       12      123      154      159      160 </v>
   <v type="int" >       12      123      154      155      160 </v>
   <v type="int" >       12      124      130      131      161 </v>
   <v type="int" >       12      124      125      131      161 </v>
   <v type="int" >       12      124      125      156      161 </v>
   <v type="int" >       12      124      130      160      161 </v>
   <v type="int" >       12      124      155      160      161 </v>
   <v type="int" >       12      124      155      156      161 </v>
   <v type="int" >       12      125      131      132      162 </v>
   <v type="int" >       12      125      126      132      162 </v>
   <v type="int" >       12      125      126      157      162 </v>
   <v type="int" >       12      125      131      161      162 </v>
   <v type="int" >       12      125      156      161      162 </v>
   <v type="int" >       12      125      156      157      162 </v>
   <v type="int" >       12      126      132      133      163 </v>
   <v type="int" >       12      126      127      133      163 </v>
   <v type="int" >       12      126      127      158      163 </v>
   <v type="int" >       12      126      132      162      163 </v>
   <v type="int" >       12      126      157      162      163 </v>
   <v type="int" >       12      126      157      158      163 </v>
   <v type="int" >       12      127      133      134      142 </v>
   <v type="int" >       12      127      128      134      142 </v>
   <v type="int" >       12      127      128      142      144 </v>
   <v type="int" >       12      127      133      142      163 </v>
   <v type="int" >       12      127      142      158      163 </v>
   <v type="int" >       12      127      142      144      158 </v>
   <v type="int" >       12      129      130      135      164 </v>
   <v type="int" >       12      129      130      160      164 </v>
   <v type="int" >       12      129      159      160      164 </v>
   <v type="int" >       12      130      135      136      165 </v>
   <v type="int" >       12      130      131      136      165 </v>
   <v type="int" >       12      130      131      161      165 </v>
   <v type="int" >       12      130      135      164      165 </v>
   <v type="int" >       12      130      160      164      165 </v>
   <v type="int" >       12      130      160      161      165 </v>
   <v type="int" >       12      131      136      137      166 </v>
   <v type="int" >       12      131      132      137      166 </v>
   <v type="int" >       12      131      132      162      166 </v>
   <v type="int" >       12      131      136      165      166 </v>
   <v type="int" >       12      131      161      165      166 </v>
   <v type="int" >       12      131      161      162      166 </v>
   <v type="int" >       12      132      137      138      167 </v>
   <v type="int" >       12      132      133      138      167 </v>
   <v type="int" >       12      132      133      163      167 </v>
   <v type="int" >       12      132      137      166      167 </v>
   <v type="int" >       12      132      162      166      167 </v>
   <v type="int" >       12      132      162      163      167 </v>
   <v type="int" >       12      133      138      138      139 </v>
   <v type="int" >       12      133      134      138      139 </v>
   <v type="int" >       12      133      134      138      142 </v>
   <v type="int" >       12      133      138      138      167 </v>
   <v type="int" >       12      133      138      163      167 </v>
   <v type="int" >       12      133      138      142      163 </v>
   <v type="int" >       12      135      136      140      168 </v>
   <v type="int" >       12      135      136      165      168 </v>
   <v type="int" >       12      135      164      165      168 </v>
   <v type="int" >       12      136      140      141      169 </v>
   <v type="int" >       12      136      137      141      169 </v>
   <v type="int" >       12      136      137      166      169 </v>
   <v type="int" >       12      136      140      168      169 </v>
   <v type="int" >       12      136      165      168      169 </v>
   <v type="int" >       12      136      165      166      169 </v>
   <v type="int" >       12      137      141      142      163 </v>
   <v type="int" >       12      137      138      142      163 </v>
   <v type="int" >       12      137      138      163      167 </v>
   <v type="int" >       12      137      141      163      169 </v>
   <v type="int" >       12      137      163      166      169 </v>
   <v type="int" >       12      137      163      166      167 </v>
   <v type="int" >       12      140      141      143      170 </v>
   <v type="int" >       12      140      141      169      170 </v>
   <v type="int" >       12      140      168      169      170 </v>
   <v type="int" >       12      141      143      144      158 </v>
   <v type="int" >       12      141      142      144      158 </v>
   <v type="int" >       12      141      142      158      163 </v>
   <v type="int" >       12      141      143      158      170 </v>
   <v type="int" >       12      141      158      169      170 </v>
   <v type="int" >       12      141      158      163      169 </v>
   <v type="int" >       12      143      144      145      152 </v>
   <v type="int" >       12      143      144      152      158 </v>
   <v type="int" >       12      143      152      158      170 </v>
   <v type="int" >       12      146      147      153      171 </v>
   <v type="int" >       12      147      153      154      172 </v>
   <v type="int" >       12      147      148      154      172 </v>
   <v type="int" >       12      147      153      171      172 </v>
   <v type="int" >       12      148      154      155      173 </v>
   <v type="int" >       12      148      149      155      173 </v>
   <v type="int" >       12      148      154      172      173 </v>
   <v type="int" >       12      149      155      156      174 </v>
   <v type="int" >       12      149      150      156      174 </v>
   <v type="int" >       12      149      155      173      174 </v>
   <v type="int" >       12      150      156      157      175 </v>
   <v type="int" >       12      150      151      157      175 </v>
   <v type="int" >       12      150      156      174      175 </v>
   <v type="int" >       12      151      157      158      170 </v>
   <v type="int" >       12      151      152      158      170 </v>
   <v type="int" >       12      151      157      170      175 </v>
   <v type="int" >       12      153      154      159      176 </v>
   <v type="int" >       12      153      154      172      176 </v>
   <v type="int" >       12      153      171      172      176 </v>
   <v type="int" >       12      154      159      160      177 </v>
   <v type="int" >       12      154      155      160      177 </v>
   <v type="int" >       12      154      155      173      177 </v>
   <v type="int" >       12      154      159      176      177 </v>
   <v type="int" >       12      154      172      176      177 </v>
   <v type="int" >       12      154      172      173      177 </v>
   <v type="int" >       12      155      160      161      178 </v>
   <v type="int" >       12      155      156      161      178 </v>
   <v type="int" >       12      155      156      174      178 </v>
   <v type="int" >       12      155      160      177      178 </v>
   <v type="int" >       12      155      173      177      178 </v>
   <v type="int" >       12      155      173      174      178 </v>
   <v type="int" >       12      156      161      162      179 </v>
   <v type="int" >       12      156      157      162      179 </v>
   <v type="int" >       12      156      157      175      179 </v>
   <v type="int" >       12      156      161      178      179 </v>
   <v type="int" >       12      156      174      178      179 </v>
   <v type="int" >       12      156      174      175      179 </v>
   <v type="int" >       12      157      162      163      169 </v>
   <v type="int" >       12      157      158      163      169 </v>
   <v type="int" >       12      157      158      169      170 </v>
   <v type="int" >       12      157      162      169      179 </v>
   <v type="int" >       12      157      169      175      179 </v>
   <v type="int" >       12      157      169      170      175 </v>
   <v type="int" >       12      159      160      164      180 </v>
   <v type="int" >       12      159      160      177      180 </v>
   <v type="int" >       12      159      176      177      180 </v>
   <v type="int" >       12      160      164      165      181 </v>
   <v type="int" >       12      160      161      165      181 </v>
   <v type="int" >       12      160      161      178      181 </v>
   <v type="int" >       12      160      164      180      181 </v>
   <v type="int" >       12      160      177      180      181 </v>
   <v type="int" >       12      160      177      178      181 </v>
   <v type="int" >       12      161      165      166      182 </v>
   <v type="int" >       12      161      162      166      182 </v>
   <v type="int" >       12      161      162      179      182 </v>
   <v type="int" >       12      161      165      181      182 </v>
   <v type="int" >       12      161      178      181      182 </v>
   <v type="int" >       12      161      178      179      182 </v>
   <v type="int" >       12      162      166      166      167 </v>
   <v type="int" >       12      162      163      166      167 </v>
   <v type="int" >       12      162      163      166      169 </v>
   <v type="int" >       12      162      166      166      182 </v>
   <v type="int" >       12      162      166      179      182 </v>
   <v type="int" >       12      162      166      169      179 </v>
   <v type="int" >       12      164      165      168      183 </v>
   <v type="int" >       12      164      165      181      183 </v>
   <v type="int" >       12      164      180      181      183 </v>
   <v type="int" >       12      165      168      169      179 </v>
   <v type="int" >       12      165      166      169      179 </v>
   <v type="int" >       12      165      166      179      182 </v>
   <v type="int" >       12      165      168      179      183 </v>
   <v type="int" >       12      165      179      181      183 </v>
   <v type="int" >       12      165      179      181      182 </v>
   <v type="int" >       12      168      169      170      175 </v>
   <v type="int" >       12      168      169      175      179 </v>
   <v type="int" >       12      168      175      179      183 </v>
   <v type="int" >       12      171      172      176      184 </v>
   <v type="int" >       12      172      176      177      185 </v>
   <v type="int" >       12      172      173      177      185 </v>
   <v type="int" >       12      172      176      184      185 </v>
   <v type="int" >       12      173      177      178      186 </v>
   <v type="int" >       12      173      174      178      186 </v>
   <v type="int" >       12      173      177      185      186 </v>
   <v type="int" >       12      174      178      179      183 </v>
   <v type="int" >       12      174      175      179      183 </v>
   <v type="int" >       12      174      178      183      186 </v>
   <v type="int" >       12      176      177      180      187 </v>
   <v type="int" >       12      176      177      185      187 </v>
   <v type="int" >       12      176      184      185      187 </v>
   <v type="int" >       12      177      180      181      188 </v>
   <v type="int" >       12      177      178      181      188 </v>
   <v type="int" >       12      177      178      186      188 </v>
   <v type="int" >       12      177      180      187      188 </v>
   <v type="int" >       12      177      185      187      188 </v>
   <v type="int" >       12      177      185      186      188 </v>
   <v type="int" >       12      178      181      181      182 </v>
   <v type="int" >       12      178      179      181      182 </v>
   <v type="int" >       12      178      179      181      183 </v>
   <v type="int" >       12      178      181      181      188 </v>
   <v type="int" >       12      178      181      186      188 </v>
   <v type="int" >       12      178      181      183      186 </v>
   <v type="int" >       12      180      181      183      186 </v>
   <v type="int" >       12      180      181      186      188 </v>
   <v type="int" >       12      180      186      187      188 </v>
   <v type="int" >       12      184      185      187      189 </v>
   <v type="int" >       12      185      187      187      188 </v>
   <v type="int" >       12      185      186      187      188 </v>
   <v type="int" >       12      185      187      187      189 </v>
  </varray>
  <i name="volumeweight">      0.00009645 </i>
 </kpoints>
 <parameters>
  <separator name="general" >
   <i type="string" name="SYSTEM">unknown system</i>
   <i type="logical" name="LCOMPAT"> F  </i>
  </separator>
  <separator name="electronic" >
   <i type="string" name="PREC">accura</i>
   <i name="ENMAX">    400.00000000</i>
   <i name="ENAUG">    644.87300000</i>
   <i name="EDIFF">      0.00000100</i>
   <i type="int" name="IALGO">    38</i>
   <i type="int" name="IWAVPR">    10</i>
   <i type="int" name="NBANDS">    24</i>
   <i name="NELECT">     32.00000000</i>
   <i type="int" name="TURBO">     0</i>
[...]
       <r>   -5.9157    1.0000 </r>
       <r>   -5.9157    1.0000 </r>
       <r>   -3.2526    1.0000 </r>
       <r>   -3.2331    1.0000 </r>
       <r>   -3.2331    1.0000 </r>
       <r>   -2.1023    1.0000 </r>
       <r>    6.1502    1.0000 </r>
       <r>    6.1502    1.0000 </r>
       <r>    6.4788    1.0000 </r>
       <r>    6.4788    1.0000 </r>
       <r>    6.4945    1.0000 </r>
       <r>    6.8106    1.0000 </r>
       <r>    6.9037    1.0000 </r>
       <r>    6.9696    1.0000 </r>
       <r>   17.4761    0.0000 </r>
       <r>   17.4761    0.0000 </r>
       <r>   17.5007    0.0000 </r>
       <r>   17.9725    0.0000 </r>
       <r>   18.3780    0.0000 </r>
       <r>   18.4194    0.0000 </r>
       <r>   18.6075    0.0000 </r>
       <r>   18.6076    0.0000 </r>
      </set>
      <set comment="kpoint 187">
       <r>   -6.5177    1.0000 </r>
       <r>   -6.0331    1.0000 </r>
       <r>   -6.0135    1.0000 </r>
       <r>   -6.0135    1.0000 </r>
       <r>   -3.3723    1.0000 </r>
       <r>   -3.3701    1.0000 </r>
       <r>   -3.3701    1.0000 </r>
       <r>   -3.3497    1.0000 </r>
       <r>    6.5702    1.0000 </r>
       <r>    6.5702    1.0000 </r>
       <r>    6.6121    1.0000 </r>
       <r>    6.7691    1.0000 </r>
       <r>    6.8262    1.0000 </r>
       <r>    6.8262    1.0000 </r>
       <r>    6.9382    1.0000 </r>
       <r>    7.1450    1.0000 </r>
       <r>   17.5644    0.0000 </r>
       <r>   17.5644    0.0000 </r>
       <r>   17.6657    0.0000 </r>
       <r>   18.3052    0.0000 </r>
       <r>   18.3911    0.0000 </r>
       <r>   18.3944    0.0000 </r>
       <r>   18.3964    0.0000 </r>
       <r>   18.4918    0.0000 </r>
      </set>
      <set comment="kpoint 188">
       <r>   -6.4968    1.0000 </r>
       <r>   -6.4968    1.0000 </r>
       <r>   -6.2850    1.0000 </r>
       <r>   -5.7309    1.0000 </r>
       <r>   -3.5281    1.0000 </r>
       <r>   -3.4808    1.0000 </r>
       <r>   -2.7771    1.0000 </r>
       <r>   -2.7771    1.0000 </r>
       <r>    6.2001    1.0000 </r>
       <r>    6.5960    1.0000 </r>
       <r>    6.6534    1.0000 </r>
       <r>    6.6954    1.0000 </r>
       <r>    6.6954    1.0000 </r>
       <r>    6.7636    1.0000 </r>
       <r>    6.7636    1.0000 </r>
       <r>    6.9364    1.0000 </r>
       <r>   17.5634    0.0000 </r>
       <r>   17.5634    0.0000 </r>
       <r>   17.6479    0.0000 </r>
       <r>   18.2023    0.0000 </r>
       <r>   18.2155    0.0000 </r>
       <r>   18.3800    0.0000 </r>
       <r>   18.3802    0.0000 </r>
       <r>   18.6263    0.0000 </r>
      </set>
      <set comment="kpoint 189">
       <r>   -6.4011    1.0000 </r>
       <r>   -5.8465    1.0000 </r>
       <r>   -5.8465    1.0000 </r>
       <r>   -5.8465    1.0000 </r>
       <r>   -3.6480    1.0000 </r>
       <r>   -3.6480    1.0000 </r>
       <r>   -3.6480    1.0000 </r>
       <r>   -3.6031    1.0000 </r>
       <r>    6.7757    1.0000 </r>
       <r>    6.7757    1.0000 </r>
       <r>    6.7757    1.0000 </r>
       <r>    6.8529    1.0000 </r>
       <r>    6.8529    1.0000 </r>
       <r>    6.8529    1.0000 </r>
       <r>    7.1674    1.0000 </r>
       <r>    7.1674    1.0000 </r>
       <r>   17.5229    0.0000 </r>
       <r>   17.5229    0.0000 </r>
       <r>   17.5229    0.0000 </r>
       <r>   18.2952    0.0000 </r>
       <r>   18.2953    0.0000 </r>
       <r>   18.3901    0.0000 </r>
       <r>   18.3902    0.0000 </r>
       <r>   18.4087    0.0000 </r>
      </set>
     </set>
    </set>
   </array>
  </eigenvalues>
  <separator name="orbital magnetization" >
   <v name="MAGDIPOLOUT">      0.00000000      0.00000000      0.00000000</v>
  </separator>
  <dos>
   <i name="efermi">      9.79520009 </i>
   <total>
    <array>
     <dimension dim="1">gridpoints</dimension>
     <dimension dim="2">spin</dimension>
     <field>energy</field>
     <field>total</field>
     <field>integrated</field>
     <set>
      <set comment="spin 1">
       <r>   -13.3947     0.0000     0.0000 </r>
       <r>   -13.2727     0.0000     0.0000 </r>
       <r>   -13.1507     0.0000     0.0000 </r>
       <r>   -13.0288     0.0000     0.0000 </r>
       <r>   -12.9068     0.0000     0.0000 </r>
       <r>   -12.7848     0.0000     0.0000 </r>
       <r>   -12.6628     0.0000     0.0000 </r>
       <r>   -12.5409     0.0000     0.0000 </r>
       <r>   -12.4189     0.0000     0.0000 </r>
       <r>   -12.2969     0.0000     0.0000 </r>
       <r>   -12.1750     0.0000     0.0000 </r>
       <r>   -12.0530     0.0000     0.0000 </r>
       <r>   -11.9310     0.0000     0.0000 </r>
       <r>   -11.8090     0.0000     0.0000 </r>
       <r>   -11.6871     0.0361     0.0005 </r>
       <r>   -11.5651     0.1551     0.0151 </r>
       <r>   -11.4431     0.2412     0.0393 </r>
       <r>   -11.3212     0.2735     0.0703 </r>
       <r>   -11.1992     0.3212     0.1066 </r>
       <r>   -11.0772     0.3606     0.1487 </r>
       <r>   -10.9552     0.3902     0.1944 </r>
       <r>   -10.8333     0.4216     0.2438 </r>
       <r>   -10.7113     0.4597     0.2975 </r>
       <r>   -10.5893     0.4826     0.3551 </r>
       <r>   -10.4674     0.5061     0.4154 </r>
       <r>   -10.3454     0.5322     0.4787 </r>
       <r>   -10.2234     0.5605     0.5454 </r>
       <r>   -10.1014     0.5874     0.6154 </r>
       <r>    -9.9795     0.6069     0.6882 </r>
       <r>    -9.8575     0.6287     0.7636 </r>
       <r>    -9.7355     0.6538     0.8417 </r>
       <r>    -9.6136     0.6809     0.9231 </r>
       <r>    -9.4916     0.7108     1.0080 </r>
       <r>    -9.3696     0.7194     1.0955 </r>
       <r>    -9.2476     0.7340     1.1845 </r>
       <r>    -9.1257     0.7514     1.2749 </r>
       <r>    -9.0037     0.7696     1.3677 </r>
       <r>    -8.8817     0.7902     1.4627 </r>
       <r>    -8.7598     0.8140     1.5606 </r>
       <r>    -8.6378     0.8341     1.6612 </r>
       <r>    -8.5158     0.8500     1.7638 </r>
       <r>    -8.3938     0.8735     1.8690 </r>
       <r>    -8.2719     0.8941     1.9768 </r>
       <r>    -8.1499     0.9134     2.0870 </r>
       <r>    -8.0279     0.9328     2.1996 </r>
       <r>    -7.9060     0.9495     2.3143 </r>
       <r>    -7.7840     1.0228     2.4333 </r>
       <r>    -7.6620     1.1005     2.5633 </r>
       <r>    -7.5400     1.1104     2.6987 </r>
       <r>    -7.4181     1.0825     2.8327 </r>
       <r>    -7.2961     1.0312     2.9619 </r>
       <r>    -7.1741     1.0253     3.0867 </r>
       <r>    -7.0521     1.0548     3.2128 </r>
       <r>    -6.9302     1.0770     3.3432 </r>
       <r>    -6.8082     1.1021     3.4754 </r>
       <r>    -6.6862     1.1768     3.6142 </r>
       <r>    -6.5643     1.1884     3.7584 </r>
       <r>    -6.4423     1.2836     3.9081 </r>
       <r>    -6.3203     1.2684     4.0644 </r>
       <r>    -6.1983     1.3596     4.2300 </r>
       <r>    -6.0764     1.4110     4.3983 </r>
       <r>    -5.9544     1.5228     4.5761 </r>
       <r>    -5.8324     1.5488     4.7658 </r>
       <r>    -5.7105     1.5221     4.9557 </r>
       <r>    -5.5885     1.3888     5.1332 </r>
       <r>    -5.4665     1.4961     5.3065 </r>
       <r>    -5.3445     1.3999     5.4808 </r>
       <r>    -5.2226     1.4376     5.6526 </r>
       <r>    -5.1006     1.3317     5.8237 </r>
       <r>    -4.9786     1.2692     5.9819 </r>
       <r>    -4.8567     1.2319     6.1346 </r>
       <r>    -4.7347     1.1802     6.2813 </r>
       <r>    -4.6127     1.1556     6.4237 </r>
       <r>    -4.4907     1.1083     6.5618 </r>
       <r>    -4.3688     1.0795     6.6956 </r>
       <r>    -4.2468     1.2137     6.8342 </r>
       <r>    -4.1248     1.0737     6.9692 </r>
       <r>    -4.0029     1.0038     7.0971 </r>
       <r>    -3.8809     0.9559     7.2163 </r>
       <r>    -3.7589     0.9081     7.3299 </r>
       <r>    -3.6369     0.8876     7.4397 </r>
       <r>    -3.5150     0.9259     7.5485 </r>
       <r>    -3.3930     1.0262     7.6706 </r>
       <r>    -3.2710     1.0139     7.7926 </r>
       <r>    -3.1491     1.0658     7.9213 </r>
       <r>    -3.0271     0.9451     8.0447 </r>
       <r>    -2.9051     0.9332     8.1571 </r>
       <r>    -2.7831     0.9956     8.2801 </r>
       <r>    -2.6612     0.9288     8.3979 </r>
       <r>    -2.5392     0.9287     8.5092 </r>
       <r>    -2.4172     1.0575     8.6300 </r>
       <r>    -2.2953     1.2525     8.7710 </r>
       <r>    -2.1733     1.4822     8.9366 </r>
       <r>    -2.0513     1.7765     9.1338 </r>
       <r>    -1.9293     2.2004     9.3757 </r>
       <r>    -1.8074     2.6242     9.6728 </r>
       <r>    -1.6854     2.4443     9.9932 </r>
       <r>    -1.5634     2.5521    10.2946 </r>
       <r>    -1.4414     2.0544    10.5821 </r>
       <r>    -1.3195     1.8196    10.8182 </r>
       <r>    -1.1975     1.6882    11.0310 </r>
       <r>    -1.0755     1.5700    11.2296 </r>
       <r>    -0.9536     1.4750    11.4150 </r>
       <r>    -0.8316     1.4047    11.5905 </r>
       <r>    -0.7096     1.3646    11.7587 </r>
       <r>    -0.5876     1.3377    11.9237 </r>
       <r>    -0.4657     1.2993    12.0844 </r>
       <r>    -0.3437     1.2338    12.2397 </r>
       <r>    -0.2217     1.3069    12.3975 </r>
       <r>    -0.0998     1.1036    12.5354 </r>
       <r>     0.0222     1.0926    12.6692 </r>
       <r>     0.1442     1.0876    12.8022 </r>
       <r>     0.2662     1.0683    12.9340 </r>
       <r>     0.3881     0.9646    13.0589 </r>
       <r>     0.5101     1.1501    13.1816 </r>
       <r>     0.6321     1.5032    13.3429 </r>
       <r>     0.7540     1.8397    13.5476 </r>
       <r>     0.8760     2.1917    13.7883 </r>
       <r>     0.9980     2.1413    14.0594 </r>
       <r>     1.1200     2.2219    14.3297 </r>
       <r>     1.2419     2.1695    14.5922 </r>
       <r>     1.3639     2.1914    14.8583 </r>
       <r>     1.4859     2.2554    15.1295 </r>
       <r>     1.6078     1.9994    15.3950 </r>
       <r>     1.7298     1.3641    15.5955 </r>
       <r>     1.8518     1.4398    15.7655 </r>
       <r>     1.9738     1.7434    15.9639 </r>
       <r>     2.0957     2.0948    16.1960 </r>
       <r>     2.2177     2.3403    16.4692 </r>
       <r>     2.3397     2.3596    16.7653 </r>
       <r>     2.4616     2.3656    17.0548 </r>
       <r>     2.5836     2.2402    17.3330 </r>
       <r>     2.7056     2.3404    17.6109 </r>
       <r>     2.8276     2.6270    17.9105 </r>
       <r>     2.9495     2.7048    18.2392 </r>
       <r>     3.0715     2.9402    18.5788 </r>
       <r>     3.1935     2.8231    18.9579 </r>
       <r>     3.3155     2.3164    19.2606 </r>
       <r>     3.4374     2.6542    19.5856 </r>
       <r>     3.5594     2.6672    19.9167 </r>
       <r>     3.6814     2.8118    20.2426 </r>
       <r>     3.8033     3.3554    20.6223 </r>
       <r>     3.9253     3.7820    21.0591 </r>
       <r>     4.0473     3.3818    21.5085 </r>
       <r>     4.1693     3.1956    21.9029 </r>
       <r>     4.2912     2.8702    22.2764 </r>
       <r>     4.4132     2.7362    22.6105 </r>
       <r>     4.5352     2.8465    22.9534 </r>
       <r>     4.6571     2.8878    23.3078 </r>
       <r>     4.7791     2.7676    23.6505 </r>
       <r>     4.9011     2.9222    23.9987 </r>
       <r>     5.0231     2.9191    24.3560 </r>
       <r>     5.1450     3.0080    24.7156 </r>
       <r>     5.2670     3.0767    25.0859 </r>
       <r>     5.3890     2.9332    25.4548 </r>
       <r>     5.5109     2.8653    25.8091 </r>
       <r>     5.6329     2.4405    26.1351 </r>
       <r>     5.7549     2.3961    26.4235 </r>
       <r>     5.8769     2.5697    26.7229 </r>
       <r>     5.9988     2.6151    27.0348 </r>
       <r>     6.1208     2.7763    27.3633 </r>
       <r>     6.2428     2.8252    27.7115 </r>
       <r>     6.3647     2.7461    28.0488 </r>
       <r>     6.4867     2.5428    28.3721 </r>
       <r>     6.6087     2.6633    28.6850 </r>
       <r>     6.7307     2.6130    28.9981 </r>
       <r>     6.8526     2.1556    29.3165 </r>
       <r>     6.9746     1.9273    29.5554 </r>
       <r>     7.0966     2.0841    29.8045 </r>
       <r>     7.2185     1.7971    30.0483 </r>
       <r>     7.3405     1.5609    30.2509 </r>
       <r>     7.4625     1.4249    30.4324 </r>
       <r>     7.5845     1.3368    30.6007 </r>
       <r>     7.7064     1.2473    30.7577 </r>
       <r>     7.8284     1.1506    30.9051 </r>
       <r>     7.9504     1.0275    31.0375 </r>
       <r>     8.0723     0.9449    31.1570 </r>
       <r>     8.1943     0.8852    31.2682 </r>
       <r>     8.3163     0.8434    31.3734 </r>
       <r>     8.4383     0.7799    31.4731 </r>
       <r>     8.5602     0.6958    31.5630 </r>
       <r>     8.6822     0.6172    31.6428 </r>
       <r>     8.8042     0.5603    31.7139 </r>
       <r>     8.9262     0.5282    31.7817 </r>
       <r>     9.0481     0.4135    31.8391 </r>
       <r>     9.1701     0.3583    31.8849 </r>
       <r>     9.2921     0.3835    31.9309 </r>
       <r>     9.4140     0.2106    31.9680 </r>
       <r>     9.5360     0.1213    31.9879 </r>
       <r>     9.6580     0.0161    31.9997 </r>
       <r>     9.7800     0.0000    32.0000 </r>
       <r>     9.9019     0.0000    32.0000 </r>
       <r>    10.0239     0.0000    32.0000 </r>
       <r>    10.1459     0.0000    32.0000 </r>
       <r>    10.2678     0.0000    32.0000 </r>
       <r>    10.3898     0.0000    32.0000 </r>
       <r>    10.5118     0.0000    32.0000 </r>
       <r>    10.6338     0.0000    32.0000 </r>
       <r>    10.7557     0.0000    32.0000 </r>
       <r>    10.8777     0.0000    32.0000 </r>
       <r>    10.9997     0.0000    32.0000 </r>
       <r>    11.1216     0.0000    32.0000 </r>
       <r>    11.2436     0.0000    32.0000 </r>
       <r>    11.3656     0.0000    32.0000 </r>
       <r>    11.4876     0.0000    32.0000 </r>
       <r>    11.6095     0.0000    32.0000 </r>
       <r>    11.7315     0.0000    32.0000 </r>
       <r>    11.8535     0.0000    32.0000 </r>
       <r>    11.9754     0.0000    32.0000 </r>
       <r>    12.0974     0.0000    32.0000 </r>
       <r>    12.2194     0.0000    32.0000 </r>
       <r>    12.3414     0.0000    32.0000 </r>
       <r>    12.4633     0.0000    32.0000 </r>
       <r>    12.5853     0.0000    32.0000 </r>
       <r>    12.7073     0.0000    32.0000 </r>
       <r>    12.8292     0.0000    32.0000 </r>
       <r>    12.9512     0.0000    32.0000 </r>
       <r>    13.0732     0.0000    32.0000 </r>
       <r>    13.1952     0.0000    32.0000 </r>
       <r>    13.3171     0.0000    32.0000 </r>
       <r>    13.4391     0.0000    32.0000 </r>
       <r>    13.5611     0.0000    32.0000 </r>
       <r>    13.6830     0.0000    32.0000 </r>
       <r>    13.8050     0.0145    32.0002 </r>
       <r>    13.9270     0.1589    32.0097 </r>
       <r>    14.0490     0.4529    32.0453 </r>
       <r>    14.1709     0.5462    32.1221 </r>
       <r>    14.2929     0.6393    32.1955 </r>
       <r>    14.4149     0.6791    32.2739 </r>
       <r>    14.5369     0.8629    32.3651 </r>
       <r>    14.6588     0.9338    32.4777 </r>
       <r>    14.7808     1.0834    32.6004 </r>
       <r>    14.9028     1.3911    32.7509 </r>
       <r>    15.0247     1.5338    32.9349 </r>
       <r>    15.1467     1.4808    33.1197 </r>
       <r>    15.2687     1.4708    33.2993 </r>
       <r>    15.3907     1.5247    33.4824 </r>
       <r>    15.5126     1.5633    33.6692 </r>
       <r>    15.6346     1.7820    33.8711 </r>
       <r>    15.7566     1.9640    34.1014 </r>
       <r>    15.8785     2.1080    34.3506 </r>
       <r>    16.0005     2.1308    34.6088 </r>
       <r>    16.1225     2.1563    34.8731 </r>
       <r>    16.2445     2.1680    35.1392 </r>
       <r>    16.3664     2.1680    35.4007 </r>
       <r>    16.4884     2.2577    35.6714 </r>
       <r>    16.6104     2.3627    35.9528 </r>
       <r>    16.7323     2.5308    36.2505 </r>
       <r>    16.8543     2.6972    36.5702 </r>
       <r>    16.9763     2.8687    36.9075 </r>
       <r>    17.0983     3.1583    37.2754 </r>
       <r>    17.2202     3.1661    37.6651 </r>
       <r>    17.3422     3.3057    38.0575 </r>
       <r>    17.4642     3.7070    38.4815 </r>
       <r>    17.5861     4.5821    39.0088 </r>
       <r>    17.7081     3.6001    39.5300 </r>
       <r>    17.8301     3.4185    39.9469 </r>
       <r>    17.9521     2.8250    40.3109 </r>
       <r>    18.0740     3.0322    40.6701 </r>
       <r>    18.1960     3.3297    41.0536 </r>
       <r>    18.3180     3.8984    41.4856 </r>
       <r>    18.4399     3.9811    41.9826 </r>
       <r>    18.5619     4.0037    42.4659 </r>
       <r>    18.6839     3.7679    42.9515 </r>
       <r>    18.8059     3.5446    43.3938 </r>
       <r>    18.9278     3.4186    43.8230 </r>
       <r>    19.0498     3.1359    44.2208 </r>
       <r>    19.1718     2.8375    44.5820 </r>
       <r>    19.2938     2.7775    44.9235 </r>
       <r>    19.4157     2.7696    45.2627 </r>
       <r>    19.5377     2.7048    45.5988 </r>
       <r>    19.6597     2.6646    45.9228 </r>
       <r>    19.7816     2.8142    46.2555 </r>
       <r>    19.9036     2.8966    46.6047 </r>
       <r>    20.0256     2.6860    46.9365 </r>
       <r>    20.1476     2.3182    47.2439 </r>
       <r>    20.2695     1.8213    47.4958 </r>
       <r>    20.3915     1.3457    47.6950 </r>
       <r>    20.5135     0.6861    47.8126 </r>
       <r>    20.6354     0.4081    47.8788 </r>
       <r>    20.7574     0.2831    47.9209 </r>
       <r>    20.8794     0.1853    47.9490 </r>
       <r>    21.0014     0.1313    47.9682 </r>
       <r>    21.1233     0.0891    47.9815 </r>
       <r>    21.2453     0.0600    47.9904 </r>
       <r>    21.3673     0.0395    47.9965 </r>
       <r>    21.4892     0.0120    47.9997 </r>
       <r>    21.6112     0.0000    48.0000 </r>
       <r>    21.7332     0.0000    48.0000 </r>
       <r>    21.8552     0.0000    48.0000 </r>
       <r>    21.9771     0.0000    48.0000 </r>
       <r>    22.0991     0.0000    48.0000 </r>
       <r>    22.2211     0.0000    48.0000 </r>
       <r>    22.3430     0.0000    48.0000 </r>
       <r>    22.4650     0.0000    48.0000 </r>
       <r>    22.5870     0.0000    48.0000 </r>
       <r>    22.7090     0.0000    48.0000 </r>
       <r>    22.8309     0.0000    48.0000 </r>
       <r>    22.9529     0.0000    48.0000 </r>
       <r>    23.0749     0.0000    48.0000 </r>
       <r>    23.1968     0.0000    48.0000 </r>
      </set>
     </set>
    </array>
   </total>
  </dos>
 </calculation>
 <structure name="finalpos" >
  <crystal>
   <varray name="basis" >
    <v>       3.57371000       0.00000000       0.00000000 </v>
    <v>       0.07147400       3.57299500       0.00000000 </v>
    <v>       0.07147400       0.07005900       3.57230800 </v>
   </varray>
   <i name="volume">     45.61425772 </i>
   <varray name="rec_basis" >
    <v>       0.27982125      -0.00559753      -0.00548883 </v>
    <v>       0.00000000       0.27987725      -0.00548887 </v>
    <v>       0.00000000       0.00000000       0.27993107 </v>
   </varray>
  </crystal>
  <varray name="positions" >
   <v>       0.25000000       0.75000000       0.25000000 </v>
   <v>       0.00000000       0.00000000       0.50000000 </v>
   <v>       0.25000000       0.25000000       0.75000000 </v>
   <v>       0.00000000       0.50000000       0.00000000 </v>
   <v>       0.75000000       0.75000000       0.75000000 </v>
   <v>       0.50000000       0.00000000       0.00000000 </v>
   <v>       0.75000000       0.25000000       0.25000000 </v>
   <v>       0.50000000       0.50000000       0.50000000 </v>
  </varray>
 </structure>
</modeling>
