   8   8   0   0
  0.5782658E+01  0.3589999E-09  0.3589999E-09  0.3589999E-09  0.2000000E-16
  1.000000000000000E-004
  CAR 
 unknown system                          
     22.72741238    -13.38446017  301      9.61428866      1.00000000
    -13.384  0.0000E+00  0.0000E+00
    -13.264  0.0000E+00  0.0000E+00
    -13.144  0.0000E+00  0.0000E+00
    -13.023  0.0000E+00  0.0000E+00
    -12.903  0.0000E+00  0.0000E+00
    -12.783  0.0000E+00  0.0000E+00
    -12.662  0.0000E+00  0.0000E+00
    -12.542  0.0000E+00  0.0000E+00
    -12.421  0.0000E+00  0.0000E+00
    -12.301  0.0000E+00  0.0000E+00
    -12.181  0.0000E+00  0.0000E+00
    -12.060  0.0000E+00  0.0000E+00
    -11.940  0.0000E+00  0.0000E+00
    -11.820  0.0000E+00  0.0000E+00
    -11.699  0.3520E-01  0.5135E-03
    -11.579  0.1554E+00  0.1490E-01
    -11.458  0.2432E+00  0.3887E-01
    -11.338  0.2752E+00  0.6976E-01
    -11.218  0.3230E+00  0.1058E+00
    -11.097  0.3636E+00  0.1476E+00
    -10.977  0.3930E+00  0.1930E+00
    -10.857  0.4242E+00  0.2421E+00
    -10.736  0.4629E+00  0.2955E+00
    -10.616  0.4863E+00  0.3528E+00
    -10.496  0.5099E+00  0.4128E+00
    -10.375  0.5359E+00  0.4756E+00
    -10.255  0.5645E+00  0.5419E+00
    -10.134  0.5922E+00  0.6115E+00
    -10.014  0.6118E+00  0.6839E+00
     -9.894  0.6330E+00  0.7589E+00
     -9.773  0.6567E+00  0.8365E+00
     -9.653  0.6816E+00  0.9170E+00
     -9.533  0.7085E+00  0.1001E+01
     -9.412  0.7242E+00  0.1087E+01
     -9.292  0.7403E+00  0.1175E+01
     -9.171  0.7578E+00  0.1266E+01
     -9.051  0.7770E+00  0.1358E+01
     -8.931  0.7967E+00  0.1453E+01
     -8.810  0.8202E+00  0.1550E+01
     -8.690  0.8426E+00  0.1650E+01
     -8.570  0.8593E+00  0.1752E+01
     -8.449  0.8792E+00  0.1857E+01
     -8.329  0.8986E+00  0.1964E+01
     -8.208  0.9176E+00  0.2073E+01
     -8.088  0.9365E+00  0.2185E+01
     -7.968  0.9553E+00  0.2299E+01
     -7.847  0.1024E+01  0.2418E+01
     -7.727  0.1078E+01  0.2544E+01
     -7.607  0.1108E+01  0.2676E+01
     -7.486  0.1104E+01  0.2809E+01
     -7.366  0.1075E+01  0.2940E+01
     -7.245  0.1050E+01  0.3067E+01
     -7.125  0.1078E+01  0.3195E+01
     -7.005  0.1093E+01  0.3326E+01
     -6.884  0.1104E+01  0.3458E+01
     -6.764  0.1146E+01  0.3593E+01
     -6.644  0.1204E+01  0.3735E+01
     -6.523  0.1252E+01  0.3881E+01
     -6.403  0.1344E+01  0.4038E+01
     -6.282  0.1363E+01  0.4201E+01
     -6.162  0.1533E+01  0.4376E+01
     -6.042  0.1599E+01  0.4563E+01
     -5.921  0.1588E+01  0.4750E+01
     -5.801  0.1553E+01  0.4942E+01
     -5.681  0.1447E+01  0.5122E+01
     -5.560  0.1442E+01  0.5294E+01
     -5.440  0.1435E+01  0.5469E+01
     -5.319  0.1411E+01  0.5642E+01
     -5.199  0.1379E+01  0.5810E+01
     -5.079  0.1276E+01  0.5970E+01
     -4.958  0.1229E+01  0.6120E+01
     -4.838  0.1210E+01  0.6267E+01
     -4.718  0.1242E+01  0.6413E+01
     -4.597  0.1141E+01  0.6557E+01
     -4.477  0.1081E+01  0.6689E+01
     -4.356  0.1090E+01  0.6822E+01
     -4.236  0.1068E+01  0.6955E+01
     -4.116  0.1011E+01  0.7079E+01
     -3.995  0.9897E+00  0.7199E+01
     -3.875  0.9741E+00  0.7318E+01
     -3.755  0.9322E+00  0.7434E+01
     -3.634  0.8622E+00  0.7542E+01
     -3.514  0.9649E+00  0.7649E+01
     -3.394  0.9361E+00  0.7765E+01
     -3.273  0.1014E+01  0.7881E+01
     -3.153  0.9955E+00  0.8002E+01
     -3.032  0.9870E+00  0.8116E+01
     -2.912  0.9685E+00  0.8229E+01
     -2.792  0.9500E+00  0.8345E+01
     -2.671  0.9338E+00  0.8457E+01
     -2.551  0.1023E+01  0.8574E+01
     -2.431  0.1196E+01  0.8707E+01
     -2.310  0.1413E+01  0.8864E+01
     -2.190  0.1667E+01  0.9049E+01
     -2.069  0.1992E+01  0.9267E+01
     -1.949  0.2465E+01  0.9534E+01
     -1.829  0.2877E+01  0.9861E+01
     -1.708  0.2853E+01  0.1022E+02
     -1.588  0.2217E+01  0.1052E+02
     -1.468  0.1850E+01  0.1077E+02
     -1.347  0.1691E+01  0.1098E+02
     -1.227  0.1586E+01  0.1118E+02
     -1.106  0.1496E+01  0.1136E+02
     -0.986  0.1430E+01  0.1154E+02
     -0.866  0.1386E+01  0.1171E+02
     -0.745  0.1351E+01  0.1187E+02
     -0.625  0.1322E+01  0.1203E+02
     -0.505  0.1269E+01  0.1219E+02
     -0.384  0.1360E+01  0.1234E+02
     -0.264  0.1117E+01  0.1248E+02
     -0.143  0.1096E+01  0.1262E+02
     -0.023  0.1082E+01  0.1275E+02
      0.097  0.1071E+01  0.1288E+02
      0.218  0.1036E+01  0.1300E+02
      0.338  0.1035E+01  0.1313E+02
      0.458  0.1298E+01  0.1326E+02
      0.579  0.1559E+01  0.1344E+02
      0.699  0.1824E+01  0.1364E+02
      0.820  0.2148E+01  0.1387E+02
      0.940  0.2313E+01  0.1416E+02
      1.060  0.2141E+01  0.1442E+02
      1.181  0.2191E+01  0.1468E+02
      1.301  0.2275E+01  0.1495E+02
      1.421  0.2205E+01  0.1522E+02
      1.542  0.1819E+01  0.1547E+02
      1.662  0.1479E+01  0.1566E+02
      1.783  0.1591E+01  0.1584E+02
      1.903  0.1886E+01  0.1605E+02
      2.023  0.2140E+01  0.1630E+02
      2.144  0.2343E+01  0.1657E+02
      2.264  0.2377E+01  0.1686E+02
      2.384  0.2358E+01  0.1714E+02
      2.505  0.2328E+01  0.1742E+02
      2.625  0.2352E+01  0.1770E+02
      2.746  0.2620E+01  0.1800E+02
      2.866  0.2902E+01  0.1833E+02
      2.986  0.3170E+01  0.1871E+02
      3.107  0.2723E+01  0.1907E+02
      3.227  0.2352E+01  0.1936E+02
      3.347  0.2825E+01  0.1968E+02
      3.468  0.2775E+01  0.2001E+02
      3.588  0.2899E+01  0.2035E+02
      3.708  0.3523E+01  0.2073E+02
      3.829  0.4096E+01  0.2119E+02
      3.949  0.3450E+01  0.2165E+02
      4.070  0.3106E+01  0.2205E+02
      4.190  0.2646E+01  0.2240E+02
      4.310  0.2626E+01  0.2271E+02
      4.431  0.2997E+01  0.2304E+02
      4.551  0.2875E+01  0.2340E+02
      4.671  0.2915E+01  0.2375E+02
      4.792  0.2993E+01  0.2411E+02
      4.912  0.2957E+01  0.2446E+02
      5.033  0.3036E+01  0.2482E+02
      5.153  0.3102E+01  0.2519E+02
      5.273  0.3087E+01  0.2557E+02
      5.394  0.2733E+01  0.2592E+02
      5.514  0.2404E+01  0.2623E+02
      5.634  0.2418E+01  0.2652E+02
      5.755  0.2450E+01  0.2681E+02
      5.875  0.2746E+01  0.2712E+02
      5.996  0.2884E+01  0.2746E+02
      6.116  0.2812E+01  0.2781E+02
      6.236  0.2726E+01  0.2814E+02
      6.357  0.2680E+01  0.2846E+02
      6.477  0.2490E+01  0.2877E+02
      6.597  0.2320E+01  0.2907E+02
      6.718  0.2655E+01  0.2936E+02
      6.838  0.2121E+01  0.2968E+02
      6.959  0.1848E+01  0.2991E+02
      7.079  0.1677E+01  0.3012E+02
      7.199  0.1511E+01  0.3032E+02
      7.320  0.1391E+01  0.3049E+02
      7.440  0.1311E+01  0.3065E+02
      7.560  0.1233E+01  0.3081E+02
      7.681  0.1128E+01  0.3095E+02
      7.801  0.1012E+01  0.3108E+02
      7.922  0.9270E+00  0.3119E+02
      8.042  0.8754E+00  0.3130E+02
      8.162  0.8299E+00  0.3140E+02
      8.283  0.7606E+00  0.3150E+02
      8.403  0.6837E+00  0.3159E+02
      8.523  0.6077E+00  0.3166E+02
      8.644  0.5526E+00  0.3173E+02
      8.764  0.5159E+00  0.3180E+02
      8.885  0.3954E+00  0.3185E+02
      9.005  0.3646E+00  0.3190E+02
      9.125  0.3812E+00  0.3194E+02
      9.246  0.1817E+00  0.3197E+02
      9.366  0.1507E+00  0.3199E+02
      9.486  0.2459E-02  0.3200E+02
      9.607  0.0000E+00  0.3200E+02
      9.727  0.0000E+00  0.3200E+02
      9.848  0.0000E+00  0.3200E+02
      9.968  0.0000E+00  0.3200E+02
     10.088  0.0000E+00  0.3200E+02
     10.209  0.0000E+00  0.3200E+02
     10.329  0.0000E+00  0.3200E+02
     10.449  0.0000E+00  0.3200E+02
     10.570  0.0000E+00  0.3200E+02
     10.690  0.0000E+00  0.3200E+02
     10.810  0.0000E+00  0.3200E+02
     10.931  0.0000E+00  0.3200E+02
     11.051  0.0000E+00  0.3200E+02
     11.172  0.0000E+00  0.3200E+02
     11.292  0.0000E+00  0.3200E+02
     11.412  0.0000E+00  0.3200E+02
     11.533  0.0000E+00  0.3200E+02
     11.653  0.0000E+00  0.3200E+02
     11.773  0.0000E+00  0.3200E+02
     11.894  0.0000E+00  0.3200E+02
     12.014  0.0000E+00  0.3200E+02
     12.135  0.0000E+00  0.3200E+02
     12.255  0.0000E+00  0.3200E+02
     12.375  0.0000E+00  0.3200E+02
     12.496  0.0000E+00  0.3200E+02
     12.616  0.0000E+00  0.3200E+02
     12.736  0.0000E+00  0.3200E+02
     12.857  0.0000E+00  0.3200E+02
     12.977  0.0000E+00  0.3200E+02
     13.098  0.0000E+00  0.3200E+02
     13.218  0.0000E+00  0.3200E+02
     13.338  0.0000E+00  0.3200E+02
     13.459  0.0000E+00  0.3200E+02
     13.579  0.3419E-02  0.3200E+02
     13.699  0.1192E+00  0.3201E+02
     13.820  0.3182E+00  0.3203E+02
     13.940  0.5848E+00  0.3209E+02
     14.061  0.6403E+00  0.3217E+02
     14.181  0.6864E+00  0.3224E+02
     14.301  0.7577E+00  0.3233E+02
     14.422  0.8704E+00  0.3243E+02
     14.542  0.1149E+01  0.3255E+02
     14.662  0.1266E+01  0.3269E+02
     14.783  0.1527E+01  0.3286E+02
     14.903  0.1525E+01  0.3305E+02
     15.024  0.1555E+01  0.3323E+02
     15.144  0.1582E+01  0.3342E+02
     15.264  0.1670E+01  0.3362E+02
     15.385  0.1796E+01  0.3382E+02
     15.505  0.1955E+01  0.3405E+02
     15.625  0.2190E+01  0.3430E+02
     15.746  0.2320E+01  0.3457E+02
     15.866  0.2134E+01  0.3484E+02
     15.987  0.2115E+01  0.3509E+02
     16.107  0.2121E+01  0.3535E+02
     16.227  0.2192E+01  0.3561E+02
     16.348  0.2348E+01  0.3588E+02
     16.468  0.2515E+01  0.3617E+02
     16.588  0.2720E+01  0.3649E+02
     16.709  0.2830E+01  0.3682E+02
     16.829  0.2934E+01  0.3717E+02
     16.950  0.3080E+01  0.3753E+02
     17.070  0.3191E+01  0.3791E+02
     17.190  0.3423E+01  0.3831E+02
     17.311  0.3838E+01  0.3875E+02
     17.431  0.4048E+01  0.3922E+02
     17.551  0.4408E+01  0.3973E+02
     17.672  0.4761E+01  0.4029E+02
     17.792  0.3494E+01  0.4082E+02
     17.912  0.3571E+01  0.4123E+02
     18.033  0.3604E+01  0.4166E+02
     18.153  0.3576E+01  0.4210E+02
     18.274  0.3960E+01  0.4255E+02
     18.394  0.3653E+01  0.4301E+02
     18.514  0.3677E+01  0.4345E+02
     18.635  0.3539E+01  0.4389E+02
     18.755  0.2933E+01  0.4427E+02
     18.875  0.2731E+01  0.4461E+02
     18.996  0.2633E+01  0.4493E+02
     19.116  0.2615E+01  0.4525E+02
     19.237  0.2726E+01  0.4557E+02
     19.357  0.2788E+01  0.4590E+02
     19.477  0.2878E+01  0.4625E+02
     19.598  0.2811E+01  0.4659E+02
     19.718  0.2611E+01  0.4692E+02
     19.838  0.2335E+01  0.4722E+02
     19.959  0.1871E+01  0.4747E+02
     20.079  0.1375E+01  0.4766E+02
     20.200  0.9431E+00  0.4781E+02
     20.320  0.4359E+00  0.4789E+02
     20.440  0.2839E+00  0.4793E+02
     20.561  0.2066E+00  0.4796E+02
     20.681  0.1319E+00  0.4798E+02
     20.801  0.7656E-01  0.4799E+02
     20.922  0.3837E-01  0.4800E+02
     21.042  0.1700E-01  0.4800E+02
     21.163  0.0000E+00  0.4800E+02
     21.283  0.0000E+00  0.4800E+02
     21.403  0.0000E+00  0.4800E+02
     21.524  0.0000E+00  0.4800E+02
     21.644  0.0000E+00  0.4800E+02
     21.764  0.0000E+00  0.4800E+02
     21.885  0.0000E+00  0.4800E+02
     22.005  0.0000E+00  0.4800E+02
     22.126  0.0000E+00  0.4800E+02
     22.246  0.0000E+00  0.4800E+02
     22.366  0.0000E+00  0.4800E+02
     22.487  0.0000E+00  0.4800E+02
     22.607  0.0000E+00  0.4800E+02
     22.727  0.0000E+00  0.4800E+02
