Automatically generated mesh
     189
Reciprocal lattice
    0.00000000000000    0.00000000000000    0.00000000000000             1
    0.08333333333333   -0.00000000000000   -0.00000000000000             6
    0.16666666666667   -0.00000000000000   -0.00000000000000             6
    0.25000000000000   -0.00000000000000   -0.00000000000000             6
    0.33333333333333   -0.00000000000000   -0.00000000000000             6
    0.41666666666667   -0.00000000000000   -0.00000000000000             6
    0.50000000000000   -0.00000000000000   -0.00000000000000             3
    0.08333333333333    0.08333333333333    0.00000000000000             6
    0.16666666666667    0.08333333333333    0.00000000000000            12
    0.25000000000000    0.08333333333333   -0.00000000000000            12
    0.33333333333333    0.08333333333333   -0.00000000000000            12
    0.41666666666667    0.08333333333333   -0.00000000000000            12
    0.50000000000000    0.08333333333333    0.00000000000000            12
   -0.41666666666667    0.08333333333333   -0.00000000000000            12
   -0.33333333333333    0.08333333333333    0.00000000000000            12
   -0.25000000000000    0.08333333333333    0.00000000000000            12
   -0.16666666666667    0.08333333333333    0.00000000000000            12
   -0.08333333333333    0.08333333333333   -0.00000000000000             6
    0.16666666666667    0.16666666666667    0.00000000000000             6
    0.25000000000000    0.16666666666667   -0.00000000000000            12
    0.33333333333333    0.16666666666667   -0.00000000000000            12
    0.41666666666667    0.16666666666667   -0.00000000000000            12
    0.50000000000000    0.16666666666667    0.00000000000000            12
   -0.41666666666667    0.16666666666667    0.00000000000000            12
   -0.33333333333333    0.16666666666667    0.00000000000000            12
   -0.25000000000000    0.16666666666667    0.00000000000000            12
   -0.16666666666667    0.16666666666667   -0.00000000000000             6
    0.25000000000000    0.25000000000000    0.00000000000000             6
    0.33333333333333    0.25000000000000    0.00000000000000            12
    0.41666666666667    0.25000000000000   -0.00000000000000            12
    0.50000000000000    0.25000000000000   -0.00000000000000            12
   -0.41666666666667    0.25000000000000    0.00000000000000            12
   -0.33333333333333    0.25000000000000    0.00000000000000            12
   -0.25000000000000    0.25000000000000    0.00000000000000             6
    0.33333333333333    0.33333333333333   -0.00000000000000             6
    0.41666666666667    0.33333333333333   -0.00000000000000            12
    0.50000000000000    0.33333333333333   -0.00000000000000            12
   -0.41666666666667    0.33333333333333    0.00000000000000            12
   -0.33333333333333    0.33333333333333    0.00000000000000             6
    0.41666666666667    0.41666666666667   -0.00000000000000             6
    0.50000000000000    0.41666666666667   -0.00000000000000            12
   -0.41666666666667    0.41666666666667   -0.00000000000000             6
    0.50000000000000    0.50000000000000    0.00000000000000             3
    0.08333333333333    0.08333333333333    0.08333333333333             2
    0.16666666666667    0.08333333333333    0.08333333333333             6
    0.25000000000000    0.08333333333333    0.08333333333333             6
    0.33333333333333    0.08333333333333    0.08333333333333             6
    0.41666666666667    0.08333333333333    0.08333333333333             6
    0.50000000000000    0.08333333333333    0.08333333333333             6
   -0.41666666666667    0.08333333333333    0.08333333333333             6
   -0.33333333333333    0.08333333333333    0.08333333333333             6
   -0.25000000000000    0.08333333333333    0.08333333333333             6
   -0.16666666666667    0.08333333333333    0.08333333333333             6
   -0.08333333333333    0.08333333333333    0.08333333333333             6
    0.16666666666667    0.16666666666667    0.08333333333333             6
    0.25000000000000    0.16666666666667    0.08333333333333            12
    0.33333333333333    0.16666666666667    0.08333333333333            12
    0.41666666666667    0.16666666666667    0.08333333333333            12
    0.50000000000000    0.16666666666667    0.08333333333333            12
   -0.41666666666667    0.16666666666667    0.08333333333333            12
   -0.33333333333333    0.16666666666667    0.08333333333333            12
   -0.25000000000000    0.16666666666667    0.08333333333333            12
   -0.16666666666667    0.16666666666667    0.08333333333333            12
   -0.08333333333333    0.16666666666667    0.08333333333333            12
    0.25000000000000    0.25000000000000    0.08333333333333             6
    0.33333333333333    0.25000000000000    0.08333333333333            12
    0.41666666666667    0.25000000000000    0.08333333333333            12
    0.50000000000000    0.25000000000000    0.08333333333333            12
   -0.41666666666667    0.25000000000000    0.08333333333333            12
   -0.33333333333333    0.25000000000000    0.08333333333333            12
   -0.25000000000000    0.25000000000000    0.08333333333333            12
   -0.16666666666667    0.25000000000000    0.08333333333333            12
   -0.08333333333333    0.25000000000000    0.08333333333333            12
    0.33333333333333    0.33333333333333    0.08333333333333             6
    0.41666666666667    0.33333333333333    0.08333333333333            12
    0.50000000000000    0.33333333333333    0.08333333333333            12
   -0.41666666666667    0.33333333333333    0.08333333333333            12
   -0.33333333333333    0.33333333333333    0.08333333333333            12
   -0.25000000000000    0.33333333333333    0.08333333333333            12
   -0.16666666666667    0.33333333333333    0.08333333333333            12
   -0.08333333333333    0.33333333333333    0.08333333333333            12
    0.41666666666667    0.41666666666667    0.08333333333333             6
    0.50000000000000    0.41666666666667    0.08333333333333            12
   -0.41666666666667    0.41666666666667    0.08333333333333            12
   -0.33333333333333    0.41666666666667    0.08333333333333            12
   -0.25000000000000    0.41666666666667    0.08333333333333            12
   -0.16666666666667    0.41666666666667    0.08333333333333            12
   -0.08333333333333    0.41666666666667    0.08333333333333            12
    0.50000000000000    0.50000000000000    0.08333333333333             6
   -0.41666666666667    0.50000000000000    0.08333333333333            12
   -0.33333333333333    0.50000000000000    0.08333333333333            12
   -0.25000000000000    0.50000000000000    0.08333333333333            12
   -0.16666666666667    0.50000000000000    0.08333333333333            12
   -0.08333333333333    0.50000000000000    0.08333333333333             6
   -0.41666666666667   -0.41666666666667    0.08333333333333             6
   -0.33333333333333   -0.41666666666667    0.08333333333333            12
   -0.25000000000000   -0.41666666666667    0.08333333333333            12
   -0.16666666666667   -0.41666666666667    0.08333333333333            12
   -0.33333333333333   -0.33333333333333    0.08333333333333             6
   -0.25000000000000   -0.33333333333333    0.08333333333333            12
   -0.16666666666667   -0.33333333333333    0.08333333333333            12
   -0.25000000000000   -0.25000000000000    0.08333333333333             6
   -0.16666666666667   -0.25000000000000    0.08333333333333            12
   -0.16666666666667   -0.16666666666667    0.08333333333333             6
    0.16666666666667    0.16666666666667    0.16666666666667             2
    0.25000000000000    0.16666666666667    0.16666666666667             6
    0.33333333333333    0.16666666666667    0.16666666666667             6
    0.41666666666667    0.16666666666667    0.16666666666667             6
    0.50000000000000    0.16666666666667    0.16666666666667             6
   -0.41666666666667    0.16666666666667    0.16666666666667             6
   -0.33333333333333    0.16666666666667    0.16666666666667             6
   -0.25000000000000    0.16666666666667    0.16666666666667             6
   -0.16666666666667    0.16666666666667    0.16666666666667             6
    0.25000000000000    0.25000000000000    0.16666666666667             6
    0.33333333333333    0.25000000000000    0.16666666666667            12
    0.41666666666667    0.25000000000000    0.16666666666667            12
    0.50000000000000    0.25000000000000    0.16666666666667            12
   -0.41666666666667    0.25000000000000    0.16666666666667            12
   -0.33333333333333    0.25000000000000    0.16666666666667            12
   -0.25000000000000    0.25000000000000    0.16666666666667            12
   -0.16666666666667    0.25000000000000    0.16666666666667            12
    0.33333333333333    0.33333333333333    0.16666666666667             6
    0.41666666666667    0.33333333333333    0.16666666666667            12
    0.50000000000000    0.33333333333333    0.16666666666667            12
   -0.41666666666667    0.33333333333333    0.16666666666667            12
   -0.33333333333333    0.33333333333333    0.16666666666667            12
   -0.25000000000000    0.33333333333333    0.16666666666667            12
   -0.16666666666667    0.33333333333333    0.16666666666667            12
    0.41666666666667    0.41666666666667    0.16666666666667             6
    0.50000000000000    0.41666666666667    0.16666666666667            12
   -0.41666666666667    0.41666666666667    0.16666666666667            12
   -0.33333333333333    0.41666666666667    0.16666666666667            12
   -0.25000000000000    0.41666666666667    0.16666666666667            12
   -0.16666666666667    0.41666666666667    0.16666666666667            12
    0.50000000000000    0.50000000000000    0.16666666666667             6
   -0.41666666666667    0.50000000000000    0.16666666666667            12
   -0.33333333333333    0.50000000000000    0.16666666666667            12
   -0.25000000000000    0.50000000000000    0.16666666666667            12
   -0.16666666666667    0.50000000000000    0.16666666666667             6
   -0.41666666666667   -0.41666666666667    0.16666666666667             6
   -0.33333333333333   -0.41666666666667    0.16666666666667            12
   -0.25000000000000   -0.41666666666667    0.16666666666667            12
   -0.33333333333333   -0.33333333333333    0.16666666666667             6
   -0.25000000000000   -0.33333333333333    0.16666666666667            12
   -0.25000000000000   -0.25000000000000    0.16666666666667             6
    0.25000000000000    0.25000000000000    0.25000000000000             2
    0.33333333333333    0.25000000000000    0.25000000000000             6
    0.41666666666667    0.25000000000000    0.25000000000000             6
    0.50000000000000    0.25000000000000    0.25000000000000             6
   -0.41666666666667    0.25000000000000    0.25000000000000             6
   -0.33333333333333    0.25000000000000    0.25000000000000             6
   -0.25000000000000    0.25000000000000    0.25000000000000             6
    0.33333333333333    0.33333333333333    0.25000000000000             6
    0.41666666666667    0.33333333333333    0.25000000000000            12
    0.50000000000000    0.33333333333333    0.25000000000000            12
   -0.41666666666667    0.33333333333333    0.25000000000000            12
   -0.33333333333333    0.33333333333333    0.25000000000000            12
   -0.25000000000000    0.33333333333333    0.25000000000000            12
    0.41666666666667    0.41666666666667    0.25000000000000             6
    0.50000000000000    0.41666666666667    0.25000000000000            12
   -0.41666666666667    0.41666666666667    0.25000000000000            12
   -0.33333333333333    0.41666666666667    0.25000000000000            12
   -0.25000000000000    0.41666666666667    0.25000000000000            12
    0.50000000000000    0.50000000000000    0.25000000000000             6
   -0.41666666666667    0.50000000000000    0.25000000000000            12
   -0.33333333333333    0.50000000000000    0.25000000000000            12
   -0.25000000000000    0.50000000000000    0.25000000000000             6
   -0.41666666666667   -0.41666666666667    0.25000000000000             6
   -0.33333333333333   -0.41666666666667    0.25000000000000            12
   -0.33333333333333   -0.33333333333333    0.25000000000000             6
    0.33333333333333    0.33333333333333    0.33333333333333             2
    0.41666666666667    0.33333333333333    0.33333333333333             6
    0.50000000000000    0.33333333333333    0.33333333333333             6
   -0.41666666666667    0.33333333333333    0.33333333333333             6
   -0.33333333333333    0.33333333333333    0.33333333333333             6
    0.41666666666667    0.41666666666667    0.33333333333333             6
    0.50000000000000    0.41666666666667    0.33333333333333            12
   -0.41666666666667    0.41666666666667    0.33333333333333            12
   -0.33333333333333    0.41666666666667    0.33333333333333            12
    0.50000000000000    0.50000000000000    0.33333333333333             6
   -0.41666666666667    0.50000000000000    0.33333333333333            12
   -0.33333333333333    0.50000000000000    0.33333333333333             6
   -0.41666666666667   -0.41666666666667    0.33333333333333             6
    0.41666666666667    0.41666666666667    0.41666666666667             2
    0.50000000000000    0.41666666666667    0.41666666666667             6
   -0.41666666666667    0.41666666666667    0.41666666666667             6
    0.50000000000000    0.50000000000000    0.41666666666667             6
   -0.41666666666667    0.50000000000000    0.41666666666667             6
    0.50000000000000    0.50000000000000    0.50000000000000             1
Tetrahedra
      2550    0.00009645061728
         4         1         2         2         8
         4         2         2         8         8
         4         2         8         8        44
         4         2         3         8         9
         4         2         8         8         9
         4         8         8         9        44
         4         3         8         9         9
         8         8         9         9        45
         8         8         9        44        45
         4         3         4         9        10
         4         3         9         9        10
         4         9         9        10        45
         4         4         9        10        10
         4         9        10        10        46
         4         9        10        45        46
         4         4         5        10        11
         4         4        10        10        11
         4        10        10        11        46
         4         5        10        11        11
         4        10        11        11        47
         4        10        11        46        47
         4         5         6        11        12
         4         5        11        11        12
         4        11        11        12        47
         4         6        11        12        12
         4        11        12        12        48
         4        11        12        47        48
         8         6         7        12        13
         4         6        12        12        13
         4        12        12        13        48
         8         7        12        13        13
         4        12        13        13        49
         4        12        13        48        49
         4         6         7        13        14
         4         7        13        13        14
         4        13        13        14        49
         4         6        13        14        14
         4        13        14        14        50
         4        13        14        49        50
         4         5         6        14        15
         4         6        14        14        15
         4        14        14        15        50
         4         5        14        15        15
         4        14        15        15        51
         4        14        15        50        51
         4         4         5        15        16
         4         5        15        15        16
         4        15        15        16        51
         4         4        15        16        16
         4        15        16        16        52
         4        15        16        51        52
         4         3         4        16        17
         4         4        16        16        17
         4        16        16        17        52
         4         3        16        17        17
         4        16        17        17        53
         4        16        17        52        53
         4         2         3        17        18
         4         3        17        17        18
         8        17        17        18        53
         4         2        17        18        18
         4        17        18        18        54
         8        17        18        53        54
         8         1         2         2        18
         4         2         2        18        18
         4         2        18        18        54
         4         2         2         8        18
         4         2         8        18        54
         4         8         9        19        44
         4         9        19        44        45
         4        19        44        45        55
         4         9        10        20        45
         4         9        19        20        45
         4        19        20        45        55
         4        10        20        45        46
         4        20        45        46        56
         4        20        45        55        56
         4        10        11        21        46
         4        10        20        21        46
         4        20        21        46        56
         4        11        21        46        47
         4        21        46        47        57
         4        21        46        56        57
         4        11        12        22        47
         4        11        21        22        47
         4        21        22        47        57
         4        12        22        47        48
         4        22        47        48        58
         4        22        47        57        58
         4        12        13        23        48
         4        12        22        23        48
         4        22        23        48        58
         4        13        23        48        49
         4        23        48        49        59
         4        23        48        58        59
         4        13        14        24        49
         4        13        23        24        49
         4        23        24        49        59
         4        14        24        49        50
         4        24        49        50        60
         4        24        49        59        60
         4        14        15        25        50
         4        14        24        25        50
         4        24        25        50        60
         4        15        25        50        51
         4        25        50        51        61
         4        25        50        60        61
         4        15        16        26        51
         4        15        25        26        51
         4        25        26        51        61
         4        16        26        51        52
         4        26        51        52        62
         4        26        51        61        62
         4        16        17        27        52
         4        16        26        27        52
         4        26        27        52        62
         4        17        27        52        53
         4        27        52        53        63
         4        27        52        62        63
         4        17        17        27        53
         4        17        27        53        63
         4        17        53        54        64
         4        17        53        63        64
         4         2         3        18        54
         4         3        17        18        54
         4         3        17        54        64
         4         2         3         8        54
         4         3         8         9        54
         4         3         9        54        64
         4        19        20        28        55
         4        20        28        55        56
         4        28        55        56        65
         4        20        21        29        56
         4        20        28        29        56
         4        28        29        56        65
         4        21        29        56        57
         4        29        56        57        66
         4        29        56        65        66
         4        21        22        30        57
         4        21        29        30        57
         4        29        30        57        66
         4        22        30        57        58
         4        30        57        58        67
         4        30        57        66        67
         4        22        23        31        58
         4        22        30        31        58
         4        30        31        58        67
         4        23        31        58        59
         4        31        58        59        68
         4        31        58        67        68
         4        23        24        32        59
         4        23        31        32        59
         4        31        32        59        68
         4        24        32        59        60
         4        32        59        60        69
         4        32        59        68        69
         4        24        25        33        60
         4        24        32        33        60
         4        32        33        60        69
         4        25        33        60        61
         4        33        60        61        70
         4        33        60        69        70
         4        25        26        34        61
         4        25        33        34        61
         4        33        34        61        70
         4        26        34        61        62
         4        34        61        62        71
         4        34        61        70        71
         4        26        26        27        62
         4        26        26        34        62
         4        26        34        62        71
         4        26        27        62        63
         4        26        62        63        72
         4        26        62        71        72
         4        16        17        27        63
         4        16        26        27        63
         4        16        26        63        72
         4        16        17        63        64
         4        16        63        64        73
         4        16        63        72        73
         4         3         4        17        64
         4         4        16        17        64
         4         4        16        64        73
         4         3         4         9        64
         4         4         9        10        64
         4         4        10        64        73
         4        28        29        35        65
         4        29        35        65        66
         4        35        65        66        74
         4        29        30        36        66
         4        29        35        36        66
         4        35        36        66        74
         4        30        36        66        67
         4        36        66        67        75
         4        36        66        74        75
         4        30        31        37        67
         4        30        36        37        67
         4        36        37        67        75
         4        31        37        67        68
         4        37        67        68        76
         4        37        67        75        76
         4        31        32        38        68
         4        31        37        38        68
         4        37        38        68        76
         4        32        38        68        69
         4        38        68        69        77
         4        38        68        76        77
         4        32        33        39        69
         4        32        38        39        69
         4        38        39        69        77
         4        33        39        69        70
         4        39        69        70        78
         4        39        69        77        78
         4        33        33        34        70
         4        33        33        39        70
         4        33        39        70        78
         4        33        34        70        71
         4        33        70        71        79
         4        33        70        78        79
         4        25        26        34        71
         4        25        33        34        71
         4        25        33        71        79
         4        25        26        71        72
         4        25        71        72        80
         4        25        71        79        80
         4        15        16        26        72
         4        15        25        26        72
         4        15        25        72        80
         4        15        16        72        73
         4        15        72        73        81
         4        15        72        80        81
         4         4         5        16        73
         4         5        15        16        73
         4         5        15        73        81
         4         4         5        10        73
         4         5        10        11        73
         4         5        11        73        81
         4        35        36        40        74
         4        36        40        74        75
         4        40        74        75        82
         4        36        37        41        75
         4        36        40        41        75
         4        40        41        75        82
         4        37        41        75        76
         4        41        75        76        83
         4        41        75        82        83
         4        37        38        42        76
         4        37        41        42        76
         4        41        42        76        83
         4        38        42        76        77
         4        42        76        77        84
         4        42        76        83        84
         4        38        38        39        77
         4        38        38        42        77
         4        38        42        77        84
         4        38        39        77        78
         4        38        77        78        85
         4        38        77        84        85
         4        32        33        39        78
         4        32        38        39        78
         4        32        38        78        85
         4        32        33        78        79
         4        32        78        79        86
         4        32        78        85        86
         4        24        25        33        79
         4        24        32        33        79
         4        24        32        79        86
         4        24        25        79        80
         4        24        79        80        87
         4        24        79        86        87
         4        14        15        25        80
         4        14        24        25        80
         4        14        24        80        87
         4        14        15        80        81
         4        14        80        81        88
         4        14        80        87        88
         4         5         6        15        81
         4         6        14        15        81
         4         6        14        81        88
         4         5         6        11        81
         4         6        11        12        81
         4         6        12        81        88
         4        40        41        43        82
         4        41        43        82        83
         4        43        82        83        89
         4        41        41        42        83
         8        41        41        43        83
         8        41        43        83        89
         4        41        42        83        84
         4        41        83        84        90
         4        41        83        89        90
         4        37        38        42        84
         4        37        41        42        84
         4        37        41        84        90
         4        37        38        84        85
         4        37        84        85        91
         4        37        84        90        91
         4        31        32        38        85
         4        31        37        38        85
         4        31        37        85        91
         4        31        32        85        86
         4        31        85        86        92
         4        31        85        91        92
         4        23        24        32        86
         4        23        31        32        86
         4        23        31        86        92
         4        23        24        86        87
         4        23        86        87        93