       N       E                     dE             d eps       ncg     rms          rms(c)
DAV:   1     0.571171102194E+02    0.57117E+02   -0.14373E+04  9072   0.105E+03
DAV:   2    -0.709434409711E+02   -0.12806E+03   -0.12136E+03 12656   0.221E+02
DAV:   3    -0.750612822776E+02   -0.41178E+01   -0.40993E+01 11800   0.370E+01
DAV:   4    -0.751021160670E+02   -0.40834E-01   -0.40803E-01 11352   0.408E+00
DAV:   5    -0.751029478331E+02   -0.83177E-03   -0.83135E-03 11808   0.530E-01    0.929E+00
DAV:   6    -0.733110430861E+02    0.17919E+01   -0.11910E+00 10304   0.618E+00    0.511E+00
DAV:   7    -0.727055937093E+02    0.60545E+00   -0.13523E+00 10672   0.677E+00    0.692E-01
DAV:   8    -0.727128569746E+02   -0.72633E-02   -0.27263E-02 11544   0.958E-01    0.788E-02
DAV:   9    -0.727130748220E+02   -0.21785E-03   -0.43349E-04 10976   0.140E-01    0.283E-02
DAV:  10    -0.727131308059E+02   -0.55984E-04   -0.48353E-05 11512   0.524E-02    0.268E-03
DAV:  11    -0.727131314936E+02   -0.68774E-06   -0.10680E-06  8424   0.728E-03
   1 F= -.72713131E+02 E0= -.72713131E+02  d E =0.000000E+00
