 vasp.5.4.4.18Apr17-6-g9f103f2a35 (build Mar 12 2022 03:36:41) complex          
  
 executed on IFC19.0.3.199_CrayMP date 2022.12.01  10:54:23
 running on   16 total cores
 distrk:  each k-point on   16 cores,    1 groups
 distr:  one band on NCORES_PER_BAND=   4 cores,    4 groups


--------------------------------------------------------------------------------------------------------


 INCAR:
 POTCAR:   PAW_PBE C 08Apr2002                    
 POTCAR:   PAW_PBE C 08Apr2002                    
   VRHFIN =C: s2p2                                                              
   LEXCH  = PE                                                                  
   EATOM  =   147.1560 eV,   10.8157 Ry                                         
                                                                                
   TITEL  = PAW_PBE C 08Apr2002                                                 
   LULTRA =        F    use ultrasoft PP ?                                      
   IUNSCR =        0    unscreen: 0-lin 1-nonlin 2-no                           
   RPACOR =     .000    partial core radius                                     
   POMASS =   12.011; ZVAL   =    4.000    mass and valenz                      
   RCORE  =    1.500    outmost cutoff radius                                   
   RWIGS  =    1.630; RWIGS  =     .863    wigner-seitz radius (au A)           
   ENMAX  =  400.000; ENMIN  =  300.000 eV                                      
   ICORE  =        2    local potential                                         
   LCOR   =        T    correct aug charges                                     
   LPAW   =        T    paw PP                                                  
   EAUG   =  644.873                                                            
   DEXC   =     .000                                                            
   RMAX   =    2.266    core radius for proj-oper                               
   RAUG   =    1.300    factor for augmentation sphere                          
   RDEP   =    1.501    radius for radial grids                                 
   RDEPT  =    1.300    core radius for aug-charge                              
   QCUT   =   -5.516; QGAM   =   11.032    optimization parameters              
                                                                                
   Description                                                                  
     l     E      TYP  RCUT    TYP  RCUT                                        
     0   .000     23  1.200                                                     
     0   .000     23  1.200                                                     
     1   .000     23  1.500                                                     
     1  2.500     23  1.500                                                     
     2   .000      7  1.500                                                     
  local pseudopotential read in
  atomic valenz-charges read in
  non local Contribution for L=           0  read in
    real space projection operators read in
  non local Contribution for L=           0  read in
    real space projection operators read in
  non local Contribution for L=           1  read in
    real space projection operators read in
  non local Contribution for L=           1  read in
    real space projection operators read in
    PAW grid and wavefunctions read in
 
   number of l-projection  operators is LMAX  =           4
   number of lm-projection operators is LMMAX =           8
 
 PAW_PBE C 08Apr2002                    :
 energy of atom  1       EATOM= -147.1560
 kinetic energy error for atom=    0.0288 (will be added to EATOM!!)
 
 
 POSCAR: C8                                      
  positions in direct lattice
  No initial velocities read in
 exchange correlation table for  LEXCH =        8
   RHO(1)=    0.500       N(1)  =     2000
   RHO(2)=  100.500       N(2)  =     4000
 


--------------------------------------------------------------------------------------------------------


 ion  position               nearest neighbor table
   1  0.250  0.750  0.250-   4 1.54   6 1.56   8 1.56   2 1.56
   2  0.000  0.000  0.500-   3 1.54   5 1.56   7 1.56   1 1.56
   3  0.250  0.250  0.750-   2 1.54   6 1.56   8 1.56   4 1.56
   4  0.000  0.500  0.000-   1 1.54   5 1.56   7 1.56   3 1.56
   5  0.750  0.750  0.750-   8 1.54   4 1.56   2 1.56   6 1.56
   6  0.500  0.000  0.000-   7 1.54   3 1.56   1 1.56   5 1.56
   7  0.750  0.250  0.250-   6 1.54   4 1.56   2 1.56   8 1.56
   8  0.500  0.500  0.500-   5 1.54   3 1.56   1 1.56   7 1.56
 
  LATTYP: Found a trigonal (rhomboedric) cell.
 ALAT       =     3.5899990465
 COS(alpha) =    -0.0099999729
  
  Lattice vectors:
  
 A1 = (   3.5899993590,   0.0000000000,   0.0000000000)
 A2 = (  -0.0358998931,   3.5898195431,   0.0000000000)
 A3 = (  -0.0358998931,  -0.0362605295,   3.5896367135)


Analysis of symmetry for initial positions (statically):
=====================================================================
 Subroutine PRICEL returns following result:
 
  LATTYP: Found a trigonal (rhomboedric) cell.
 ALAT       =     2.5257884218
 COS(alpha) =     0.4898990521
  
  Lattice vectors:
  
 A1 = (  -0.0358998931,   1.7767795068,   1.7948183567)
 A2 = (   1.7770497329,  -0.0181302647,   1.7948183567)
 A3 = (   1.7770497329,   1.7949097715,   0.0000000000)
 
   4 primitive cells build up your supercell.
 

 Routine SETGRP: Setting up the symmetry group for a 
 trigonal (rhombohedral) supercell.


 Subroutine GETGRP returns: Found 12 space group operations
 (whereof  6 operations were pure point group operations)
 out of a pool of 12 trial point group operations.


The static configuration has the point symmetry C_3v.
 The point group associated with its full space group is D_3d.


Analysis of symmetry for dynamics (positions and initial velocities):
=====================================================================
 Subroutine PRICEL returns following result:
 
  LATTYP: Found a trigonal (rhomboedric) cell.
 ALAT       =     2.5257884218
 COS(alpha) =     0.4898990521
  
  Lattice vectors:
  
 A1 = (  -0.0358998931,   1.7767795068,   1.7948183567)
 A2 = (   1.7770497329,  -0.0181302647,   1.7948183567)
 A3 = (   1.7770497329,   1.7949097715,   0.0000000000)
 
   4 primitive cells build up your supercell.
 

 Routine SETGRP: Setting up the symmetry group for a 
 trigonal (rhombohedral) supercell.


 Subroutine GETGRP returns: Found 12 space group operations
 (whereof  6 operations were pure point group operations)
 out of a pool of 12 trial point group operations.


The dynamic configuration has the point symmetry C_3v.
 The point group associated with its full space group is D_3d.


 Subroutine INISYM returns: Found 12 space group operations
 (whereof  6 operations are pure point group operations),
 and found     4 'primitive' translations

 
 
 KPOINTS: kpt_density=1000                        

Automatic generation of k-mesh.
Space group operators:
 irot       det(A)        alpha          n_x          n_y          n_z        tau_x        tau_y        tau_z
    1     1.000000     0.000000     1.000000     0.000000     0.000000     0.000000     0.000000     0.000000
    2    -1.000000   180.000000     0.000000    -0.710669     0.703526     0.000000     0.000000     0.000000
    3     1.000000   120.000000    -0.571548    -0.577292    -0.583153     0.000000     0.000000     0.000000
    4    -1.000000   180.000000    -0.710633     0.703562    -0.000000     0.000000     0.000000     0.000000
    5     1.000000   120.000000     0.571548     0.577292     0.583153     0.000000     0.000000     0.000000
    6    -1.000000   180.000000     0.710634     0.007107    -0.703526     0.000000     0.000000     0.000000
    7    -1.000000     0.000000     1.000000     0.000000     0.000000     0.250000     0.250000     0.250000
    8     1.000000   180.000000     0.000000    -0.710669     0.703526     0.250000     0.250000     0.250000
    9    -1.000000   120.000000    -0.571548    -0.577292    -0.583153     0.250000     0.250000     0.250000
   10     1.000000   180.000000    -0.710633     0.703562    -0.000000     0.250000     0.250000     0.250000
   11    -1.000000   120.000000     0.571548     0.577292     0.583153     0.250000     0.250000     0.250000
   12     1.000000   180.000000     0.710634     0.007107    -0.703526     0.250000     0.250000     0.250000
 
 Subroutine IBZKPT returns following result:
 ===========================================
 
 Found    189 irreducible k-points:
 
 Following reciprocal coordinates:
            Coordinates               Weight
  0.000000  0.000000  0.000000      1.000000
  0.083333 -0.000000 -0.000000      6.000000
  0.166667 -0.000000 -0.000000      6.000000
  0.250000 -0.000000 -0.000000      6.000000
  0.333333 -0.000000 -0.000000      6.000000
  0.416667 -0.000000 -0.000000      6.000000
  0.500000 -0.000000 -0.000000      3.000000
  0.083333  0.083333  0.000000      6.000000
  0.166667  0.083333  0.000000     12.000000
  0.250000  0.083333 -0.000000     12.000000
  0.333333  0.083333 -0.000000     12.000000
  0.416667  0.083333 -0.000000     12.000000
  0.500000  0.083333  0.000000     12.000000
 -0.416667  0.083333 -0.000000     12.000000
 -0.333333  0.083333  0.000000     12.000000
 -0.250000  0.083333  0.000000     12.000000
 -0.166667  0.083333  0.000000     12.000000
 -0.083333  0.083333 -0.000000      6.000000
  0.166667  0.166667  0.000000      6.000000
  0.250000  0.166667 -0.000000     12.000000
  0.333333  0.166667 -0.000000     12.000000
  0.416667  0.166667 -0.000000     12.000000
  0.500000  0.166667  0.000000     12.000000
 -0.416667  0.166667  0.000000     12.000000
 -0.333333  0.166667  0.000000     12.000000
 -0.250000  0.166667  0.000000     12.000000
 -0.166667  0.166667 -0.000000      6.000000
  0.250000  0.250000  0.000000      6.000000
  0.333333  0.250000  0.000000     12.000000
  0.416667  0.250000 -0.000000     12.000000
  0.500000  0.250000 -0.000000     12.000000
 -0.416667  0.250000  0.000000     12.000000
 -0.333333  0.250000  0.000000     12.000000
 -0.250000  0.250000  0.000000      6.000000
  0.333333  0.333333 -0.000000      6.000000
  0.416667  0.333333 -0.000000     12.000000
  0.500000  0.333333 -0.000000     12.000000
 -0.416667  0.333333  0.000000     12.000000
 -0.333333  0.333333  0.000000      6.000000
  0.416667  0.416667 -0.000000      6.000000
  0.500000  0.416667 -0.000000     12.000000
 -0.416667  0.416667 -0.000000      6.000000
  0.500000  0.500000  0.000000      3.000000
  0.083333  0.083333  0.083333      2.000000
  0.166667  0.083333  0.083333      6.000000
  0.250000  0.083333  0.083333      6.000000
  0.333333  0.083333  0.083333      6.000000
  0.416667  0.083333  0.083333      6.000000
  0.500000  0.083333  0.083333      6.000000
 -0.416667  0.083333  0.083333      6.000000
 -0.333333  0.083333  0.083333      6.000000
 -0.250000  0.083333  0.083333      6.000000
 -0.166667  0.083333  0.083333      6.000000
 -0.083333  0.083333  0.083333      6.000000
  0.166667  0.166667  0.083333      6.000000
  0.250000  0.166667  0.083333     12.000000
  0.333333  0.166667  0.083333     12.000000
  0.416667  0.166667  0.083333     12.000000
  0.500000  0.166667  0.083333     12.000000
 -0.416667  0.166667  0.083333     12.000000
 -0.333333  0.166667  0.083333     12.000000
 -0.250000  0.166667  0.083333     12.000000
 -0.166667  0.166667  0.083333     12.000000
 -0.083333  0.166667  0.083333     12.000000
  0.250000  0.250000  0.083333      6.000000
  0.333333  0.250000  0.083333     12.000000
  0.416667  0.250000  0.083333     12.000000
  0.500000  0.250000  0.083333     12.000000
 -0.416667  0.250000  0.083333     12.000000
 -0.333333  0.250000  0.083333     12.000000
 -0.250000  0.250000  0.083333     12.000000
 -0.166667  0.250000  0.083333     12.000000
 -0.083333  0.250000  0.083333     12.000000
  0.333333  0.333333  0.083333      6.000000
  0.416667  0.333333  0.083333     12.000000
  0.500000  0.333333  0.083333     12.000000
 -0.416667  0.333333  0.083333     12.000000
 -0.333333  0.333333  0.083333     12.000000
 -0.250000  0.333333  0.083333     12.000000
 -0.166667  0.333333  0.083333     12.000000
 -0.083333  0.333333  0.083333     12.000000
  0.416667  0.416667  0.083333      6.000000
  0.500000  0.416667  0.083333     12.000000
 -0.416667  0.416667  0.083333     12.000000
 -0.333333  0.416667  0.083333     12.000000
 -0.250000  0.416667  0.083333     12.000000
 -0.166667  0.416667  0.083333     12.000000
 -0.083333  0.416667  0.083333     12.000000
  0.500000  0.500000  0.083333      6.000000
 -0.416667  0.500000  0.083333     12.000000
 -0.333333  0.500000  0.083333     12.000000
 -0.250000  0.500000  0.083333     12.000000
 -0.166667  0.500000  0.083333     12.000000
 -0.083333  0.500000  0.083333      6.000000
 -0.416667 -0.416667  0.083333      6.000000
 -0.333333 -0.416667  0.083333     12.000000
 -0.250000 -0.416667  0.083333     12.000000
 -0.166667 -0.416667  0.083333     12.000000
 -0.333333 -0.333333  0.083333      6.000000
 -0.250000 -0.333333  0.083333     12.000000
 -0.166667 -0.333333  0.083333     12.000000
 -0.250000 -0.250000  0.083333      6.000000
 -0.166667 -0.250000  0.083333     12.000000
 -0.166667 -0.166667  0.083333      6.000000
  0.166667  0.166667  0.166667      2.000000
  0.250000  0.166667  0.166667      6.000000
  0.333333  0.166667  0.166667      6.000000
  0.416667  0.166667  0.166667      6.000000
  0.500000  0.166667  0.166667      6.000000
 -0.416667  0.166667  0.166667      6.000000
 -0.333333  0.166667  0.166667      6.000000
 -0.250000  0.166667  0.166667      6.000000
 -0.166667  0.166667  0.166667      6.000000
  0.250000  0.250000  0.166667      6.000000
  0.333333  0.250000  0.166667     12.000000
  0.416667  0.250000  0.166667     12.000000
  0.500000  0.250000  0.166667     12.000000
 -0.416667  0.250000  0.166667     12.000000
 -0.333333  0.250000  0.166667     12.000000
 -0.250000  0.250000  0.166667     12.000000
 -0.166667  0.250000  0.166667     12.000000
  0.333333  0.333333  0.166667      6.000000
  0.416667  0.333333  0.166667     12.000000
  0.500000  0.333333  0.166667     12.000000
 -0.416667  0.333333  0.166667     12.000000
 -0.333333  0.333333  0.166667     12.000000
 -0.250000  0.333333  0.166667     12.000000
 -0.166667  0.333333  0.166667     12.000000
  0.416667  0.416667  0.166667      6.000000
  0.500000  0.416667  0.166667     12.000000
 -0.416667  0.416667  0.166667     12.000000
 -0.333333  0.416667  0.166667     12.000000
 -0.250000  0.416667  0.166667     12.000000
 -0.166667  0.416667  0.166667     12.000000
  0.500000  0.500000  0.166667      6.000000
 -0.416667  0.500000  0.166667     12.000000
 -0.333333  0.500000  0.166667     12.000000
 -0.250000  0.500000  0.166667     12.000000
 -0.166667  0.500000  0.166667      6.000000
 -0.416667 -0.416667  0.166667      6.000000
 -0.333333 -0.416667  0.166667     12.000000
 -0.250000 -0.416667  0.166667     12.000000
 -0.333333 -0.333333  0.166667      6.000000
 -0.250000 -0.333333  0.166667     12.000000
 -0.250000 -0.250000  0.166667      6.000000
  0.250000  0.250000  0.250000      2.000000
  0.333333  0.250000  0.250000      6.000000
  0.416667  0.250000  0.250000      6.000000
  0.500000  0.250000  0.250000      6.000000
 -0.416667  0.250000  0.250000      6.000000
 -0.333333  0.250000  0.250000      6.000000
 -0.250000  0.250000  0.250000      6.000000
  0.333333  0.333333  0.250000      6.000000
  0.416667  0.333333  0.250000     12.000000
  0.500000  0.333333  0.250000     12.000000
 -0.416667  0.333333  0.250000     12.000000
 -0.333333  0.333333  0.250000     12.000000
 -0.250000  0.333333  0.250000     12.000000
  0.416667  0.416667  0.250000      6.000000
  0.500000  0.416667  0.250000     12.000000
 -0.416667  0.416667  0.250000     12.000000
 -0.333333  0.416667  0.250000     12.000000
 -0.250000  0.416667  0.250000     12.000000
  0.500000  0.500000  0.250000      6.000000
 -0.416667  0.500000  0.250000     12.000000
 -0.333333  0.500000  0.250000     12.000000
 -0.250000  0.500000  0.250000      6.000000
 -0.416667 -0.416667  0.250000      6.000000
 -0.333333 -0.416667  0.250000     12.000000
 -0.333333 -0.333333  0.250000      6.000000
  0.333333  0.333333  0.333333      2.000000
  0.416667  0.333333  0.333333      6.000000
  0.500000  0.333333  0.333333      6.000000
 -0.416667  0.333333  0.333333      6.000000
 -0.333333  0.333333  0.333333      6.000000
  0.416667  0.416667  0.333333      6.000000
  0.500000  0.416667  0.333333     12.000000
 -0.416667  0.416667  0.333333     12.000000
 -0.333333  0.416667  0.333333     12.000000
  0.500000  0.500000  0.333333      6.000000
 -0.416667  0.500000  0.333333     12.000000
 -0.333333  0.500000  0.333333      6.000000
 -0.416667 -0.416667  0.333333      6.000000
  0.416667  0.416667  0.416667      2.000000
  0.500000  0.416667  0.416667      6.000000
 -0.416667  0.416667  0.416667      6.000000
  0.500000  0.500000  0.416667      6.000000
 -0.416667  0.500000  0.416667      6.000000
  0.500000  0.500000  0.500000      1.000000
 
 Following cartesian coordinates:
            Coordinates               Weight
  0.000000  0.000000  0.000000      1.000000
  0.023318  0.000233  0.000236      6.000000
  0.046637  0.000466  0.000471      6.000000
  0.069955  0.000700  0.000707      6.000000
  0.093274  0.000933  0.000942      6.000000
  0.116592  0.001166  0.001178      6.000000
  0.139911  0.001399  0.001413      3.000000
  0.023318  0.023553  0.000471      6.000000
  0.046637  0.023786  0.000707     12.000000
  0.069955  0.024019  0.000942     12.000000
  0.093274  0.024252  0.001178     12.000000
  0.116592  0.024486  0.001413     12.000000
  0.139911  0.024719  0.001649     12.000000
 -0.116592  0.022154 -0.000942     12.000000
 -0.093274  0.022387 -0.000707     12.000000
 -0.069955  0.022620 -0.000471     12.000000
 -0.046637  0.022853 -0.000236     12.000000
 -0.023318  0.023086 -0.000000      6.000000
  0.046637  0.047106  0.000942      6.000000
  0.069955  0.047339  0.001178     12.000000
  0.093274  0.047572  0.001413     12.000000
  0.116592  0.047805  0.001649     12.000000
  0.139911  0.048038  0.001885     12.000000
 -0.116592  0.045473 -0.000707     12.000000
 -0.093274  0.045706 -0.000471     12.000000
 -0.069955  0.045940 -0.000236     12.000000
 -0.046637  0.046173 -0.000000      6.000000
  0.069955  0.070658  0.001413      6.000000
  0.093274  0.070892  0.001649     12.000000
  0.116592  0.071125  0.001884     12.000000
  0.139911  0.071358  0.002120     12.000000
 -0.116592  0.068793 -0.000471     12.000000
 -0.093274  0.069026 -0.000236     12.000000
 -0.069955  0.069259 -0.000000      6.000000
  0.093274  0.094211  0.001884      6.000000
  0.116592  0.094444  0.002120     12.000000
  0.139911  0.094678  0.002356     12.000000
 -0.116592  0.092112 -0.000236     12.000000
 -0.093274  0.092346 -0.000000      6.000000
  0.116592  0.117764  0.002356      6.000000
  0.139911  0.117997  0.002591     12.000000
 -0.116592  0.115432 -0.000000      6.000000
  0.139911  0.141317  0.002827      3.000000
  0.023318  0.023553  0.023792      2.000000
  0.046637  0.023786  0.024027      6.000000
  0.069955  0.024019  0.024263      6.000000
  0.093274  0.024252  0.024499      6.000000
  0.116592  0.024486  0.024734      6.000000
  0.139911  0.024719  0.024970      6.000000
 -0.116592  0.022154  0.022379      6.000000
 -0.093274  0.022387  0.022614      6.000000
 -0.069955  0.022620  0.022850      6.000000
 -0.046637  0.022853  0.023085      6.000000
 -0.023318  0.023086  0.023321      6.000000
  0.046637  0.047106  0.024263      6.000000
  0.069955  0.047339  0.024499     12.000000
  0.093274  0.047572  0.024734     12.000000
  0.116592  0.047805  0.024970     12.000000
  0.139911  0.048038  0.025205     12.000000
 -0.116592  0.045473  0.022614     12.000000
 -0.093274  0.045706  0.022850     12.000000
 -0.069955  0.045940  0.023085     12.000000
 -0.046637  0.046173  0.023321     12.000000
 -0.023318  0.046406  0.023556     12.000000
  0.069955  0.070658  0.024734      6.000000
  0.093274  0.070892  0.024970     12.000000
  0.116592  0.071125  0.025205     12.000000
  0.139911  0.071358  0.025441     12.000000
 -0.116592  0.068793  0.022850     12.000000
 -0.093274  0.069026  0.023085     12.000000
 -0.069955  0.069259  0.023321     12.000000
 -0.046637  0.069492  0.023556     12.000000
 -0.023318  0.069726  0.023792     12.000000
  0.093274  0.094211  0.025205      6.000000
  0.116592  0.094444  0.025441     12.000000
  0.139911  0.094678  0.025676     12.000000
 -0.116592  0.092112  0.023085     12.000000
 -0.093274  0.092346  0.023321     12.000000
 -0.069955  0.092579  0.023556     12.000000
 -0.046637  0.092812  0.023792     12.000000
 -0.023318  0.093045  0.024027     12.000000
  0.116592  0.117764  0.025676      6.000000
  0.139911  0.117997  0.025912     12.000000
 -0.116592  0.115432  0.023321     12.000000
 -0.093274  0.115665  0.023556     12.000000
 -0.069955  0.115898  0.023792     12.000000
 -0.046637  0.116132  0.024027     12.000000
 -0.023318  0.116365  0.024263     12.000000
  0.139911  0.141317  0.026148      6.000000
 -0.116592  0.138752  0.023556     12.000000
 -0.093274  0.138985  0.023792     12.000000
 -0.069955  0.139218  0.024027     12.000000
 -0.046637  0.139451  0.024263     12.000000
 -0.023318  0.139684  0.024499      6.000000
 -0.116592 -0.117764  0.020965      6.000000
 -0.093274 -0.117531  0.021201     12.000000
 -0.069955 -0.117298  0.021436     12.000000
 -0.046637 -0.117064  0.021672     12.000000
 -0.093274 -0.094211  0.021436      6.000000
 -0.069955 -0.093978  0.021672     12.000000
 -0.046637 -0.093745  0.021907     12.000000
 -0.069955 -0.070658  0.021907      6.000000
 -0.046637 -0.070425  0.022143     12.000000
 -0.046637 -0.047106  0.022379      6.000000
  0.046637  0.047106  0.047584      2.000000
  0.069955  0.047339  0.047819      6.000000
  0.093274  0.047572  0.048055      6.000000
  0.116592  0.047805  0.048291      6.000000
  0.139911  0.048038  0.048526      6.000000
 -0.116592  0.045473  0.045935      6.000000
 -0.093274  0.045706  0.046170      6.000000
 -0.069955  0.045940  0.046406      6.000000
 -0.046637  0.046173  0.046642      6.000000
  0.069955  0.070658  0.048055      6.000000
  0.093274  0.070892  0.048291     12.000000
  0.116592  0.071125  0.048526     12.000000
  0.139911  0.071358  0.048762     12.000000
 -0.116592  0.068793  0.046170     12.000000
 -0.093274  0.069026  0.046406     12.000000
 -0.069955  0.069259  0.046642     12.000000
 -0.046637  0.069492  0.046877     12.000000
  0.093274  0.094211  0.048526      6.000000
  0.116592  0.094444  0.048762     12.000000
  0.139911  0.094678  0.048997     12.000000
 -0.116592  0.092112  0.046406     12.000000
 -0.093274  0.092346  0.046642     12.000000
 -0.069955  0.092579  0.046877     12.000000
 -0.046637  0.092812  0.047113     12.000000
  0.116592  0.117764  0.048997      6.000000
  0.139911  0.117997  0.049233     12.000000
 -0.116592  0.115432  0.046642     12.000000
 -0.093274  0.115665  0.046877     12.000000
 -0.069955  0.115898  0.047113     12.000000
 -0.046637  0.116132  0.047348     12.000000
  0.139911  0.141317  0.049468      6.000000
 -0.116592  0.138752  0.046877     12.000000
 -0.093274  0.138985  0.047113     12.000000
 -0.069955  0.139218  0.047348     12.000000
 -0.046637  0.139451  0.047584      6.000000
 -0.116592 -0.117764  0.044286      6.000000
 -0.093274 -0.117531  0.044522     12.000000
 -0.069955 -0.117298  0.044757     12.000000
 -0.093274 -0.094211  0.044757      6.000000
 -0.069955 -0.093978  0.044993     12.000000
 -0.069955 -0.070658  0.045228      6.000000
  0.069955  0.070658  0.071376      2.000000
  0.093274  0.070892  0.071611      6.000000
  0.116592  0.071125  0.071847      6.000000
  0.139911  0.071358  0.072082      6.000000
 -0.116592  0.068793  0.069491      6.000000
 -0.093274  0.069026  0.069727      6.000000
 -0.069955  0.069259  0.069962      6.000000
  0.093274  0.094211  0.071847      6.000000
  0.116592  0.094444  0.072082     12.000000
  0.139911  0.094678  0.072318     12.000000
 -0.116592  0.092112  0.069727     12.000000
 -0.093274  0.092346  0.069962     12.000000
 -0.069955  0.092579  0.070198     12.000000
  0.116592  0.117764  0.072318      6.000000
  0.139911  0.117997  0.072554     12.000000
 -0.116592  0.115432  0.069962     12.000000
 -0.093274  0.115665  0.070198     12.000000
 -0.069955  0.115898  0.070434     12.000000
  0.139911  0.141317  0.072789      6.000000
 -0.116592  0.138752  0.070198     12.000000
 -0.093274  0.138985  0.070433     12.000000
 -0.069955  0.139218  0.070669      6.000000
 -0.116592 -0.117764  0.067607      6.000000
 -0.093274 -0.117531  0.067842     12.000000
 -0.093274 -0.094211  0.068078      6.000000
  0.093274  0.094211  0.095168      2.000000
  0.116592  0.094444  0.095403      6.000000
  0.139911  0.094678  0.095639      6.000000
 -0.116592  0.092112  0.093048      6.000000
 -0.093274  0.092346  0.093283      6.000000
  0.116592  0.117764  0.095639      6.000000
  0.139911  0.117997  0.095874     12.000000
 -0.116592  0.115432  0.093283     12.000000
 -0.093274  0.115665  0.093519     12.000000
  0.139911  0.141317  0.096110      6.000000
 -0.116592  0.138752  0.093519     12.000000
 -0.093274  0.138985  0.093754      6.000000
 -0.116592 -0.117764  0.090928      6.000000
  0.116592  0.117764  0.118960      2.000000
  0.139911  0.117997  0.119195      6.000000
 -0.116592  0.115432  0.116604      6.000000
  0.139911  0.141317  0.119431      6.000000
 -0.116592  0.138752  0.116840      6.000000
  0.139911  0.141317  0.142752      1.000000
 
 TETIRR: Found   2550 inequivalent tetrahedra from    10368


--------------------------------------------------------------------------------------------------------




 Dimension of arrays:
   k-points           NKPTS =    189   k-points in BZ     NKDIM =    189   number of bands    NBANDS=     24
   number of dos      NEDOS =    301   number of ions     NIONS =      8
   non local maximal  LDIM  =      4   non local SUM 2l+1 LMDIM =      8
   total plane-waves  NPLWV =  13824
   max r-space proj   IRMAX =      1   max aug-charges    IRDMAX=   3725
   dimension x,y,z NGX =    24 NGY =   24 NGZ =   24
   dimension x,y,z NGXF=    48 NGYF=   48 NGZF=   48
   support grid    NGXF=    48 NGYF=   48 NGZF=   48
   ions per type =               8
   NGX,Y,Z   is equivalent  to a cutoff of  11.11, 11.11, 11.11 a.u.
   NGXF,Y,Z  is equivalent  to a cutoff of  22.23, 22.23, 22.23 a.u.

 SYSTEM =  unknown system                          
 POSCAR =  C8                                      

 Startparameter for this run:
   NWRITE =      2    write-flag & timer
   PREC   = accura    normal or accurate (medium, high low for compatibility)
   ISTART =      0    job   : 0-new  1-cont  2-samecut
   ICHARG =      2    charge: 1-file 2-atom 10-const
   ISPIN  =      1    spin polarized calculation?
   LNONCOLLINEAR =      F non collinear calculations
   LSORBIT =      F    spin-orbit coupling
   INIWAV =      1    electr: 0-lowe 1-rand  2-diag
   LASPH  =      F    aspherical Exc in radial PAW
   METAGGA=      F    non-selfconsistent MetaGGA calc.

 Electronic Relaxation 1
   ENCUT  =  400.0 eV  29.40 Ry    5.42 a.u.   5.85  5.85  5.85*2*pi/ulx,y,z
   ENINI  =  400.0     initial cutoff
   ENAUG  =  644.9 eV  augmentation charge cutoff
   NELM   =     60;   NELMIN=  2; NELMDL= -5     # of ELM steps 
   EDIFF  = 0.1E-05   stopping-criterion for ELM
   LREAL  =      F    real-space projection
   NLSPLINE    = F    spline interpolate recip. space projectors
   LCOMPAT=      F    compatible to vasp.4.4
   GGA_COMPAT  = T    GGA compatible to vasp.4.4-vasp.4.6
   LMAXPAW     = -100 max onsite density
   LMAXMIX     =    2 max onsite mixed and CHGCAR
   VOSKOWN=      0    Vosko Wilk Nusair interpolation
   ROPT   =    0.00000
 Ionic relaxation
   EDIFFG = 0.1E-04   stopping-criterion for IOM
   NSW    =      0    number of steps for IOM
   NBLOCK =      1;   KBLOCK =      1    inner block; outer block 
   IBRION =     -1    ionic relax: 0-MD 1-quasi-New 2-CG
   NFREE  =      0    steps in history (QN), initial steepest desc. (CG)
   ISIF   =      2    stress and relaxation
   IWAVPR =     10    prediction:  0-non 1-charg 2-wave 3-comb
   ISYM   =      2    0-nonsym 1-usesym 2-fastsym
   LCORR  =      T    Harris-Foulkes like correction to forces

   POTIM  = 0.0200    time-step for ionic-motion
   TEIN   =    0.0    initial temperature
   TEBEG  =    0.0;   TEEND  =   0.0 temperature during run
   SMASS  =  -3.00    Nose mass-parameter (am)
   estimated Nose-frequenzy (Omega)   =  0.10E-29 period in steps =****** mass=  -0.295E-27a.u.
   SCALEE = 1.0000    scale energy and forces
   NPACO  =    256;   APACO  = 16.0  distance and # of slots for P.C.
   PSTRESS=    0.0 pullay stress

  Mass of Ions in am
   POMASS =  12.01
  Ionic Valenz
   ZVAL   =   4.00
  Atomic Wigner-Seitz radii
   RWIGS  =  -1.00
  virtual crystal weights 
   VCA    =   1.00
   NELECT =      32.0000    total number of electrons
   NUPDOWN=      -1.0000    fix difference up-down

 DOS related values:
   EMIN   =  10.00;   EMAX   =-10.00  energy-range for DOS
   EFERMI =   0.00
   ISMEAR =    -5;   SIGMA  =   0.06  broadening in eV -4-tet -1-fermi 0-gaus

 Electronic relaxation 2 (details)
   IALGO  =     38    algorithm
   LDIAG  =      T    sub-space diagonalisation (order eigenvalues)
   LSUBROT=      F    optimize rotation matrix (better conditioning)
   TURBO    =      0    0=normal 1=particle mesh
   IRESTART =      0    0=no restart 2=restart with 2 vectors
   NREBOOT  =      0    no. of reboots
   NMIN     =      0    reboot dimension
   EREF     =   0.00    reference energy to select bands
   IMIX   =      4    mixing-type and parameters
     AMIX     =   0.40;   BMIX     =  1.00
     AMIX_MAG =   1.60;   BMIX_MAG =  1.00
     AMIN     =   0.10
     WC   =   100.;   INIMIX=   1;  MIXPRE=   1;  MAXMIX= -45

 Intra band minimization:
   WEIMIN = 0.0000     energy-eigenvalue tresh-hold
   EBREAK =  0.10E-07  absolut break condition
   DEPER  =   0.30     relativ break condition  

   TIME   =   0.40     timestep for ELM

  volume/ion in A,a.u.               =       5.78        39.02
  Fermi-wavevector in a.u.,A,eV,Ry     =   1.447835  2.736011 28.520879  2.096225
  Thomas-Fermi vector in A             =   2.565744
 
 Write flags
   LWAVE        =      F    write WAVECAR
   LDOWNSAMPLE  =      F    k-point downsampling of WAVECAR
   LCHARG       =      F    write CHGCAR
   LVTOT        =      F    write LOCPOT, total local potential
   LVHAR        =      F    write LOCPOT, Hartree potential only
   LELF         =      F    write electronic localiz. function (ELF)
   LORBIT       =      0    0 simple, 1 ext, 2 COOP (PROOUT), +10 PAW based schemes


 Dipole corrections
   LMONO  =      F    monopole corrections only (constant potential shift)
   LDIPOL =      F    correct potential (dipole corrections)
   IDIPOL =      0    1-x, 2-y, 3-z, 4-all directions 
   EPSILON=  1.0000000 bulk dielectric constant

 Exchange correlation treatment:
   GGA     =    --    GGA type
   LEXCH   =     8    internal setting for exchange type
   VOSKOWN=      0    Vosko Wilk Nusair interpolation
   LHFCALC =     F    Hartree Fock is set to
   LHFONE  =     F    Hartree Fock one center treatment
   AEXX    =    0.0000 exact exchange contribution

 Linear response parameters
   LEPSILON=     F    determine dielectric tensor
   LRPA    =     F    only Hartree local field effects (RPA)
   LNABLA  =     F    use nabla operator in PAW spheres
   LVEL    =     F    velocity operator in full k-point grid
   LINTERFAST=   F  fast interpolation
   KINTER  =     0    interpolate to denser k-point grid
   CSHIFT  =0.1000    complex shift for real part using Kramers Kronig
   OMEGAMAX=  -1.0    maximum frequency
   DEG_THRESHOLD= 0.2000000E-02 threshold for treating states as degnerate
   RTIME   =   -0.100 relaxation time in fs
  (WPLASMAI=    0.000 imaginary part of plasma frequency in eV, 0.658/RTIME)
   DFIELD  = 0.0000000 0.0000000 0.0000000 field for delta impulse in time
 
 Orbital magnetization related:
   ORBITALMAG=     F  switch on orbital magnetization
   LCHIMAG   =     F  perturbation theory with respect to B field
   DQ        =  0.001000  dq finite difference perturbation B field
   LLRAUG    =     F  two centre corrections for induced B field



--------------------------------------------------------------------------------------------------------


 Static calculation
 charge density and potential will be updated during run
 non-spin polarized calculation
 Variant of blocked Davidson
 Davidson routine will perform the subspace rotation
 perform sub-space diagonalisation
    after iterative eigenvector-optimisation
 modified Broyden-mixing scheme, WC =      100.0
 initial mixing is a Kerker type mixing with AMIX =  0.4000 and BMIX =      1.0000
 Hartree-type preconditioning will be used
 using additional bands            8
 reciprocal scheme for non local part
 calculate Harris-corrections to forces 
   (improved forces if not selfconsistent)
 use gradient corrections 
 use of overlap-Matrix (Vanderbilt PP)
 Fermi weights with tetrahedron method with Bloechl corrections


--------------------------------------------------------------------------------------------------------


  energy-cutoff  :      400.00
  volume of cell :       46.26
      direct lattice vectors                 reciprocal lattice vectors
     3.589999359  0.000000000  0.000000000     0.278551582  0.002785648  0.002813929
    -0.035899893  3.589819543  0.000000000     0.000000000  0.278565535  0.002813915
    -0.035899893 -0.036260529  3.589636713     0.000000000  0.000000000  0.278579723

  length of vectors
     3.589999359  3.589999047  3.589999354     0.278579722  0.278579747  0.278579723


 
 k-points in units of 2pi/SCALE and weight: kpt_density=1000                        
   0.00000000  0.00000000  0.00000000       0.001
   0.02331844  0.00023320  0.00023556       0.003
   0.04663688  0.00046639  0.00047113       0.003
   0.06995531  0.00069959  0.00070669       0.003
   0.09327375  0.00093278  0.00094225       0.003
   0.11659219  0.00116598  0.00117781       0.003
   0.13991063  0.00139917  0.00141338       0.002
   0.02331844  0.02355280  0.00047112       0.003
   0.04663688  0.02378600  0.00070669       0.007
   0.06995531  0.02401919  0.00094225       0.007
   0.09327375  0.02425239  0.00117781       0.007
   0.11659219  0.02448558  0.00141338       0.007
   0.13991063  0.02471878  0.00164894       0.007
  -0.11659219  0.02215363 -0.00094225       0.007
  -0.09327375  0.02238682 -0.00070669       0.007
  -0.06995531  0.02262002 -0.00047113       0.007
  -0.04663688  0.02285321 -0.00023556       0.007
  -0.02331844  0.02308641 -0.00000000       0.003
   0.04663688  0.04710560  0.00094225       0.003
   0.06995531  0.04733880  0.00117781       0.007
   0.09327375  0.04757199  0.00141338       0.007
   0.11659219  0.04780519  0.00164894       0.007
   0.13991063  0.04803838  0.00188450       0.007
  -0.11659219  0.04547323 -0.00070669       0.007
  -0.09327375  0.04570643 -0.00047113       0.007
  -0.06995531  0.04593962 -0.00023557       0.007
  -0.04663688  0.04617282 -0.00000000       0.003
   0.06995531  0.07065840  0.00141337       0.003
   0.09327375  0.07089160  0.00164894       0.007
   0.11659219  0.07112479  0.00188450       0.007
   0.13991063  0.07135799  0.00212006       0.007
  -0.11659219  0.06879284 -0.00047113       0.007
  -0.09327375  0.06902604 -0.00023557       0.007
  -0.06995531  0.06925923 -0.00000000       0.003
   0.09327375  0.09421120  0.00188450       0.003
   0.11659219  0.09444440  0.00212006       0.007
   0.13991063  0.09467759  0.00235562       0.007
  -0.11659219  0.09211245 -0.00023557       0.007
  -0.09327375  0.09234564 -0.00000000       0.003
   0.11659219  0.11776400  0.00235562       0.003
   0.13991063  0.11799720  0.00259119       0.007
  -0.11659219  0.11543205 -0.00000001       0.003
   0.13991063  0.14131681  0.00282675       0.002
   0.02331844  0.02355280  0.02379192       0.001
   0.04663688  0.02378600  0.02402748       0.003
   0.06995531  0.02401919  0.02426304       0.003
   0.09327375  0.02425239  0.02449861       0.003
   0.11659219  0.02448558  0.02473417       0.003
   0.13991063  0.02471878  0.02496973       0.003
  -0.11659219  0.02215363  0.02237854       0.003
  -0.09327375  0.02238682  0.02261410       0.003
  -0.06995531  0.02262002  0.02284967       0.003
  -0.04663688  0.02285321  0.02308523       0.003
  -0.02331844  0.02308641  0.02332079       0.003
   0.04663688  0.04710560  0.02426304       0.003
   0.06995531  0.04733880  0.02449861       0.007
   0.09327375  0.04757199  0.02473417       0.007
   0.11659219  0.04780519  0.02496973       0.007
   0.13991063  0.04803838  0.02520529       0.007
  -0.11659219  0.04547323  0.02261410       0.007
  -0.09327375  0.04570643  0.02284967       0.007
  -0.06995531  0.04593962  0.02308523       0.007
  -0.04663688  0.04617282  0.02332079       0.007
  -0.02331844  0.04640602  0.02355635       0.007
   0.06995531  0.07065840  0.02473417       0.003
   0.09327375  0.07089160  0.02496973       0.007
   0.11659219  0.07112479  0.02520529       0.007
   0.13991063  0.07135799  0.02544086       0.007
  -0.11659219  0.06879284  0.02284966       0.007
  -0.09327375  0.06902604  0.02308523       0.007
  -0.06995531  0.06925923  0.02332079       0.007
  -0.04663688  0.06949243  0.02355635       0.007
  -0.02331844  0.06972562  0.02379192       0.007
   0.09327375  0.09421120  0.02520529       0.003
   0.11659219  0.09444440  0.02544085       0.007
   0.13991063  0.09467759  0.02567642       0.007
  -0.11659219  0.09211245  0.02308523       0.007
  -0.09327375  0.09234564  0.02332079       0.007
  -0.06995531  0.09257884  0.02355635       0.007
  -0.04663688  0.09281203  0.02379191       0.007
  -0.02331844  0.09304523  0.02402748       0.007
   0.11659219  0.11776400  0.02567642       0.003
   0.13991063  0.11799720  0.02591198       0.007
  -0.11659219  0.11543205  0.02332079       0.007
  -0.09327375  0.11566525  0.02355635       0.007
  -0.06995531  0.11589844  0.02379191       0.007
  -0.04663688  0.11613164  0.02402748       0.007
  -0.02331844  0.11636483  0.02426304       0.007
   0.13991063  0.14131681  0.02614754       0.003
  -0.11659219  0.13875166  0.02355635       0.007
  -0.09327375  0.13898485  0.02379191       0.007
  -0.06995531  0.13921805  0.02402748       0.007
  -0.04663688  0.13945124  0.02426304       0.007
  -0.02331844  0.13968444  0.02449860       0.003
  -0.11659219 -0.11776400  0.02096517       0.003
  -0.09327375 -0.11753081  0.02120073       0.007
  -0.06995531 -0.11729761  0.02143630       0.007
  -0.04663688 -0.11706442  0.02167186       0.007
  -0.09327375 -0.09421120  0.02143629       0.003
  -0.06995531 -0.09397801  0.02167186       0.007
  -0.04663688 -0.09374481  0.02190742       0.007
  -0.06995531 -0.07065840  0.02190742       0.003
  -0.04663688 -0.07042521  0.02214298       0.007
  -0.04663688 -0.04710560  0.02237854       0.003
   0.04663688  0.04710560  0.04758384       0.001
   0.06995531  0.04733880  0.04781940       0.003
   0.09327375  0.04757199  0.04805496       0.003
   0.11659219  0.04780519  0.04829052       0.003
   0.13991063  0.04803838  0.04852609       0.003
  -0.11659219  0.04547323  0.04593490       0.003
  -0.09327375  0.04570643  0.04617046       0.003
  -0.06995531  0.04593962  0.04640602       0.003
  -0.04663688  0.04617282  0.04664158       0.003
   0.06995531  0.07065840  0.04805496       0.003
   0.09327375  0.07089160  0.04829052       0.007
   0.11659219  0.07112479  0.04852609       0.007
   0.13991063  0.07135799  0.04876165       0.007
  -0.11659219  0.06879284  0.04617046       0.007
  -0.09327375  0.06902604  0.04640602       0.007
  -0.06995531  0.06925923  0.04664158       0.007
  -0.04663688  0.06949243  0.04687715       0.007
   0.09327375  0.09421120  0.04852609       0.003
   0.11659219  0.09444440  0.04876165       0.007
   0.13991063  0.09467759  0.04899721       0.007
  -0.11659219  0.09211245  0.04640602       0.007
  -0.09327375  0.09234564  0.04664158       0.007
  -0.06995531  0.09257884  0.04687715       0.007
  -0.04663688  0.09281203  0.04711271       0.007
   0.11659219  0.11776400  0.04899721       0.003
   0.13991063  0.11799720  0.04923277       0.007
  -0.11659219  0.11543205  0.04664158       0.007
  -0.09327375  0.11566525  0.04687714       0.007
  -0.06995531  0.11589844  0.04711271       0.007
  -0.04663688  0.11613164  0.04734827       0.007
   0.13991063  0.14131681  0.04946833       0.003
  -0.11659219  0.13875166  0.04687714       0.007
  -0.09327375  0.13898485  0.04711271       0.007
  -0.06995531  0.13921805  0.04734827       0.007
  -0.04663688  0.13945124  0.04758383       0.003
  -0.11659219 -0.11776400  0.04428596       0.003
  -0.09327375 -0.11753081  0.04452153       0.007
  -0.06995531 -0.11729761  0.04475709       0.007
  -0.09327375 -0.09421120  0.04475709       0.003
  -0.06995531 -0.09397801  0.04499265       0.007
  -0.06995531 -0.07065840  0.04522821       0.003
   0.06995531  0.07065840  0.07137575       0.001
   0.09327375  0.07089160  0.07161132       0.003
   0.11659219  0.07112479  0.07184688       0.003
   0.13991063  0.07135799  0.07208244       0.003
  -0.11659219  0.06879284  0.06949125       0.003
  -0.09327375  0.06902604  0.06972681       0.003
  -0.06995531  0.06925923  0.06996238       0.003
   0.09327375  0.09421120  0.07184688       0.003
   0.11659219  0.09444440  0.07208244       0.007
   0.13991063  0.09467759  0.07231800       0.007
  -0.11659219  0.09211245  0.06972681       0.007
  -0.09327375  0.09234564  0.06996238       0.007
  -0.06995531  0.09257884  0.07019794       0.007
   0.11659219  0.11776400  0.07231800       0.003
   0.13991063  0.11799720  0.07255357       0.007
  -0.11659219  0.11543205  0.06996237       0.007
  -0.09327375  0.11566525  0.07019794       0.007
  -0.06995531  0.11589844  0.07043350       0.007
   0.13991063  0.14131681  0.07278913       0.003
  -0.11659219  0.13875166  0.07019794       0.007
  -0.09327375  0.13898485  0.07043350       0.007
  -0.06995531  0.13921805  0.07066906       0.003
  -0.11659219 -0.11776400  0.06760676       0.003
  -0.09327375 -0.11753081  0.06784232       0.007
  -0.09327375 -0.09421120  0.06807788       0.003
   0.09327375  0.09421120  0.09516767       0.001
   0.11659219  0.09444440  0.09540323       0.003
   0.13991063  0.09467759  0.09563880       0.003
  -0.11659219  0.09211245  0.09304761       0.003
  -0.09327375  0.09234564  0.09328317       0.003
   0.11659219  0.11776400  0.09563880       0.003
   0.13991063  0.11799720  0.09587436       0.007
  -0.11659219  0.11543205  0.09328317       0.007
  -0.09327375  0.11566525  0.09351873       0.007
   0.13991063  0.14131681  0.09610992       0.003
  -0.11659219  0.13875166  0.09351873       0.007
  -0.09327375  0.13898485  0.09375429       0.003
  -0.11659219 -0.11776400  0.09092755       0.003
   0.11659219  0.11776400  0.11895959       0.001
   0.13991063  0.11799720  0.11919515       0.003
  -0.11659219  0.11543205  0.11660396       0.003
   0.13991063  0.14131681  0.11943071       0.003
  -0.11659219  0.13875166  0.11683952       0.003
   0.13991063  0.14131681  0.14275151       0.001
 
 k-points in reciprocal lattice and weights: kpt_density=1000                        
   0.00000000  0.00000000  0.00000000       0.001
   0.08333333 -0.00000000 -0.00000000       0.003
   0.16666667 -0.00000000 -0.00000000       0.003
   0.25000000 -0.00000000 -0.00000000       0.003
   0.33333333 -0.00000000 -0.00000000       0.003
   0.41666667 -0.00000000 -0.00000000       0.003
   0.50000000 -0.00000000 -0.00000000       0.002
   0.08333333  0.08333333  0.00000000       0.003
   0.16666667  0.08333333  0.00000000       0.007
   0.25000000  0.08333333 -0.00000000       0.007
   0.33333333  0.08333333 -0.00000000       0.007
   0.41666667  0.08333333 -0.00000000       0.007
   0.50000000  0.08333333  0.00000000       0.007
  -0.41666667  0.08333333 -0.00000000       0.007
  -0.33333333  0.08333333  0.00000000       0.007
  -0.25000000  0.08333333  0.00000000       0.007
  -0.16666667  0.08333333  0.00000000       0.007
  -0.08333333  0.08333333 -0.00000000       0.003
   0.16666667  0.16666667  0.00000000       0.003
   0.25000000  0.16666667 -0.00000000       0.007
   0.33333333  0.16666667 -0.00000000       0.007
   0.41666667  0.16666667 -0.00000000       0.007
   0.50000000  0.16666667  0.00000000       0.007
  -0.41666667  0.16666667  0.00000000       0.007
  -0.33333333  0.16666667  0.00000000       0.007
  -0.25000000  0.16666667  0.00000000       0.007
  -0.16666667  0.16666667 -0.00000000       0.003
   0.25000000  0.25000000  0.00000000       0.003
   0.33333333  0.25000000  0.00000000       0.007
   0.41666667  0.25000000 -0.00000000       0.007
   0.50000000  0.25000000 -0.00000000       0.007
  -0.41666667  0.25000000  0.00000000       0.007
  -0.33333333  0.25000000  0.00000000       0.007
  -0.25000000  0.25000000  0.00000000       0.003
   0.33333333  0.33333333 -0.00000000       0.003
   0.41666667  0.33333333 -0.00000000       0.007
   0.50000000  0.33333333 -0.00000000       0.007
  -0.41666667  0.33333333  0.00000000       0.007
  -0.33333333  0.33333333  0.00000000       0.003
   0.41666667  0.41666667 -0.00000000       0.003
   0.50000000  0.41666667 -0.00000000       0.007
  -0.41666667  0.41666667 -0.00000000       0.003
   0.50000000  0.50000000  0.00000000       0.002
   0.08333333  0.08333333  0.08333333       0.001
   0.16666667  0.08333333  0.08333333       0.003
   0.25000000  0.08333333  0.08333333       0.003
   0.33333333  0.08333333  0.08333333       0.003
   0.41666667  0.08333333  0.08333333       0.003
   0.50000000  0.08333333  0.08333333       0.003
  -0.41666667  0.08333333  0.08333333       0.003
  -0.33333333  0.08333333  0.08333333       0.003
  -0.25000000  0.08333333  0.08333333       0.003
  -0.16666667  0.08333333  0.08333333       0.003
  -0.08333333  0.08333333  0.08333333       0.003
   0.16666667  0.16666667  0.08333333       0.003
   0.25000000  0.16666667  0.08333333       0.007
   0.33333333  0.16666667  0.08333333       0.007
   0.41666667  0.16666667  0.08333333       0.007
   0.50000000  0.16666667  0.08333333       0.007
  -0.41666667  0.16666667  0.08333333       0.007
  -0.33333333  0.16666667  0.08333333       0.007
  -0.25000000  0.16666667  0.08333333       0.007
  -0.16666667  0.16666667  0.08333333       0.007
  -0.08333333  0.16666667  0.08333333       0.007
   0.25000000  0.25000000  0.08333333       0.003
   0.33333333  0.25000000  0.08333333       0.007
   0.41666667  0.25000000  0.08333333       0.007
   0.50000000  0.25000000  0.08333333       0.007
  -0.41666667  0.25000000  0.08333333       0.007
  -0.33333333  0.25000000  0.08333333       0.007
  -0.25000000  0.25000000  0.08333333       0.007
  -0.16666667  0.25000000  0.08333333       0.007
  -0.08333333  0.25000000  0.08333333       0.007
   0.33333333  0.33333333  0.08333333       0.003
   0.41666667  0.33333333  0.08333333       0.007
   0.50000000  0.33333333  0.08333333       0.007
  -0.41666667  0.33333333  0.08333333       0.007
  -0.33333333  0.33333333  0.08333333       0.007
  -0.25000000  0.33333333  0.08333333       0.007
  -0.16666667  0.33333333  0.08333333       0.007
  -0.08333333  0.33333333  0.08333333       0.007
   0.41666667  0.41666667  0.08333333       0.003
   0.50000000  0.41666667  0.08333333       0.007
  -0.41666667  0.41666667  0.08333333       0.007
  -0.33333333  0.41666667  0.08333333       0.007
  -0.25000000  0.41666667  0.08333333       0.007
  -0.16666667  0.41666667  0.08333333       0.007
  -0.08333333  0.41666667  0.08333333       0.007
   0.50000000  0.50000000  0.08333333       0.003
  -0.41666667  0.50000000  0.08333333       0.007
  -0.33333333  0.50000000  0.08333333       0.007
  -0.25000000  0.50000000  0.08333333       0.007
  -0.16666667  0.50000000  0.08333333       0.007
  -0.08333333  0.50000000  0.08333333       0.003
  -0.41666667 -0.41666667  0.08333333       0.003
  -0.33333333 -0.41666667  0.08333333       0.007
  -0.25000000 -0.41666667  0.08333333       0.007
  -0.16666667 -0.41666667  0.08333333       0.007
  -0.33333333 -0.33333333  0.08333333       0.003
  -0.25000000 -0.33333333  0.08333333       0.007
  -0.16666667 -0.33333333  0.08333333       0.007
  -0.25000000 -0.25000000  0.08333333       0.003
  -0.16666667 -0.25000000  0.08333333       0.007
  -0.16666667 -0.16666667  0.08333333       0.003
   0.16666667  0.16666667  0.16666667       0.001
   0.25000000  0.16666667  0.16666667       0.003
   0.33333333  0.16666667  0.16666667       0.003
   0.41666667  0.16666667  0.16666667       0.003
   0.50000000  0.16666667  0.16666667       0.003
  -0.41666667  0.16666667  0.16666667       0.003
  -0.33333333  0.16666667  0.16666667       0.003
  -0.25000000  0.16666667  0.16666667       0.003
  -0.16666667  0.16666667  0.16666667       0.003
   0.25000000  0.25000000  0.16666667       0.003
   0.33333333  0.25000000  0.16666667       0.007
   0.41666667  0.25000000  0.16666667       0.007
   0.50000000  0.25000000  0.16666667       0.007
  -0.41666667  0.25000000  0.16666667       0.007
  -0.33333333  0.25000000  0.16666667       0.007
  -0.25000000  0.25000000  0.16666667       0.007
  -0.16666667  0.25000000  0.16666667       0.007
   0.33333333  0.33333333  0.16666667       0.003
   0.41666667  0.33333333  0.16666667       0.007
   0.50000000  0.33333333  0.16666667       0.007
  -0.41666667  0.33333333  0.16666667       0.007
  -0.33333333  0.33333333  0.16666667       0.007
  -0.25000000  0.33333333  0.16666667       0.007
  -0.16666667  0.33333333  0.16666667       0.007
   0.41666667  0.41666667  0.16666667       0.003
   0.50000000  0.41666667  0.16666667       0.007
  -0.41666667  0.41666667  0.16666667       0.007
  -0.33333333  0.41666667  0.16666667       0.007
  -0.25000000  0.41666667  0.16666667       0.007
  -0.16666667  0.41666667  0.16666667       0.007
   0.50000000  0.50000000  0.16666667       0.003
  -0.41666667  0.50000000  0.16666667       0.007
  -0.33333333  0.50000000  0.16666667       0.007
  -0.25000000  0.50000000  0.16666667       0.007
  -0.16666667  0.50000000  0.16666667       0.003
  -0.41666667 -0.41666667  0.16666667       0.003
  -0.33333333 -0.41666667  0.16666667       0.007
  -0.25000000 -0.41666667  0.16666667       0.007
  -0.33333333 -0.33333333  0.16666667       0.003
  -0.25000000 -0.33333333  0.16666667       0.007
  -0.25000000 -0.25000000  0.16666667       0.003
   0.25000000  0.25000000  0.25000000       0.001
   0.33333333  0.25000000  0.25000000       0.003
   0.41666667  0.25000000  0.25000000       0.003
   0.50000000  0.25000000  0.25000000       0.003
  -0.41666667  0.25000000  0.25000000       0.003
  -0.33333333  0.25000000  0.25000000       0.003
  -0.25000000  0.25000000  0.25000000       0.003
   0.33333333  0.33333333  0.25000000       0.003
   0.41666667  0.33333333  0.25000000       0.007
   0.50000000  0.33333333  0.25000000       0.007
  -0.41666667  0.33333333  0.25000000       0.007
  -0.33333333  0.33333333  0.25000000       0.007
  -0.25000000  0.33333333  0.25000000       0.007
   0.41666667  0.41666667  0.25000000       0.003
   0.50000000  0.41666667  0.25000000       0.007
  -0.41666667  0.41666667  0.25000000       0.007
  -0.33333333  0.41666667  0.25000000       0.007
  -0.25000000  0.41666667  0.25000000       0.007
   0.50000000  0.50000000  0.25000000       0.003
  -0.41666667  0.50000000  0.25000000       0.007
  -0.33333333  0.50000000  0.25000000       0.007
  -0.25000000  0.50000000  0.25000000       0.003
  -0.41666667 -0.41666667  0.25000000       0.003
  -0.33333333 -0.41666667  0.25000000       0.007
  -0.33333333 -0.33333333  0.25000000       0.003
   0.33333333  0.33333333  0.33333333       0.001
   0.41666667  0.33333333  0.33333333       0.003
   0.50000000  0.33333333  0.33333333       0.003
  -0.41666667  0.33333333  0.33333333       0.003
  -0.33333333  0.33333333  0.33333333       0.003
   0.41666667  0.41666667  0.33333333       0.003
   0.50000000  0.41666667  0.33333333       0.007
  -0.41666667  0.41666667  0.33333333       0.007
  -0.33333333  0.41666667  0.33333333       0.007
   0.50000000  0.50000000  0.33333333       0.003
  -0.41666667  0.50000000  0.33333333       0.007
  -0.33333333  0.50000000  0.33333333       0.003
  -0.41666667 -0.41666667  0.33333333       0.003
   0.41666667  0.41666667  0.41666667       0.001
   0.50000000  0.41666667  0.41666667       0.003
  -0.41666667  0.41666667  0.41666667       0.003
   0.50000000  0.50000000  0.41666667       0.003
  -0.41666667  0.50000000  0.41666667       0.003
   0.50000000  0.50000000  0.50000000       0.001
 
 position of ions in fractional coordinates (direct lattice) 
   0.25000000  0.75000000  0.25000000
   0.00000000  0.00000000  0.50000000
   0.25000000  0.25000000  0.75000000
   0.00000000  0.50000000  0.00000000
   0.75000000  0.75000000  0.75000000
   0.50000000  0.00000000  0.00000000
   0.75000000  0.25000000  0.25000000
   0.50000000  0.50000000  0.50000000
 
 position of ions in cartesian coordinates  (Angst):
   0.86159995  2.68329952  0.89740918
  -0.01794995 -0.01813026  1.79481836
   0.86159995  0.87025949  2.69222754
  -0.01794995  1.79490977  0.00000000
   2.63864968  2.66516926  2.69222754
   1.79499968  0.00000000  0.00000000
   2.67454957  0.88838975  0.89740918
   1.75909979  1.77677951  1.79481836
 


--------------------------------------------------------------------------------------------------------


 k-point  1 :   0.0000 0.0000 0.0000  plane waves:     829
 k-point  2 :   0.0833-0.0000-0.0000  plane waves:     834
 k-point  3 :   0.1667-0.0000-0.0000  plane waves:     830
 k-point  4 :   0.2500-0.0000-0.0000  plane waves:     836
 k-point  5 :   0.3333-0.0000-0.0000  plane waves:     836
 k-point  6 :   0.4167-0.0000-0.0000  plane waves:     839
 k-point  7 :   0.5000-0.0000-0.0000  plane waves:     836
 k-point  8 :   0.0833 0.0833 0.0000  plane waves:     837
 k-point  9 :   0.1667 0.0833 0.0000  plane waves:     833
 k-point 10 :   0.2500 0.0833-0.0000  plane waves:     837
 k-point 11 :   0.3333 0.0833-0.0000  plane waves:     842
 k-point 12 :   0.4167 0.0833-0.0000  plane waves:     839
 k-point 13 :   0.5000 0.0833 0.0000  plane waves:     836
 k-point 14 :  -0.4167 0.0833-0.0000  plane waves:     838
 k-point 15 :  -0.3333 0.0833 0.0000  plane waves:     838
 k-point 16 :  -0.2500 0.0833 0.0000  plane waves:     832
 k-point 17 :  -0.1667 0.0833 0.0000  plane waves:     835
 k-point 18 :  -0.0833 0.0833-0.0000  plane waves:     837
 k-point 19 :   0.1667 0.1667 0.0000  plane waves:     845
 k-point 20 :   0.2500 0.1667-0.0000  plane waves:     838
 k-point 21 :   0.3333 0.1667-0.0000  plane waves:     843
 k-point 22 :   0.4167 0.1667-0.0000  plane waves:     843
 k-point 23 :   0.5000 0.1667 0.0000  plane waves:     840
 k-point 24 :  -0.4167 0.1667 0.0000  plane waves:     839
 k-point 25 :  -0.3333 0.1667 0.0000  plane waves:     840
 k-point 26 :  -0.2500 0.1667 0.0000  plane waves:     835
 k-point 27 :  -0.1667 0.1667-0.0000  plane waves:     832
 k-point 28 :   0.2500 0.2500 0.0000  plane waves:     842
 k-point 29 :   0.3333 0.2500 0.0000  plane waves:     844
 k-point 30 :   0.4167 0.2500-0.0000  plane waves:     841
 k-point 31 :   0.5000 0.2500-0.0000  plane waves:     839
 k-point 32 :  -0.4167 0.2500 0.0000  plane waves:     842
 k-point 33 :  -0.3333 0.2500 0.0000  plane waves:     843
 k-point 34 :  -0.2500 0.2500 0.0000  plane waves:     832
 k-point 35 :   0.3333 0.3333-0.0000  plane waves:     844
 k-point 36 :   0.4167 0.3333-0.0000  plane waves:     842
 k-point 37 :   0.5000 0.3333-0.0000  plane waves:     834
 k-point 38 :  -0.4167 0.3333 0.0000  plane waves:     839
 k-point 39 :  -0.3333 0.3333 0.0000  plane waves:     842
 k-point 40 :   0.4167 0.4167-0.0000  plane waves:     846
 k-point 41 :   0.5000 0.4167-0.0000  plane waves:     844
 k-point 42 :  -0.4167 0.4167-0.0000  plane waves:     846
 k-point 43 :   0.5000 0.5000 0.0000  plane waves:     852
 k-point 44 :   0.0833 0.0833 0.0833  plane waves:     841
 k-point 45 :   0.1667 0.0833 0.0833  plane waves:     837
 k-point 46 :   0.2500 0.0833 0.0833  plane waves:     841
 k-point 47 :   0.3333 0.0833 0.0833  plane waves:     842
 k-point 48 :   0.4167 0.0833 0.0833  plane waves:     846
 k-point 49 :   0.5000 0.0833 0.0833  plane waves:     838
 k-point 50 :  -0.4167 0.0833 0.0833  plane waves:     842
 k-point 51 :  -0.3333 0.0833 0.0833  plane waves:     839
 k-point 52 :  -0.2500 0.0833 0.0833  plane waves:     829
 k-point 53 :  -0.1667 0.0833 0.0833  plane waves:     830
 k-point 54 :  -0.0833 0.0833 0.0833  plane waves:     834
 k-point 55 :   0.1667 0.1667 0.0833  plane waves:     839
 k-point 56 :   0.2500 0.1667 0.0833  plane waves:     841
 k-point 57 :   0.3333 0.1667 0.0833  plane waves:     845
 k-point 58 :   0.4167 0.1667 0.0833  plane waves:     840
 k-point 59 :   0.5000 0.1667 0.0833  plane waves:     839
 k-point 60 :  -0.4167 0.1667 0.0833  plane waves:     839
 k-point 61 :  -0.3333 0.1667 0.0833  plane waves:     836
 k-point 62 :  -0.2500 0.1667 0.0833  plane waves:     835
 k-point 63 :  -0.1667 0.1667 0.0833  plane waves:     829
 k-point 64 :  -0.0833 0.1667 0.0833  plane waves:     835
 k-point 65 :   0.2500 0.2500 0.0833  plane waves:     843
 k-point 66 :   0.3333 0.2500 0.0833  plane waves:     842
 k-point 67 :   0.4167 0.2500 0.0833  plane waves:     838
 k-point 68 :   0.5000 0.2500 0.0833  plane waves:     837
 k-point 69 :  -0.4167 0.2500 0.0833  plane waves:     839
 k-point 70 :  -0.3333 0.2500 0.0833  plane waves:     843
 k-point 71 :  -0.2500 0.2500 0.0833  plane waves:     840
 k-point 72 :  -0.1667 0.2500 0.0833  plane waves:     837
 k-point 73 :  -0.0833 0.2500 0.0833  plane waves:     835
 k-point 74 :   0.3333 0.3333 0.0833  plane waves:     846
 k-point 75 :   0.4167 0.3333 0.0833  plane waves:     839
 k-point 76 :   0.5000 0.3333 0.0833  plane waves:     840
 k-point 77 :  -0.4167 0.3333 0.0833  plane waves:     838
 k-point 78 :  -0.3333 0.3333 0.0833  plane waves:     846
 k-point 79 :  -0.2500 0.3333 0.0833  plane waves:     840
 k-point 80 :  -0.1667 0.3333 0.0833  plane waves:     842
 k-point 81 :  -0.0833 0.3333 0.0833  plane waves:     837
 k-point 82 :   0.4167 0.4167 0.0833  plane waves:     842
 k-point 83 :   0.5000 0.4167 0.0833  plane waves:     839
 k-point 84 :  -0.4167 0.4167 0.0833  plane waves:     837
 k-point 85 :  -0.3333 0.4167 0.0833  plane waves:     839
 k-point 86 :  -0.2500 0.4167 0.0833  plane waves:     844
 k-point 87 :  -0.1667 0.4167 0.0833  plane waves:     839
 k-point 88 :  -0.0833 0.4167 0.0833  plane waves:     838
 k-point 89 :   0.5000 0.5000 0.0833  plane waves:     845
 k-point 90 :  -0.4167 0.5000 0.0833  plane waves:     844
 k-point 91 :  -0.3333 0.5000 0.0833  plane waves:     837
 k-point 92 :  -0.2500 0.5000 0.0833  plane waves:     839
 k-point 93 :  -0.1667 0.5000 0.0833  plane waves:     840
 k-point 94 :  -0.0833 0.5000 0.0833  plane waves:     836
 k-point 95 :  -0.4167-0.4167 0.0833  plane waves:     841
 k-point 96 :  -0.3333-0.4167 0.0833  plane waves:     838
 k-point 97 :  -0.2500-0.4167 0.0833  plane waves:     844
 k-point 98 :  -0.1667-0.4167 0.0833  plane waves:     844
 k-point 99 :  -0.3333-0.3333 0.0833  plane waves:     844
 k-point ** :  -0.2500-0.3333 0.0833  plane waves:     845
 k-point ** :  -0.1667-0.3333 0.0833  plane waves:     839
 k-point ** :  -0.2500-0.2500 0.0833  plane waves:     842
 k-point ** :  -0.1667-0.2500 0.0833  plane waves:     836
 k-point ** :  -0.1667-0.1667 0.0833  plane waves:     832
 k-point ** :   0.1667 0.1667 0.1667  plane waves:     832
 k-point ** :   0.2500 0.1667 0.1667  plane waves:     836
 k-point ** :   0.3333 0.1667 0.1667  plane waves:     843
 k-point ** :   0.4167 0.1667 0.1667  plane waves:     840
 k-point ** :   0.5000 0.1667 0.1667  plane waves:     842
 k-point ** :  -0.4167 0.1667 0.1667  plane waves:     840
 k-point ** :  -0.3333 0.1667 0.1667  plane waves:     839
 k-point ** :  -0.2500 0.1667 0.1667  plane waves:     833
 k-point ** :  -0.1667 0.1667 0.1667  plane waves:     829
 k-point ** :   0.2500 0.2500 0.1667  plane waves:     846
 k-point ** :   0.3333 0.2500 0.1667  plane waves:     845
 k-point ** :   0.4167 0.2500 0.1667  plane waves:     839
 k-point ** :   0.5000 0.2500 0.1667  plane waves:     838
 k-point ** :  -0.4167 0.2500 0.1667  plane waves:     837
 k-point ** :  -0.3333 0.2500 0.1667  plane waves:     845
 k-point ** :  -0.2500 0.2500 0.1667  plane waves:     841
 k-point ** :  -0.1667 0.2500 0.1667  plane waves:     839
 k-point ** :   0.3333 0.3333 0.1667  plane waves:     842
 k-point ** :   0.4167 0.3333 0.1667  plane waves:     838
 k-point ** :   0.5000 0.3333 0.1667  plane waves:     835
 k-point ** :  -0.4167 0.3333 0.1667  plane waves:     838
 k-point ** :  -0.3333 0.3333 0.1667  plane waves:     843
 k-point ** :  -0.2500 0.3333 0.1667  plane waves:     847
 k-point ** :  -0.1667 0.3333 0.1667  plane waves:     843
 k-point ** :   0.4167 0.4167 0.1667  plane waves:     836
 k-point ** :   0.5000 0.4167 0.1667  plane waves:     840
 k-point ** :  -0.4167 0.4167 0.1667  plane waves:     842
 k-point ** :  -0.3333 0.4167 0.1667  plane waves:     834
 k-point ** :  -0.2500 0.4167 0.1667  plane waves:     839
 k-point ** :  -0.1667 0.4167 0.1667  plane waves:     839
 k-point ** :   0.5000 0.5000 0.1667  plane waves:     844
 k-point ** :  -0.4167 0.5000 0.1667  plane waves:     842
 k-point ** :  -0.3333 0.5000 0.1667  plane waves:     839
 k-point ** :  -0.2500 0.5000 0.1667  plane waves:     839
 k-point ** :  -0.1667 0.5000 0.1667  plane waves:     840
 k-point ** :  -0.4167-0.4167 0.1667  plane waves:     841
 k-point ** :  -0.3333-0.4167 0.1667  plane waves:     838
 k-point ** :  -0.2500-0.4167 0.1667  plane waves:     833
 k-point ** :  -0.3333-0.3333 0.1667  plane waves:     842
 k-point ** :  -0.2500-0.3333 0.1667  plane waves:     838
 k-point ** :  -0.2500-0.2500 0.1667  plane waves:     840
 k-point ** :   0.2500 0.2500 0.2500  plane waves:     832
 k-point ** :   0.3333 0.2500 0.2500  plane waves:     843
 k-point ** :   0.4167 0.2500 0.2500  plane waves:     841
 k-point ** :   0.5000 0.2500 0.2500  plane waves:     842
 k-point ** :  -0.4167 0.2500 0.2500  plane waves:     838
 k-point ** :  -0.3333 0.2500 0.2500  plane waves:     839
 k-point ** :  -0.2500 0.2500 0.2500  plane waves:     847
 k-point ** :   0.3333 0.3333 0.2500  plane waves:     845
 k-point ** :   0.4167 0.3333 0.2500  plane waves:     845
 k-point ** :   0.5000 0.3333 0.2500  plane waves:     845
 k-point ** :  -0.4167 0.3333 0.2500  plane waves:     843
 k-point ** :  -0.3333 0.3333 0.2500  plane waves:     840
 k-point ** :  -0.2500 0.3333 0.2500  plane waves:     844
 k-point ** :   0.4167 0.4167 0.2500  plane waves:     845
 k-point ** :   0.5000 0.4167 0.2500  plane waves:     848
 k-point ** :  -0.4167 0.4167 0.2500  plane waves:     847
 k-point ** :  -0.3333 0.4167 0.2500  plane waves:     842
 k-point ** :  -0.2500 0.4167 0.2500  plane waves:     837
 k-point ** :   0.5000 0.5000 0.2500  plane waves:     852
 k-point ** :  -0.4167 0.5000 0.2500  plane waves:     844
 k-point ** :  -0.3333 0.5000 0.2500  plane waves:     842
 k-point ** :  -0.2500 0.5000 0.2500  plane waves:     838
 k-point ** :  -0.4167-0.4167 0.2500  plane waves:     839
 k-point ** :  -0.3333-0.4167 0.2500  plane waves:     840
 k-point ** :  -0.3333-0.3333 0.2500  plane waves:     839
 k-point ** :   0.3333 0.3333 0.3333  plane waves:     841
 k-point ** :   0.4167 0.3333 0.3333  plane waves:     842
 k-point ** :   0.5000 0.3333 0.3333  plane waves:     848
 k-point ** :  -0.4167 0.3333 0.3333  plane waves:     842
 k-point ** :  -0.3333 0.3333 0.3333  plane waves:     845
 k-point ** :   0.4167 0.4167 0.3333  plane waves:     849
 k-point ** :   0.5000 0.4167 0.3333  plane waves:     850
 k-point ** :  -0.4167 0.4167 0.3333  plane waves:     849
 k-point ** :  -0.3333 0.4167 0.3333  plane waves:     840
 k-point ** :   0.5000 0.5000 0.3333  plane waves:     855
 k-point ** :  -0.4167 0.5000 0.3333  plane waves:     848
 k-point ** :  -0.3333 0.5000 0.3333  plane waves:     842
 k-point ** :  -0.4167-0.4167 0.3333  plane waves:     846
 k-point ** :   0.4167 0.4167 0.4167  plane waves:     849
 k-point ** :   0.5000 0.4167 0.4167  plane waves:     857
 k-point ** :  -0.4167 0.4167 0.4167  plane waves:     859
 k-point ** :   0.5000 0.5000 0.4167  plane waves:     862
 k-point ** :  -0.4167 0.5000 0.4167  plane waves:     864
 k-point ** :   0.5000 0.5000 0.5000  plane waves:     840

 maximum and minimum number of plane-waves per node :       224      196

 maximum number of plane-waves:       864
 maximum index in each direction: 
   IXMAX=    6   IYMAX=    6   IZMAX=    5
   IXMIN=   -6   IYMIN=   -6   IZMIN=   -6


 parallel 3D FFT for wavefunctions:
    minimum data exchange during FFTs selected (reduces bandwidth)
 parallel 3D FFT for charge:
    minimum data exchange during FFTs selected (reduces bandwidth)


 total amount of memory used by VASP MPI-rank0    37925. kBytes
=======================================================================

   base      :      30000. kBytes
   nonl-proj :       2738. kBytes
   fftplans  :        346. kBytes
   grid      :        481. kBytes
   one-center:          6. kBytes
   wavefun   :       4354. kBytes
 
     INWAV:  cpu time    0.0004: real time    0.4889
 Broyden mixing: mesh for mixing (old mesh)
   NGX = 11   NGY = 11   NGZ = 11
  (NGX  = 48   NGY  = 48   NGZ  = 48)
  gives a total of   1331 points

 initial charge density was supplied:
 charge density of overlapping atoms calculated
 number of electron      32.0000000 magnetization 
 keeping initial charge density in first step


--------------------------------------------------------------------------------------------------------


 Maximum index for augmentation-charges          277 (set IRDMAX)


--------------------------------------------------------------------------------------------------------


 First call to EWALD:  gamma=   0.494
 Maximum number of real-space cells 3x 3x 3
 Maximum number of reciprocal cells 3x 3x 3

    FEWALD:  cpu time    0.0055: real time    0.0055


--------------------------------------- Iteration      1(   1)  ---------------------------------------


    POTLOK:  cpu time    0.0528: real time    0.0576
    SETDIJ:  cpu time    0.0081: real time    0.0081
     EDDAV:  cpu time    8.4828: real time    8.4933
 BZINTS: Fermi energy: 18.243072; 32.000000 electrons
         Band energy: 117.712934;  BLOECHL correction: -0.235451
       DOS:  cpu time    0.5050: real time    0.5050
    --------------------------------------------
      LOOP:  cpu time    9.0487: real time    9.0641

 eigenvalue-minimisations  :  9072
 total energy-change (2. order) : 0.5711711E+02  (-0.1437296E+04)
 number of electron      32.0000000 magnetization 
 augmentation part       32.0000000 magnetization 

 Free energy of the ion-electron system (eV)
  ---------------------------------------------------
  alpha Z        PSCENC =       112.72347836
  Ewald energy   TEWEN  =     -1382.83269585
  -Hartree energ DENC   =       -72.19792504
  -exchange      EXHF   =         0.00000000
  -V(xc)+E(xc)   XCENC  =       113.89736550
  PAW double counting   =       302.65154477     -311.85538214
  entropy T*S    EENTRO =         0.00000000
  eigenvalues    EBANDS =       117.71293365
  atomic energy  EATOM  =      1177.01779097
  Solvation  Ediel_sol  =         0.00000000
  ---------------------------------------------------
  free energy    TOTEN  =        57.11711022 eV

  energy without entropy =       57.11711022  energy(sigma->0) =       57.11711022


--------------------------------------------------------------------------------------------------------




--------------------------------------- Iteration      1(   2)  ---------------------------------------


     EDDAV:  cpu time   10.7526: real time   10.7605
 BZINTS: Fermi energy:  8.688519; 32.000000 electrons
         Band energy: -10.347618;  BLOECHL correction:  0.000000
       DOS:  cpu time    0.1217: real time    0.1217
    --------------------------------------------
      LOOP:  cpu time   10.8743: real time   10.8823

 eigenvalue-minimisations  : 12656
 total energy-change (2. order) :-0.1280606E+03  (-0.1213612E+03)
 number of electron      32.0000000 magnetization 
 augmentation part       32.0000000 magnetization 

 Free energy of the ion-electron system (eV)
  ---------------------------------------------------
  alpha Z        PSCENC =       112.72347836
  Ewald energy   TEWEN  =     -1382.83269585
  -Hartree energ DENC   =       -72.19792504
  -exchange      EXHF   =         0.00000000
  -V(xc)+E(xc)   XCENC  =       113.89736550
  PAW double counting   =       302.65154477     -311.85538214
  entropy T*S    EENTRO =         0.00000000
  eigenvalues    EBANDS =       -10.34761754
  atomic energy  EATOM  =      1177.01779097
  Solvation  Ediel_sol  =         0.00000000
  ---------------------------------------------------
  free energy    TOTEN  =       -70.94344097 eV

  energy without entropy =      -70.94344097  energy(sigma->0) =      -70.94344097


--------------------------------------------------------------------------------------------------------




--------------------------------------- Iteration      1(   3)  ---------------------------------------


     EDDAV:  cpu time   10.1932: real time   10.1941
 BZINTS: Fermi energy:  8.214215; 32.000000 electrons
         Band energy: -14.465459;  BLOECHL correction:  0.000000
       DOS:  cpu time    0.1081: real time    0.1081
    --------------------------------------------
      LOOP:  cpu time   10.3014: real time   10.3022

 eigenvalue-minimisations  : 11800
 total energy-change (2. order) :-0.4117841E+01  (-0.4099257E+01)
 number of electron      32.0000000 magnetization 
 augmentation part       32.0000000 magnetization 

 Free energy of the ion-electron system (eV)
  ---------------------------------------------------
  alpha Z        PSCENC =       112.72347836
  Ewald energy   TEWEN  =     -1382.83269585
  -Hartree energ DENC   =       -72.19792504
  -exchange      EXHF   =         0.00000000
  -V(xc)+E(xc)   XCENC  =       113.89736550
  PAW double counting   =       302.65154477     -311.85538214
  entropy T*S    EENTRO =         0.00000000
  eigenvalues    EBANDS =       -14.46545885
  atomic energy  EATOM  =      1177.01779097
  Solvation  Ediel_sol  =         0.00000000
  ---------------------------------------------------
  free energy    TOTEN  =       -75.06128228 eV

  energy without entropy =      -75.06128228  energy(sigma->0) =      -75.06128228


--------------------------------------------------------------------------------------------------------




--------------------------------------- Iteration      1(   4)  ---------------------------------------


     EDDAV:  cpu time    9.8831: real time    9.8840
 BZINTS: Fermi energy:  8.137793; 32.000000 electrons
         Band energy: -14.506293;  BLOECHL correction:  0.000000
       DOS:  cpu time    0.1078: real time    0.1078
    --------------------------------------------
      LOOP:  cpu time    9.9910: real time    9.9918

 eigenvalue-minimisations  : 11352
 total energy-change (2. order) :-0.4083379E-01  (-0.4080326E-01)
 number of electron      32.0000000 magnetization 
 augmentation part       32.0000000 magnetization 

 Free energy of the ion-electron system (eV)
  ---------------------------------------------------
  alpha Z        PSCENC =       112.72347836
  Ewald energy   TEWEN  =     -1382.83269585
  -Hartree energ DENC   =       -72.19792504
  -exchange      EXHF   =         0.00000000
  -V(xc)+E(xc)   XCENC  =       113.89736550
  PAW double counting   =       302.65154477     -311.85538214
  entropy T*S    EENTRO =         0.00000000
  eigenvalues    EBANDS =       -14.50629264
  atomic energy  EATOM  =      1177.01779097
  Solvation  Ediel_sol  =         0.00000000
  ---------------------------------------------------
  free energy    TOTEN  =       -75.10211607 eV

  energy without entropy =      -75.10211607  energy(sigma->0) =      -75.10211607


--------------------------------------------------------------------------------------------------------




--------------------------------------- Iteration      1(   5)  ---------------------------------------


     EDDAV:  cpu time   10.2274: real time   10.2282
 BZINTS: Fermi energy:  8.225548; 32.000000 electrons
         Band energy: -14.507124;  BLOECHL correction:  0.000000
       DOS:  cpu time    0.1217: real time    0.1217
    CHARGE:  cpu time    0.2366: real time    0.2366
    MIXING:  cpu time    0.0015: real time    0.0015
    --------------------------------------------
      LOOP:  cpu time   10.5872: real time   10.5880

 eigenvalue-minimisations  : 11808
 total energy-change (2. order) :-0.8317661E-03  (-0.8313464E-03)
 number of electron      32.0000029 magnetization 
 augmentation part        0.7735922 magnetization 

 Broyden mixing:
  rms(total) = 0.92877E+00    rms(broyden)= 0.92859E+00
  rms(prec ) = 0.21873E+01
  weight for this iteration     100.00

 Free energy of the ion-electron system (eV)
  ---------------------------------------------------
  alpha Z        PSCENC =       112.72347836
  Ewald energy   TEWEN  =     -1382.83269585
  -Hartree energ DENC   =       -72.19792504
  -exchange      EXHF   =         0.00000000
  -V(xc)+E(xc)   XCENC  =       113.89736550
  PAW double counting   =       302.65154477     -311.85538214
  entropy T*S    EENTRO =         0.00000000
  eigenvalues    EBANDS =       -14.50712440
  atomic energy  EATOM  =      1177.01779097
  Solvation  Ediel_sol  =         0.00000000
  ---------------------------------------------------
  free energy    TOTEN  =       -75.10294783 eV

  energy without entropy =      -75.10294783  energy(sigma->0) =      -75.10294783


--------------------------------------------------------------------------------------------------------




--------------------------------------- Iteration      1(   6)  ---------------------------------------


    POTLOK:  cpu time    0.0197: real time    0.0199
    SETDIJ:  cpu time    0.0058: real time    0.0058
     EDDAV:  cpu time    9.3137: real time    9.3141
 BZINTS: Fermi energy:  8.871903; 32.000000 electrons
         Band energy:   1.333034;  BLOECHL correction:  0.000000
       DOS:  cpu time    0.1217: real time    0.1217
    CHARGE:  cpu time    0.2366: real time    0.2367
    MIXING:  cpu time    0.0017: real time    0.0017
    --------------------------------------------
      LOOP:  cpu time    9.6993: real time    9.7000

 eigenvalue-minimisations  : 10304
 total energy-change (2. order) : 0.1791905E+01  (-0.1190957E+00)
 number of electron      32.0000028 magnetization 
 augmentation part        0.7563513 magnetization 

 Broyden mixing:
  rms(total) = 0.51057E+00    rms(broyden)= 0.51055E+00
  rms(prec ) = 0.11850E+01
  weight for this iteration     100.00

 eigenvalues of (default mixing * dielectric matrix)
  average eigenvalue GAMMA=   2.1727
  2.1727

 Free energy of the ion-electron system (eV)
  ---------------------------------------------------
  alpha Z        PSCENC =       112.72347836
  Ewald energy   TEWEN  =     -1382.83269585
  -Hartree energ DENC   =       -87.12364194
  -exchange      EXHF   =         0.00000000
  -V(xc)+E(xc)   XCENC  =       115.29214407
  PAW double counting   =       390.54736175     -400.26851414
  entropy T*S    EENTRO =         0.00000000
  eigenvalues    EBANDS =         1.33303370
  atomic energy  EATOM  =      1177.01779097
  Solvation  Ediel_sol  =         0.00000000
  ---------------------------------------------------
  free energy    TOTEN  =       -73.31104309 eV

  energy without entropy =      -73.31104309  energy(sigma->0) =      -73.31104309


--------------------------------------------------------------------------------------------------------




--------------------------------------- Iteration      1(   7)  ---------------------------------------


    POTLOK:  cpu time    0.0197: real time    0.0200
    SETDIJ:  cpu time    0.0058: real time    0.0058
     EDDAV:  cpu time    9.4857: real time    9.4861
 BZINTS: Fermi energy:  9.532435; 32.000000 electrons
         Band energy:  19.691017;  BLOECHL correction:  0.000000
       DOS:  cpu time    0.1086: real time    0.1086
    CHARGE:  cpu time    0.2337: real time    0.2338
    MIXING:  cpu time    0.0017: real time    0.0017
    --------------------------------------------
      LOOP:  cpu time    9.8552: real time    9.8560

 eigenvalue-minimisations  : 10672
 total energy-change (2. order) : 0.6054494E+00  (-0.1352278E+00)
 number of electron      32.0000028 magnetization 
 augmentation part        0.7377685 magnetization 

 Broyden mixing:
  rms(total) = 0.69161E-01    rms(broyden)= 0.68832E-01
  rms(prec ) = 0.12053E+00
  weight for this iteration     100.00

 eigenvalues of (default mixing * dielectric matrix)
  average eigenvalue GAMMA=   2.2683
  2.0032  2.5333

 Free energy of the ion-electron system (eV)
  ---------------------------------------------------
  alpha Z        PSCENC =       112.72347836
  Ewald energy   TEWEN  =     -1382.83269585
  -Hartree energ DENC   =      -106.18977160
  -exchange      EXHF   =         0.00000000
  -V(xc)+E(xc)   XCENC  =       117.09582854
  PAW double counting   =       509.73392850     -519.94516921
  entropy T*S    EENTRO =         0.00000000
  eigenvalues    EBANDS =        19.69101659
  atomic energy  EATOM  =      1177.01779097
  Solvation  Ediel_sol  =         0.00000000
  ---------------------------------------------------
  free energy    TOTEN  =       -72.70559371 eV

  energy without entropy =      -72.70559371  energy(sigma->0) =      -72.70559371


--------------------------------------------------------------------------------------------------------




--------------------------------------- Iteration      1(   8)  ---------------------------------------


    POTLOK:  cpu time    0.0196: real time    0.0210
    SETDIJ:  cpu time    0.0058: real time    0.0058
     EDDAV:  cpu time   10.0672: real time   10.0677
 BZINTS: Fermi energy:  9.518461; 32.000000 electrons
         Band energy:  19.991923;  BLOECHL correction:  0.000000
       DOS:  cpu time    0.1085: real time    0.1085
    CHARGE:  cpu time    0.2349: real time    0.2349
    MIXING:  cpu time    0.0019: real time    0.0019
    --------------------------------------------
      LOOP:  cpu time   10.4380: real time   10.4398

 eigenvalue-minimisations  : 11544
 total energy-change (2. order) :-0.7263265E-02  (-0.2726286E-02)
 number of electron      32.0000028 magnetization 
 augmentation part        0.7382301 magnetization 

 Broyden mixing:
  rms(total) = 0.78805E-02    rms(broyden)= 0.77792E-02
  rms(prec ) = 0.13654E-01
  weight for this iteration     100.00

 eigenvalues of (default mixing * dielectric matrix)
  average eigenvalue GAMMA=   2.0965
  1.4481  2.6738  2.1675

 Free energy of the ion-electron system (eV)
  ---------------------------------------------------
  alpha Z        PSCENC =       112.72347836
  Ewald energy   TEWEN  =     -1382.83269585
  -Hartree energ DENC   =      -106.67403171
  -exchange      EXHF   =         0.00000000
  -V(xc)+E(xc)   XCENC  =       117.14512426
  PAW double counting   =       518.43850265     -528.52294878
[...]

 k-point   177 :       0.5000    0.4167    0.3333
  band No.  band energies     occupation 
      1      -7.1565      2.00000
      2      -6.9811      2.00000
      3      -6.0763      2.00000
      4      -6.0496      2.00000
      5      -3.2078      2.00000
      6      -3.1803      2.00000
      7      -2.1250      2.00000
      8      -2.0528      2.00000
      9       5.4808      2.00000
     10       5.5029      2.00000
     11       6.0656      2.00000
     12       6.2192      2.00000
     13       6.3793      2.00000
     14       6.3837      2.00000
     15       6.6247      2.00000
     16       6.7737      2.00000
     17      17.5120      0.00000
     18      17.6265      0.00000
     19      17.6439      0.00000
     20      17.7174      0.00000
     21      17.9460      0.00000
     22      18.1062      0.00000
     23      18.1871      0.00000
     24      18.2180      0.00000

 k-point   178 :      -0.4167    0.4167    0.3333
  band No.  band energies     occupation 
      1      -7.7539      2.00000
      2      -6.4663      2.00000
      3      -6.2822      2.00000
      4      -5.8155      2.00000
      5      -3.3352      2.00000
      6      -2.7000      2.00000
      7      -2.6311      2.00000
      8      -1.4441      2.00000
      9       5.2238      2.00000
     10       5.5286      2.00000
     11       5.6739      2.00000
     12       6.1150      2.00000
     13       6.2095      2.00000
     14       6.3070      2.00000
     15       6.6246      2.00000
     16       7.0769      2.00000
     17      17.2122      0.00000
     18      17.2750      0.00000
     19      17.3872      0.00000
     20      17.7217      0.00000
     21      17.9621      0.00000
     22      18.3110      0.00000
     23      18.3546      0.00000
     24      18.4545      0.00000

 k-point   179 :      -0.3333    0.4167    0.3333
  band No.  band energies     occupation 
      1      -8.2598      2.00000
      2      -6.8982      2.00000
      3      -5.8389      2.00000
      4      -5.5921      2.00000
      5      -2.9919      2.00000
      6      -2.9877      2.00000
      7      -1.9632      2.00000
      8      -0.6408      2.00000
      9       4.6693      2.00000
     10       4.8492      2.00000
     11       5.6915      2.00000
     12       5.7020      2.00000
     13       5.8189      2.00000
     14       6.0125      2.00000
     15       6.8308      2.00000
     16       7.1347      2.00000
     17      16.8948      0.00000
     18      16.9165      0.00000
     19      17.1325      0.00000
     20      17.4176      0.00000
     21      18.0339      0.00000
     22      18.3514      0.00000
     23      18.9363      0.00000
     24      19.3497      0.00000

 k-point   180 :       0.5000    0.5000    0.3333
  band No.  band energies     occupation 
      1      -6.6080      2.00000
      2      -6.6080      2.00000
      3      -6.5814      2.00000
      4      -6.3975      2.00000
      5      -2.8042      2.00000
      6      -2.7764      2.00000
      7      -2.7764      2.00000
      8      -2.7334      2.00000
      9       5.7538      2.00000
     10       5.9203      2.00000
     11       5.9203      2.00000
     12       5.9299      2.00000
     13       6.5603      2.00000
     14       6.7164      2.00000
     15       6.7164      2.00000
     16       6.7331      2.00000
     17      17.6032      0.00000
     18      17.7244      0.00000
     19      17.7461      0.00000
     20      17.7461      0.00000
     21      18.0815      0.00000
     22      18.1096      0.00000
     23      18.3041      0.00000
     24      18.3190      0.00000

 k-point   181 :      -0.4167    0.5000    0.3333
  band No.  band energies     occupation 
      1      -7.1469      2.00000
      2      -7.1317      2.00000
      3      -6.0727      2.00000
      4      -5.8173      2.00000
      5      -3.1959      2.00000
      6      -3.1957      2.00000
      7      -2.1633      2.00000
      8      -2.1473      2.00000
      9       5.3450      2.00000
     10       5.5347      2.00000
     11       6.2098      2.00000
     12       6.2403      2.00000
     13       6.2516      2.00000
     14       6.3433      2.00000
     15       6.7717      2.00000
     16       6.8080      2.00000
     17      17.5056      0.00000
     18      17.5872      0.00000
     19      17.5976      0.00000
     20      17.6173      0.00000
     21      18.0720      0.00000
     22      18.0979      0.00000
     23      18.4173      0.00000
     24      18.5675      0.00000

 k-point   182 :      -0.3333    0.5000    0.3333
  band No.  band energies     occupation 
      1      -7.6224      2.00000
      2      -7.6224      2.00000
      3      -5.7078      2.00000
      4      -5.4239      2.00000
      5      -3.2591      2.00000
      6      -3.2279      2.00000
      7      -1.3667      2.00000
      8      -1.3667      2.00000
      9       4.7330      2.00000
     10       4.9390      2.00000
     11       5.7636      2.00000
     12       5.8698      2.00000
     13       6.4093      2.00000
     14       6.4093      2.00000
     15       6.5890      2.00000
     16       6.5890      2.00000
     17      17.1984      0.00000
     18      17.1984      0.00000
     19      17.5017      0.00000
     20      17.6208      0.00000
     21      18.1174      0.00000
     22      18.6054      0.00000
     23      18.6075      0.00000
     24      18.6897      0.00000

 k-point   183 :      -0.4167   -0.4167    0.3333
  band No.  band energies     occupation 
      1      -7.7408      2.00000
      2      -6.4823      2.00000
      3      -6.4823      2.00000
      4      -5.5338      2.00000
      5      -3.3675      2.00000
      6      -2.6890      2.00000
      7      -2.6890      2.00000
      8      -1.4645      2.00000
      9       5.0720      2.00000
     10       5.7303      2.00000
     11       5.7303      2.00000
     12       6.0424      2.00000
     13       6.2404      2.00000
     14       6.2404      2.00000
     15       6.6284      2.00000
     16       7.1091      2.00000
     17      17.0570      0.00000
     18      17.3863      0.00000
     19      17.3863      0.00000
     20      17.6110      0.00000
     21      17.9163      0.00000
     22      18.4175      0.00000
     23      18.7874      0.00000
     24      18.7894      0.00000

 k-point   184 :       0.4167    0.4167    0.4167
  band No.  band energies     occupation 
      1      -7.0974      2.00000
      2      -6.1873      2.00000
      3      -6.1873      2.00000
      4      -6.1873      2.00000
      5      -3.2928      2.00000
      6      -3.2928      2.00000
      7      -3.2928      2.00000
      8      -2.1558      2.00000
      9       6.1094      2.00000
     10       6.1094      2.00000
     11       6.1094      2.00000
     12       6.4382      2.00000
     13       6.4382      2.00000
     14       6.4382      2.00000
     15       6.7283      2.00000
     16       6.7283      2.00000
     17      17.4649      0.00000
     18      17.4649      0.00000
     19      17.4649      0.00000
     20      17.6782      0.00000
     21      17.7670      0.00000
     22      17.7670      0.00000
     23      18.3854      0.00000
     24      18.3854      0.00000

 k-point   185 :       0.5000    0.4167    0.4167
  band No.  band energies     occupation 
      1      -6.7217      2.00000
      2      -6.5111      2.00000
      3      -6.0366      2.00000
      4      -6.0366      2.00000
      5      -3.5598      2.00000
      6      -3.5598      2.00000
      7      -2.8867      2.00000
      8      -2.8416      2.00000
      9       6.2018      2.00000
     10       6.2018      2.00000
     11       6.4959      2.00000
     12       6.5514      2.00000
     13       6.5773      2.00000
     14       6.5773      2.00000
     15       6.6935      2.00000
     16       6.6948      2.00000
     17      17.5778      0.00000
     18      17.7082      0.00000
     19      17.8190      0.00000
     20      17.8225      0.00000
     21      17.9060      0.00000
     22      17.9440      0.00000
     23      17.9466      0.00000
     24      17.9836      0.00000

 k-point   186 :      -0.4167    0.4167    0.4167
  band No.  band energies     occupation 
      1      -7.2632      2.00000
      2      -6.1748      2.00000
      3      -6.1748      2.00000
      4      -5.9279      2.00000
      5      -3.3179      2.00000
      6      -3.3179      2.00000
      7      -3.3073      2.00000
      8      -2.2529      2.00000
      9       5.9667      2.00000
     10       6.1366      2.00000
     11       6.1366      2.00000
     12       6.2620      2.00000
     13       6.4373      2.00000
     14       6.4374      2.00000
     15       6.8767      2.00000
     16       6.9239      2.00000
     17      17.3310      0.00000
     18      17.4938      0.00000
     19      17.4938      0.00000
     20      17.7056      0.00000
     21      17.8591      0.00000
     22      18.2845      0.00000
     23      18.4023      0.00000
     24      18.4429      0.00000

 k-point   187 :       0.5000    0.5000    0.4167
  band No.  band energies     occupation 
      1      -6.2961      2.00000
      2      -6.2961      2.00000
      3      -6.2872      2.00000
      4      -6.0404      2.00000
      5      -3.4291      2.00000
      6      -3.4199      2.00000
      7      -3.4199      2.00000
      8      -3.4165      2.00000
      9       6.3753      2.00000
     10       6.5375      2.00000
     11       6.5571      2.00000
     12       6.5571      2.00000
     13       6.5892      2.00000
     14       6.7573      2.00000
     15       6.7573      2.00000
     16       6.7850      2.00000
     17      17.7193      0.00000
     18      17.7582      0.00000
     19      17.7583      0.00000
     20      17.8243      0.00000
     21      17.8487      0.00000
     22      17.8681      0.00000
     23      17.9241      0.00000
     24      18.0223      0.00000

 k-point   188 :      -0.4167    0.5000    0.4167
  band No.  band energies     occupation 
      1      -6.7112      2.00000
      2      -6.7112      2.00000
      3      -6.0391      2.00000
      4      -5.7542      2.00000
      5      -3.5887      2.00000
      6      -3.5632      2.00000
      7      -2.9038      2.00000
      8      -2.9038      2.00000
      9       6.0494      2.00000
     10       6.2535      2.00000
     11       6.3877      2.00000
     12       6.5274      2.00000
     13       6.6620      2.00000
     14       6.6620      2.00000
     15       6.7414      2.00000
     16       6.7414      2.00000
     17      17.6392      0.00000
     18      17.6392      0.00000
     19      17.6648      0.00000
     20      17.6675      0.00000
     21      17.8441      0.00000
     22      18.0859      0.00000
     23      18.0864      0.00000
     24      18.4079      0.00000

 k-point   189 :       0.5000    0.5000    0.5000
  band No.  band energies     occupation 
      1      -6.1500      2.00000
      2      -6.1500      2.00000
      3      -6.1500      2.00000
      4      -5.8649      2.00000
      5      -3.7012      2.00000
      6      -3.6772      2.00000
      7      -3.6772      2.00000
      8      -3.6772      2.00000
      9       6.6056      2.00000
     10       6.6056      2.00000
     11       6.7568      2.00000
     12       6.7568      2.00000
     13       6.7568      2.00000
     14       6.8087      2.00000
     15       6.8087      2.00000
     16       6.8087      2.00000
     17      17.7250      0.00000
     18      17.7352      0.00000
     19      17.7352      0.00000
     20      17.7368      0.00000
     21      17.7832      0.00000
     22      17.7844      0.00000
     23      17.8966      0.00000
     24      17.8966      0.00000


--------------------------------------------------------------------------------------------------------


 soft charge-density along one line, spin component           1
         0         1         2         3         4         5         6         7         8         9
 total charge-density along one line
 
 pseudopotential strength for first ion, spin component:           1
  9.454  -0.004  -0.000  -0.000  -0.000   0.000   0.000   0.000
 -0.004  -0.002  -0.000  -0.000  -0.000   0.000   0.000   0.000
 -0.000  -0.000  -3.675   0.000   0.000  -0.008  -0.000  -0.000
 -0.000  -0.000   0.000  -3.675   0.000  -0.000  -0.008  -0.000
 -0.000  -0.000   0.000   0.000  -3.675  -0.000  -0.000  -0.008
  0.000   0.000  -0.008  -0.000  -0.000  -0.757   0.000   0.000
  0.000   0.000  -0.000  -0.008  -0.000   0.000  -0.757   0.000
  0.000   0.000  -0.000  -0.000  -0.008   0.000   0.000  -0.757
 total augmentation occupancy for first ion, spin component:           1
  1.422  -1.010  -0.003  -0.003  -0.003  -0.002  -0.002  -0.002
 -1.010   0.995   0.008   0.009   0.008   0.003   0.003   0.003
 -0.003   0.008   1.089   0.007   0.007   0.182   0.001   0.001
 -0.003   0.009   0.007   1.089   0.007   0.001   0.182   0.001
 -0.003   0.008   0.007   0.007   1.089   0.001   0.001   0.182
 -0.002   0.003   0.182   0.001   0.001   0.036   0.000   0.000
 -0.002   0.003   0.001   0.182   0.001   0.000   0.036   0.000
 -0.002   0.003   0.001   0.001   0.182   0.000   0.000   0.036


------------------------ aborting loop because EDIFF is reached ----------------------------------------


    CHARGE:  cpu time    0.2914: real time    0.2914
    FORLOC:  cpu time    0.0022: real time    0.0022
    FORNL :  cpu time    0.4219: real time    0.4219
    STRESS:  cpu time    0.9965: real time    0.9968
    FORHAR:  cpu time    0.0053: real time    0.0053
    MIXING:  cpu time    0.0021: real time    0.0021
    OFIELD:  cpu time    0.0001: real time    0.0001

  FORCE on cell =-STRESS in cart. coord.  units (eV):
  Direction    XX          YY          ZZ          XY          YZ          ZX
  --------------------------------------------------------------------------------------
  Alpha Z   112.72348   112.72348   112.72348
  Ewald    -461.04891  -460.94611  -460.84006     5.14236     5.24675     5.19457
  Hartree    35.51594    35.54188    35.56863     1.29719     1.32352     1.31036
  E(xc)    -119.18975  -119.18962  -119.18949     0.00639     0.00652     0.00645
  Local     -47.90738   -48.02582   -48.14804    -5.92547    -6.04578    -5.98563
  n-local   -27.49614   -27.83654   -27.44268    -0.29273     0.25724    -0.64652
  augment    -2.77246    -2.77248    -2.77250    -0.00093    -0.00095    -0.00094
  Kinetic   501.63223   507.13289   513.43795     1.83094    -2.52359     4.52165
  Fock        0.00000     0.00000     0.00000     0.00000     0.00000     0.00000
  -------------------------------------------------------------------------------------
  Total      -2.89136    -2.85967    -2.82701     1.58451     1.61668     1.60059
  in kB    -100.13718   -99.03958   -97.90842    54.87655    55.99081    55.43368
  external pressure =      -99.03 kB  Pullay stress =        0.00 kB


 VOLUME and BASIS-vectors are now :
 -----------------------------------------------------------------------------
  energy-cutoff  :      400.00
  volume of cell :       46.26
      direct lattice vectors                 reciprocal lattice vectors
     3.589999359  0.000000000  0.000000000     0.278551582  0.002785648  0.002813929
    -0.035899893  3.589819543  0.000000000     0.000000000  0.278565535  0.002813915
    -0.035899893 -0.036260529  3.589636713     0.000000000  0.000000000  0.278579723

  length of vectors
     3.589999359  3.589999047  3.589999354     0.278579722  0.278579747  0.278579723


 FORCES acting on ions
    electron-ion (+dipol)            ewald-force                    non-local-force                 convergence-correction
 -----------------------------------------------------------------------------------------------
   -.175E+01 -.177E+01 -.178E+01   0.179E+01 0.181E+01 0.183E+01   -.145E-01 -.146E-01 -.148E-01   -.230E-04 -.232E-04 -.234E-04
   0.175E+01 0.177E+01 0.178E+01   -.179E+01 -.181E+01 -.183E+01   0.145E-01 0.146E-01 0.148E-01   0.230E-04 0.232E-04 0.234E-04
   -.175E+01 -.177E+01 -.178E+01   0.179E+01 0.181E+01 0.183E+01   -.145E-01 -.146E-01 -.148E-01   -.230E-04 -.232E-04 -.234E-04
   0.175E+01 0.177E+01 0.178E+01   -.179E+01 -.181E+01 -.183E+01   0.145E-01 0.146E-01 0.148E-01   0.230E-04 0.232E-04 0.234E-04
   -.175E+01 -.177E+01 -.178E+01   0.179E+01 0.181E+01 0.183E+01   -.145E-01 -.146E-01 -.148E-01   -.230E-04 -.232E-04 -.234E-04
   0.175E+01 0.177E+01 0.178E+01   -.179E+01 -.181E+01 -.183E+01   0.145E-01 0.146E-01 0.148E-01   0.230E-04 0.232E-04 0.234E-04
   -.175E+01 -.177E+01 -.178E+01   0.179E+01 0.181E+01 0.183E+01   -.145E-01 -.146E-01 -.148E-01   -.230E-04 -.232E-04 -.234E-04
   0.175E+01 0.177E+01 0.178E+01   -.179E+01 -.181E+01 -.183E+01   0.145E-01 0.146E-01 0.148E-01   0.230E-04 0.232E-04 0.234E-04
 -----------------------------------------------------------------------------------------------
   -.222E-15 0.646E-13 0.144E-13   0.000E+00 0.155E-14 -.444E-15   0.677E-16 0.243E-16 0.347E-17   -.753E-14 -.472E-13 0.698E-14
 
 
 POSITION                                       TOTAL-FORCE (eV/Angst)
 -----------------------------------------------------------------------------------
      0.86160      2.68330      0.89741         0.028466      0.028752      0.029044
     -0.01795     -0.01813      1.79482        -0.028466     -0.028752     -0.029044
      0.86160      0.87026      2.69223         0.028466      0.028752      0.029044
     -0.01795      1.79491      0.00000        -0.028466     -0.028752     -0.029044
      2.63865      2.66517      2.69223         0.028466      0.028752      0.029044
      1.79500      0.00000      0.00000        -0.028466     -0.028752     -0.029044
      2.67455      0.88839      0.89741         0.028466      0.028752      0.029044
      1.75910      1.77678      1.79482        -0.028466     -0.028752     -0.029044
 -----------------------------------------------------------------------------------
    total drift:                               -0.000000      0.000000      0.000000


--------------------------------------------------------------------------------------------------------



  FREE ENERGIE OF THE ION-ELECTRON SYSTEM (eV)
  ---------------------------------------------------
  free  energy   TOTEN  =       -72.71313149 eV

  energy  without entropy=      -72.71313149  energy(sigma->0) =      -72.71313149
 


--------------------------------------------------------------------------------------------------------


    POTLOK:  cpu time    0.0272: real time    0.0272


--------------------------------------------------------------------------------------------------------


     LOOP+:  cpu time  111.4914: real time  112.8137
    4ORBIT:  cpu time    0.0000: real time    0.0000
 BZINTS: Fermi energy:  9.614289; 32.000000 electrons
         Band energy:  19.938525;  BLOECHL correction:  0.000000

 total amount of memory used by VASP MPI-rank0    37925. kBytes
=======================================================================

   base      :      30000. kBytes
   nonl-proj :       2738. kBytes
   fftplans  :        346. kBytes
   grid      :        481. kBytes
   one-center:          6. kBytes
   wavefun   :       4354. kBytes
 
  
  
 General timing and accounting informations for this job:
 ========================================================
  
                  Total CPU time used (sec):      115.028
                            User time (sec):      111.359
                          System time (sec):        3.669
                         Elapsed time (sec):      118.444
  
                   Maximum memory used (kb):      193692.
                   Average memory used (kb):           0.
  
                          Minor page faults:        36888
                          Major page faults:           36
                 Voluntary context switches:          785
