<?xml version="1.0" encoding="ISO-8859-1"?>
<modeling>
 <generator>
  <i name="program" type="string">vasp </i>
  <i name="version" type="string">5.4.4.18Apr17-6-g9f103f2a35  </i>
  <i name="subversion" type="string">(build Mar 12 2022 03:36:41) complex            parallel </i>
  <i name="platform" type="string">IFC19.0.3.199_CrayMPICH7.7.19 </i>
  <i name="date" type="string">2022 12 01 </i>
  <i name="time" type="string">10:54:23 </i>
 </generator>
 <incar>
  <i type="int" name="ISTART">     0</i>
  <i type="string" name="PREC">accurate</i>
  <i name="EDIFF">      0.00000100</i>
  <i name="POTIM">      0.02000000</i>
  <i type="int" name="ISMEAR">    -5</i>
  <i name="SIGMA">      0.06000000</i>
  <i type="logical" name="LWAVE"> F  </i>
  <i type="logical" name="LCHARG"> F  </i>
  <v type="int" name="KPOINT_BSE">    -1     0     0     0</v>
 </incar>
 <structure name="primitive_cell" >
  <crystal>
   <varray name="basis" >
    <v>      -0.03589989       1.77677951       1.79481836 </v>
    <v>       1.77704973      -0.01813026       1.79481836 </v>
    <v>       1.77704973       1.79490977       0.00000000 </v>
   </varray>
   <i name="volume">     11.56531579 </i>
   <varray name="rec_basis" >
    <v>      -0.27855158       0.27577989       0.27857971 </v>
    <v>       0.27855158      -0.27577989       0.27857974 </v>
    <v>       0.27855158       0.28135118      -0.27295188 </v>
   </varray>
  </crystal>
  <varray name="positions" >
   <v>      -0.25000000      -0.25000000      -0.25000000 </v>
   <v>      -0.50000000      -0.50000000      -0.50000000 </v>
  </varray>
 </structure>
 <varray name="primitive_index" >
  <v type="int" >        1 </v>
  <v type="int" >        4 </v>
 </varray>
 <kpoints>
  <generation param="Gamma">
   <v type="int" name="divisions">      12       12       12 </v>
   <v name="usershift">      0.00000000       0.00000000       0.00000000 </v>
   <v name="genvec1">      0.08333333      -0.00000000      -0.00000000 </v>
   <v name="genvec2">      0.00000000       0.08333333       0.00000000 </v>
   <v name="genvec3">      0.00000000       0.00000000       0.08333333 </v>
   <v name="shift">      0.00000000       0.00000000       0.00000000 </v>
  </generation>
  <varray name="kpointlist" >
   <v>       0.00000000       0.00000000       0.00000000 </v>
   <v>       0.08333333      -0.00000000      -0.00000000 </v>
   <v>       0.16666667      -0.00000000      -0.00000000 </v>
   <v>       0.25000000      -0.00000000      -0.00000000 </v>
   <v>       0.33333333      -0.00000000      -0.00000000 </v>
   <v>       0.41666667      -0.00000000      -0.00000000 </v>
   <v>       0.50000000      -0.00000000      -0.00000000 </v>
   <v>       0.08333333       0.08333333       0.00000000 </v>
   <v>       0.16666667       0.08333333       0.00000000 </v>
   <v>       0.25000000       0.08333333      -0.00000000 </v>
   <v>       0.33333333       0.08333333      -0.00000000 </v>
   <v>       0.41666667       0.08333333      -0.00000000 </v>
   <v>       0.50000000       0.08333333       0.00000000 </v>
   <v>      -0.41666667       0.08333333      -0.00000000 </v>
   <v>      -0.33333333       0.08333333       0.00000000 </v>
   <v>      -0.25000000       0.08333333       0.00000000 </v>
   <v>      -0.16666667       0.08333333       0.00000000 </v>
   <v>      -0.08333333       0.08333333      -0.00000000 </v>
   <v>       0.16666667       0.16666667       0.00000000 </v>
   <v>       0.25000000       0.16666667      -0.00000000 </v>
   <v>       0.33333333       0.16666667      -0.00000000 </v>
   <v>       0.41666667       0.16666667      -0.00000000 </v>
   <v>       0.50000000       0.16666667       0.00000000 </v>
   <v>      -0.41666667       0.16666667       0.00000000 </v>
   <v>      -0.33333333       0.16666667       0.00000000 </v>
   <v>      -0.25000000       0.16666667       0.00000000 </v>
   <v>      -0.16666667       0.16666667      -0.00000000 </v>
   <v>       0.25000000       0.25000000       0.00000000 </v>
   <v>       0.33333333       0.25000000       0.00000000 </v>
   <v>       0.41666667       0.25000000      -0.00000000 </v>
   <v>       0.50000000       0.25000000      -0.00000000 </v>
   <v>      -0.41666667       0.25000000       0.00000000 </v>
   <v>      -0.33333333       0.25000000       0.00000000 </v>
   <v>      -0.25000000       0.25000000       0.00000000 </v>
   <v>       0.33333333       0.33333333      -0.00000000 </v>
   <v>       0.41666667       0.33333333      -0.00000000 </v>
   <v>       0.50000000       0.33333333      -0.00000000 </v>
   <v>      -0.41666667       0.33333333       0.00000000 </v>
   <v>      -0.33333333       0.33333333       0.00000000 </v>
   <v>       0.41666667       0.41666667      -0.00000000 </v>
   <v>       0.50000000       0.41666667      -0.00000000 </v>
   <v>      -0.41666667       0.41666667      -0.00000000 </v>
   <v>       0.50000000       0.50000000       0.00000000 </v>
   <v>       0.08333333       0.08333333       0.08333333 </v>
   <v>       0.16666667       0.08333333       0.08333333 </v>
   <v>       0.25000000       0.08333333       0.08333333 </v>
   <v>       0.33333333       0.08333333       0.08333333 </v>
   <v>       0.41666667       0.08333333       0.08333333 </v>
   <v>       0.50000000       0.08333333       0.08333333 </v>
   <v>      -0.41666667       0.08333333       0.08333333 </v>
   <v>      -0.33333333       0.08333333       0.08333333 </v>
   <v>      -0.25000000       0.08333333       0.08333333 </v>
   <v>      -0.16666667       0.08333333       0.08333333 </v>
   <v>      -0.08333333       0.08333333       0.08333333 </v>
   <v>       0.16666667       0.16666667       0.08333333 </v>
   <v>       0.25000000       0.16666667       0.08333333 </v>
   <v>       0.33333333       0.16666667       0.08333333 </v>
   <v>       0.41666667       0.16666667       0.08333333 </v>
   <v>       0.50000000       0.16666667       0.08333333 </v>
   <v>      -0.41666667       0.16666667       0.08333333 </v>
   <v>      -0.33333333       0.16666667       0.08333333 </v>
   <v>      -0.25000000       0.16666667       0.08333333 </v>
   <v>      -0.16666667       0.16666667       0.08333333 </v>
   <v>      -0.08333333       0.16666667       0.08333333 </v>
   <v>       0.25000000       0.25000000       0.08333333 </v>
   <v>       0.33333333       0.25000000       0.08333333 </v>
   <v>       0.41666667       0.25000000       0.08333333 </v>
   <v>       0.50000000       0.25000000       0.08333333 </v>
   <v>      -0.41666667       0.25000000       0.08333333 </v>
   <v>      -0.33333333       0.25000000       0.08333333 </v>
   <v>      -0.25000000       0.25000000       0.08333333 </v>
   <v>      -0.16666667       0.25000000       0.08333333 </v>
   <v>      -0.08333333       0.25000000       0.08333333 </v>
   <v>       0.33333333       0.33333333       0.08333333 </v>
   <v>       0.41666667       0.33333333       0.08333333 </v>
   <v>       0.50000000       0.33333333       0.08333333 </v>
   <v>      -0.41666667       0.33333333       0.08333333 </v>
   <v>      -0.33333333       0.33333333       0.08333333 </v>
   <v>      -0.25000000       0.33333333       0.08333333 </v>
   <v>      -0.16666667       0.33333333       0.08333333 </v>
   <v>      -0.08333333       0.33333333       0.08333333 </v>
   <v>       0.41666667       0.41666667       0.08333333 </v>
   <v>       0.50000000       0.41666667       0.08333333 </v>
   <v>      -0.41666667       0.41666667       0.08333333 </v>
   <v>      -0.33333333       0.41666667       0.08333333 </v>
   <v>      -0.25000000       0.41666667       0.08333333 </v>
   <v>      -0.16666667       0.41666667       0.08333333 </v>
   <v>      -0.08333333       0.41666667       0.08333333 </v>
   <v>       0.50000000       0.50000000       0.08333333 </v>
   <v>      -0.41666667       0.50000000       0.08333333 </v>
   <v>      -0.33333333       0.50000000       0.08333333 </v>
   <v>      -0.25000000       0.50000000       0.08333333 </v>
   <v>      -0.16666667       0.50000000       0.08333333 </v>
   <v>      -0.08333333       0.50000000       0.08333333 </v>
   <v>      -0.41666667      -0.41666667       0.08333333 </v>
   <v>      -0.33333333      -0.41666667       0.08333333 </v>
   <v>      -0.25000000      -0.41666667       0.08333333 </v>
   <v>      -0.16666667      -0.41666667       0.08333333 </v>
   <v>      -0.33333333      -0.33333333       0.08333333 </v>
   <v>      -0.25000000      -0.33333333       0.08333333 </v>
   <v>      -0.16666667      -0.33333333       0.08333333 </v>
   <v>      -0.25000000      -0.25000000       0.08333333 </v>
   <v>      -0.16666667      -0.25000000       0.08333333 </v>
   <v>      -0.16666667      -0.16666667       0.08333333 </v>
   <v>       0.16666667       0.16666667       0.16666667 </v>
   <v>       0.25000000       0.16666667       0.16666667 </v>
   <v>       0.33333333       0.16666667       0.16666667 </v>
   <v>       0.41666667       0.16666667       0.16666667 </v>
   <v>       0.50000000       0.16666667       0.16666667 </v>
   <v>      -0.41666667       0.16666667       0.16666667 </v>
   <v>      -0.33333333       0.16666667       0.16666667 </v>
   <v>      -0.25000000       0.16666667       0.16666667 </v>
   <v>      -0.16666667       0.16666667       0.16666667 </v>
   <v>       0.25000000       0.25000000       0.16666667 </v>
   <v>       0.33333333       0.25000000       0.16666667 </v>
   <v>       0.41666667       0.25000000       0.16666667 </v>
   <v>       0.50000000       0.25000000       0.16666667 </v>
   <v>      -0.41666667       0.25000000       0.16666667 </v>
   <v>      -0.33333333       0.25000000       0.16666667 </v>
   <v>      -0.25000000       0.25000000       0.16666667 </v>
   <v>      -0.16666667       0.25000000       0.16666667 </v>
   <v>       0.33333333       0.33333333       0.16666667 </v>
   <v>       0.41666667       0.33333333       0.16666667 </v>
   <v>       0.50000000       0.33333333       0.16666667 </v>
   <v>      -0.41666667       0.33333333       0.16666667 </v>
   <v>      -0.33333333       0.33333333       0.16666667 </v>
   <v>      -0.25000000       0.33333333       0.16666667 </v>
   <v>      -0.16666667       0.33333333       0.16666667 </v>
   <v>       0.41666667       0.41666667       0.16666667 </v>
   <v>       0.50000000       0.41666667       0.16666667 </v>
   <v>      -0.41666667       0.41666667       0.16666667 </v>
   <v>      -0.33333333       0.41666667       0.16666667 </v>
   <v>      -0.25000000       0.41666667       0.16666667 </v>
   <v>      -0.16666667       0.41666667       0.16666667 </v>
   <v>       0.50000000       0.50000000       0.16666667 </v>
   <v>      -0.41666667       0.50000000       0.16666667 </v>
   <v>      -0.33333333       0.50000000       0.16666667 </v>
   <v>      -0.25000000       0.50000000       0.16666667 </v>
   <v>      -0.16666667       0.50000000       0.16666667 </v>
   <v>      -0.41666667      -0.41666667       0.16666667 </v>
   <v>      -0.33333333      -0.41666667       0.16666667 </v>
   <v>      -0.25000000      -0.41666667       0.16666667 </v>
   <v>      -0.33333333      -0.33333333       0.16666667 </v>
   <v>      -0.25000000      -0.33333333       0.16666667 </v>
   <v>      -0.25000000      -0.25000000       0.16666667 </v>
   <v>       0.25000000       0.25000000       0.25000000 </v>
   <v>       0.33333333       0.25000000       0.25000000 </v>
   <v>       0.41666667       0.25000000       0.25000000 </v>
   <v>       0.50000000       0.25000000       0.25000000 </v>
   <v>      -0.41666667       0.25000000       0.25000000 </v>
   <v>      -0.33333333       0.25000000       0.25000000 </v>
   <v>      -0.25000000       0.25000000       0.25000000 </v>
   <v>       0.33333333       0.33333333       0.25000000 </v>
   <v>       0.41666667       0.33333333       0.25000000 </v>
   <v>       0.50000000       0.33333333       0.25000000 </v>
   <v>      -0.41666667       0.33333333       0.25000000 </v>
   <v>      -0.33333333       0.33333333       0.25000000 </v>
   <v>      -0.25000000       0.33333333       0.25000000 </v>
   <v>       0.41666667       0.41666667       0.25000000 </v>
   <v>       0.50000000       0.41666667       0.25000000 </v>
   <v>      -0.41666667       0.41666667       0.25000000 </v>
   <v>      -0.33333333       0.41666667       0.25000000 </v>
   <v>      -0.25000000       0.41666667       0.25000000 </v>
   <v>       0.50000000       0.50000000       0.25000000 </v>
   <v>      -0.41666667       0.50000000       0.25000000 </v>
   <v>      -0.33333333       0.50000000       0.25000000 </v>
   <v>      -0.25000000       0.50000000       0.25000000 </v>
   <v>      -0.41666667      -0.41666667       0.25000000 </v>
   <v>      -0.33333333      -0.41666667       0.25000000 </v>
   <v>      -0.33333333      -0.33333333       0.25000000 </v>
   <v>       0.33333333       0.33333333       0.33333333 </v>
   <v>       0.41666667       0.33333333       0.33333333 </v>
   <v>       0.50000000       0.33333333       0.33333333 </v>
   <v>      -0.41666667       0.33333333       0.33333333 </v>
   <v>      -0.33333333       0.33333333       0.33333333 </v>
   <v>       0.41666667       0.41666667       0.33333333 </v>
   <v>       0.50000000       0.41666667       0.33333333 </v>
   <v>      -0.41666667       0.41666667       0.33333333 </v>
   <v>      -0.33333333       0.41666667       0.33333333 </v>
   <v>       0.50000000       0.50000000       0.33333333 </v>
   <v>      -0.41666667       0.50000000       0.33333333 </v>
   <v>      -0.33333333       0.50000000       0.33333333 </v>
   <v>      -0.41666667      -0.41666667       0.33333333 </v>
   <v>       0.41666667       0.41666667       0.41666667 </v>
   <v>       0.50000000       0.41666667       0.41666667 </v>
   <v>      -0.41666667       0.41666667       0.41666667 </v>
   <v>       0.50000000       0.50000000       0.41666667 </v>
   <v>      -0.41666667       0.50000000       0.41666667 </v>
   <v>       0.50000000       0.50000000       0.50000000 </v>
  </varray>
  <varray name="weights" >
   <v>       0.00057870 </v>
   <v>       0.00347222 </v>
   <v>       0.00347222 </v>
   <v>       0.00347222 </v>
   <v>       0.00347222 </v>
   <v>       0.00347222 </v>
   <v>       0.00173611 </v>
   <v>       0.00347222 </v>
   <v>       0.00694444 </v>
   <v>       0.00694444 </v>
   <v>       0.00694444 </v>
   <v>       0.00694444 </v>
   <v>       0.00694444 </v>
   <v>       0.00694444 </v>
   <v>       0.00694444 </v>
   <v>       0.00694444 </v>
   <v>       0.00694444 </v>
   <v>       0.00347222 </v>
   <v>       0.00347222 </v>
   <v>       0.00694444 </v>
   <v>       0.00694444 </v>
   <v>       0.00694444 </v>
   <v>       0.00694444 </v>
   <v>       0.00694444 </v>
   <v>       0.00694444 </v>
   <v>       0.00694444 </v>
   <v>       0.00347222 </v>
   <v>       0.00347222 </v>
   <v>       0.00694444 </v>
   <v>       0.00694444 </v>
   <v>       0.00694444 </v>
   <v>       0.00694444 </v>
   <v>       0.00694444 </v>
   <v>       0.00347222 </v>
   <v>       0.00347222 </v>
   <v>       0.00694444 </v>
   <v>       0.00694444 </v>
   <v>       0.00694444 </v>
   <v>       0.00347222 </v>
   <v>       0.00347222 </v>
   <v>       0.00694444 </v>
   <v>       0.00347222 </v>
   <v>       0.00173611 </v>
   <v>       0.00115741 </v>
   <v>       0.00347222 </v>
   <v>       0.00347222 </v>
   <v>       0.00347222 </v>
   <v>       0.00347222 </v>
   <v>       0.00347222 </v>
   <v>       0.00347222 </v>
   <v>       0.00347222 </v>
   <v>       0.00347222 </v>
   <v>       0.00347222 </v>
   <v>       0.00347222 </v>
   <v>       0.00347222 </v>
   <v>       0.00694444 </v>
   <v>       0.00694444 </v>
   <v>       0.00694444 </v>
   <v>       0.00694444 </v>
   <v>       0.00694444 </v>
   <v>       0.00694444 </v>
   <v>       0.00694444 </v>
   <v>       0.00694444 </v>
   <v>       0.00694444 </v>
   <v>       0.00347222 </v>
   <v>       0.00694444 </v>
   <v>       0.00694444 </v>
   <v>       0.00694444 </v>
   <v>       0.00694444 </v>
   <v>       0.00694444 </v>
   <v>       0.00694444 </v>
   <v>       0.00694444 </v>
   <v>       0.00694444 </v>
   <v>       0.00347222 </v>
   <v>       0.00694444 </v>
   <v>       0.00694444 </v>
   <v>       0.00694444 </v>
   <v>       0.00694444 </v>
   <v>       0.00694444 </v>
   <v>       0.00694444 </v>
   <v>       0.00694444 </v>
   <v>       0.00347222 </v>
   <v>       0.00694444 </v>
   <v>       0.00694444 </v>
   <v>       0.00694444 </v>
   <v>       0.00694444 </v>
   <v>       0.00694444 </v>
   <v>       0.00694444 </v>
   <v>       0.00347222 </v>
   <v>       0.00694444 </v>
   <v>       0.00694444 </v>
   <v>       0.00694444 </v>
   <v>       0.00694444 </v>
   <v>       0.00347222 </v>
   <v>       0.00347222 </v>
   <v>       0.00694444 </v>
   <v>       0.00694444 </v>
   <v>       0.00694444 </v>
   <v>       0.00347222 </v>
   <v>       0.00694444 </v>
   <v>       0.00694444 </v>
   <v>       0.00347222 </v>
   <v>       0.00694444 </v>
   <v>       0.00347222 </v>
   <v>       0.00115741 </v>
   <v>       0.00347222 </v>
   <v>       0.00347222 </v>
   <v>       0.00347222 </v>
   <v>       0.00347222 </v>
   <v>       0.00347222 </v>
   <v>       0.00347222 </v>
   <v>       0.00347222 </v>
   <v>       0.00347222 </v>
   <v>       0.00347222 </v>
   <v>       0.00694444 </v>
   <v>       0.00694444 </v>
   <v>       0.00694444 </v>
   <v>       0.00694444 </v>
   <v>       0.00694444 </v>
   <v>       0.00694444 </v>
   <v>       0.00694444 </v>
   <v>       0.00347222 </v>
   <v>       0.00694444 </v>
   <v>       0.00694444 </v>
   <v>       0.00694444 </v>
   <v>       0.00694444 </v>
   <v>       0.00694444 </v>
   <v>       0.00694444 </v>
   <v>       0.00347222 </v>
   <v>       0.00694444 </v>
   <v>       0.00694444 </v>
   <v>       0.00694444 </v>
   <v>       0.00694444 </v>
   <v>       0.00694444 </v>
   <v>       0.00347222 </v>
   <v>       0.00694444 </v>
   <v>       0.00694444 </v>
   <v>       0.00694444 </v>
   <v>       0.00347222 </v>
   <v>       0.00347222 </v>
   <v>       0.00694444 </v>
   <v>       0.00694444 </v>
   <v>       0.00347222 </v>
   <v>       0.00694444 </v>
   <v>       0.00347222 </v>
   <v>       0.00115741 </v>
   <v>       0.00347222 </v>
   <v>       0.00347222 </v>
   <v>       0.00347222 </v>
   <v>       0.00347222 </v>
   <v>       0.00347222 </v>
   <v>       0.00347222 </v>
   <v>       0.00347222 </v>
   <v>       0.00694444 </v>
   <v>       0.00694444 </v>
   <v>       0.00694444 </v>
   <v>       0.00694444 </v>
   <v>       0.00694444 </v>
   <v>       0.00347222 </v>
   <v>       0.00694444 </v>
   <v>       0.00694444 </v>
   <v>       0.00694444 </v>
   <v>       0.00694444 </v>
   <v>       0.00347222 </v>
   <v>       0.00694444 </v>
   <v>       0.00694444 </v>
   <v>       0.00347222 </v>
   <v>       0.00347222 </v>
   <v>       0.00694444 </v>
   <v>       0.00347222 </v>
   <v>       0.00115741 </v>
   <v>       0.00347222 </v>
   <v>       0.00347222 </v>
   <v>       0.00347222 </v>
   <v>       0.00347222 </v>
   <v>       0.00347222 </v>
   <v>       0.00694444 </v>
   <v>       0.00694444 </v>
   <v>       0.00694444 </v>
   <v>       0.00347222 </v>
   <v>       0.00694444 </v>
   <v>       0.00347222 </v>
   <v>       0.00347222 </v>
   <v>       0.00115741 </v>
   <v>       0.00347222 </v>
   <v>       0.00347222 </v>
   <v>       0.00347222 </v>
   <v>       0.00347222 </v>
   <v>       0.00057870 </v>
  </varray>
  <varray name="tetrahedronlist"  type="int" >
   <v type="int" >        4        1        2        2        8 </v>
   <v type="int" >        4        2        2        8        8 </v>
   <v type="int" >        4        2        8        8       44 </v>
   <v type="int" >        4        2        3        8        9 </v>
   <v type="int" >        4        2        8        8        9 </v>
   <v type="int" >        4        8        8        9       44 </v>
   <v type="int" >        4        3        8        9        9 </v>
   <v type="int" >        8        8        9        9       45 </v>
   <v type="int" >        8        8        9       44       45 </v>
   <v type="int" >        4        3        4        9       10 </v>
   <v type="int" >        4        3        9        9       10 </v>
   <v type="int" >        4        9        9       10       45 </v>
   <v type="int" >        4        4        9       10       10 </v>
   <v type="int" >        4        9       10       10       46 </v>
   <v type="int" >        4        9       10       45       46 </v>
   <v type="int" >        4        4        5       10       11 </v>
   <v type="int" >        4        4       10       10       11 </v>
   <v type="int" >        4       10       10       11       46 </v>
   <v type="int" >        4        5       10       11       11 </v>
   <v type="int" >        4       10       11       11       47 </v>
   <v type="int" >        4       10       11       46       47 </v>
   <v type="int" >        4        5        6       11       12 </v>
   <v type="int" >        4        5       11       11       12 </v>
   <v type="int" >        4       11       11       12       47 </v>
   <v type="int" >        4        6       11       12       12 </v>
   <v type="int" >        4       11       12       12       48 </v>
   <v type="int" >        4       11       12       47       48 </v>
   <v type="int" >        8        6        7       12       13 </v>
   <v type="int" >        4        6       12       12       13 </v>
   <v type="int" >        4       12       12       13       48 </v>
   <v type="int" >        8        7       12       13       13 </v>
   <v type="int" >        4       12       13       13       49 </v>
   <v type="int" >        4       12       13       48       49 </v>
   <v type="int" >        4        6        7       13       14 </v>
   <v type="int" >        4        7       13       13       14 </v>
   <v type="int" >        4       13       13       14       49 </v>
   <v type="int" >        4        6       13       14       14 </v>
   <v type="int" >        4       13       14       14       50 </v>
   <v type="int" >        4       13       14       49       50 </v>
   <v type="int" >        4        5        6       14       15 </v>
   <v type="int" >        4        6       14       14       15 </v>
   <v type="int" >        4       14       14       15       50 </v>
   <v type="int" >        4        5       14       15       15 </v>
   <v type="int" >        4       14       15       15       51 </v>
   <v type="int" >        4       14       15       50       51 </v>
   <v type="int" >        4        4        5       15       16 </v>
   <v type="int" >        4        5       15       15       16 </v>
   <v type="int" >        4       15       15       16       51 </v>
   <v type="int" >        4        4       15       16       16 </v>
   <v type="int" >        4       15       16       16       52 </v>
   <v type="int" >        4       15       16       51       52 </v>
   <v type="int" >        4        3        4       16       17 </v>
   <v type="int" >        4        4       16       16       17 </v>
   <v type="int" >        4       16       16       17       52 </v>
   <v type="int" >        4        3       16       17       17 </v>
   <v type="int" >        4       16       17       17       53 </v>
   <v type="int" >        4       16       17       52       53 </v>
   <v type="int" >        4        2        3       17       18 </v>
   <v type="int" >        4        3       17       17       18 </v>
   <v type="int" >        8       17       17       18       53 </v>
   <v type="int" >        4        2       17       18       18 </v>
   <v type="int" >        4       17       18       18       54 </v>
   <v type="int" >        8       17       18       53       54 </v>
   <v type="int" >        8        1        2        2       18 </v>
   <v type="int" >        4        2        2       18       18 </v>
   <v type="int" >        4        2       18       18       54 </v>
   <v type="int" >        4        2        2        8       18 </v>
   <v type="int" >        4        2        8       18       54 </v>
   <v type="int" >        4        8        9       19       44 </v>
   <v type="int" >        4        9       19       44       45 </v>
   <v type="int" >        4       19       44       45       55 </v>
   <v type="int" >        4        9       10       20       45 </v>
   <v type="int" >        4        9       19       20       45 </v>
   <v type="int" >        4       19       20       45       55 </v>
   <v type="int" >        4       10       20       45       46 </v>
   <v type="int" >        4       20       45       46       56 </v>
   <v type="int" >        4       20       45       55       56 </v>
   <v type="int" >        4       10       11       21       46 </v>
   <v type="int" >        4       10       20       21       46 </v>
   <v type="int" >        4       20       21       46       56 </v>
   <v type="int" >        4       11       21       46       47 </v>
   <v type="int" >        4       21       46       47       57 </v>
   <v type="int" >        4       21       46       56       57 </v>
   <v type="int" >        4       11       12       22       47 </v>
   <v type="int" >        4       11       21       22       47 </v>
   <v type="int" >        4       21       22       47       57 </v>
   <v type="int" >        4       12       22       47       48 </v>
   <v type="int" >        4       22       47       48       58 </v>
   <v type="int" >        4       22       47       57       58 </v>
   <v type="int" >        4       12       13       23       48 </v>
   <v type="int" >        4       12       22       23       48 </v>
   <v type="int" >        4       22       23       48       58 </v>
   <v type="int" >        4       13       23       48       49 </v>
   <v type="int" >        4       23       48       49       59 </v>
   <v type="int" >        4       23       48       58       59 </v>
   <v type="int" >        4       13       14       24       49 </v>
   <v type="int" >        4       13       23       24       49 </v>
   <v type="int" >        4       23       24       49       59 </v>
   <v type="int" >        4       14       24       49       50 </v>
   <v type="int" >        4       24       49       50       60 </v>
   <v type="int" >        4       24       49       59       60 </v>
   <v type="int" >        4       14       15       25       50 </v>
   <v type="int" >        4       14       24       25       50 </v>
   <v type="int" >        4       24       25       50       60 </v>
   <v type="int" >        4       15       25       50       51 </v>
   <v type="int" >        4       25       50       51       61 </v>
   <v type="int" >        4       25       50       60       61 </v>
   <v type="int" >        4       15       16       26       51 </v>
   <v type="int" >        4       15       25       26       51 </v>
   <v type="int" >        4       25       26       51       61 </v>
   <v type="int" >        4       16       26       51       52 </v>
   <v type="int" >        4       26       51       52       62 </v>
   <v type="int" >        4       26       51       61       62 </v>
   <v type="int" >        4       16       17       27       52 </v>
   <v type="int" >        4       16       26       27       52 </v>
   <v type="int" >        4       26       27       52       62 </v>
   <v type="int" >        4       17       27       52       53 </v>
   <v type="int" >        4       27       52       53       63 </v>
   <v type="int" >        4       27       52       62       63 </v>
   <v type="int" >        4       17       17       27       53 </v>
   <v type="int" >        4       17       27       53       63 </v>
   <v type="int" >        4       17       53       54       64 </v>
   <v type="int" >        4       17       53       63       64 </v>
   <v type="int" >        4        2        3       18       54 </v>
   <v type="int" >        4        3       17       18       54 </v>
   <v type="int" >        4        3       17       54       64 </v>
   <v type="int" >        4        2        3        8       54 </v>
   <v type="int" >        4        3        8        9       54 </v>
   <v type="int" >        4        3        9       54       64 </v>
   <v type="int" >        4       19       20       28       55 </v>
   <v type="int" >        4       20       28       55       56 </v>
   <v type="int" >        4       28       55       56       65 </v>
   <v type="int" >        4       20       21       29       56 </v>
   <v type="int" >        4       20       28       29       56 </v>
   <v type="int" >        4       28       29       56       65 </v>
   <v type="int" >        4       21       29       56       57 </v>
   <v type="int" >        4       29       56       57       66 </v>
   <v type="int" >        4       29       56       65       66 </v>
   <v type="int" >        4       21       22       30       57 </v>
   <v type="int" >        4       21       29       30       57 </v>
   <v type="int" >        4       29       30       57       66 </v>
   <v type="int" >        4       22       30       57       58 </v>
   <v type="int" >        4       30       57       58       67 </v>
   <v type="int" >        4       30       57       66       67 </v>
   <v type="int" >        4       22       23       31       58 </v>
   <v type="int" >        4       22       30       31       58 </v>
   <v type="int" >        4       30       31       58       67 </v>
   <v type="int" >        4       23       31       58       59 </v>
   <v type="int" >        4       31       58       59       68 </v>
   <v type="int" >        4       31       58       67       68 </v>
   <v type="int" >        4       23       24       32       59 </v>
   <v type="int" >        4       23       31       32       59 </v>
   <v type="int" >        4       31       32       59       68 </v>
   <v type="int" >        4       24       32       59       60 </v>
   <v type="int" >        4       32       59       60       69 </v>
   <v type="int" >        4       32       59       68       69 </v>
   <v type="int" >        4       24       25       33       60 </v>
   <v type="int" >        4       24       32       33       60 </v>
   <v type="int" >        4       32       33       60       69 </v>
   <v type="int" >        4       25       33       60       61 </v>
   <v type="int" >        4       33       60       61       70 </v>
   <v type="int" >        4       33       60       69       70 </v>
   <v type="int" >        4       25       26       34       61 </v>
   <v type="int" >        4       25       33       34       61 </v>
   <v type="int" >        4       33       34       61       70 </v>
   <v type="int" >        4       26       34       61       62 </v>
   <v type="int" >        4       34       61       62       71 </v>
   <v type="int" >        4       34       61       70       71 </v>
   <v type="int" >        4       26       26       27       62 </v>
   <v type="int" >        4       26       26       34       62 </v>
   <v type="int" >        4       26       34       62       71 </v>
   <v type="int" >        4       26       27       62       63 </v>
   <v type="int" >        4       26       62       63       72 </v>
   <v type="int" >        4       26       62       71       72 </v>
   <v type="int" >        4       16       17       27       63 </v>
   <v type="int" >        4       16       26       27       63 </v>
   <v type="int" >        4       16       26       63       72 </v>
   <v type="int" >        4       16       17       63       64 </v>
   <v type="int" >        4       16       63       64       73 </v>
   <v type="int" >        4       16       63       72       73 </v>
   <v type="int" >        4        3        4       17       64 </v>
   <v type="int" >        4        4       16       17       64 </v>
   <v type="int" >        4        4       16       64       73 </v>
   <v type="int" >        4        3        4        9       64 </v>
   <v type="int" >        4        4        9       10       64 </v>
   <v type="int" >        4        4       10       64       73 </v>
   <v type="int" >        4       28       29       35       65 </v>
   <v type="int" >        4       29       35       65       66 </v>
   <v type="int" >        4       35       65       66       74 </v>
   <v type="int" >        4       29       30       36       66 </v>
   <v type="int" >        4       29       35       36       66 </v>
   <v type="int" >        4       35       36       66       74 </v>
   <v type="int" >        4       30       36       66       67 </v>
   <v type="int" >        4       36       66       67       75 </v>
   <v type="int" >        4       36       66       74       75 </v>
   <v type="int" >        4       30       31       37       67 </v>
   <v type="int" >        4       30       36       37       67 </v>
   <v type="int" >        4       36       37       67       75 </v>
   <v type="int" >        4       31       37       67       68 </v>
   <v type="int" >        4       37       67       68       76 </v>
   <v type="int" >        4       37       67       75       76 </v>
   <v type="int" >        4       31       32       38       68 </v>
   <v type="int" >        4       31       37       38       68 </v>
   <v type="int" >        4       37       38       68       76 </v>
   <v type="int" >        4       32       38       68       69 </v>
   <v type="int" >        4       38       68       69       77 </v>
   <v type="int" >        4       38       68       76       77 </v>
   <v type="int" >        4       32       33       39       69 </v>
   <v type="int" >        4       32       38       39       69 </v>
   <v type="int" >        4       38       39       69       77 </v>
   <v type="int" >        4       33       39       69       70 </v>
   <v type="int" >        4       39       69       70       78 </v>
   <v type="int" >        4       39       69       77       78 </v>
   <v type="int" >        4       33       33       34       70 </v>
   <v type="int" >        4       33       33       39       70 </v>
   <v type="int" >        4       33       39       70       78 </v>
   <v type="int" >        4       33       34       70       71 </v>
   <v type="int" >        4       33       70       71       79 </v>
   <v type="int" >        4       33       70       78       79 </v>
   <v type="int" >        4       25       26       34       71 </v>
   <v type="int" >        4       25       33       34       71 </v>
   <v type="int" >        4       25       33       71       79 </v>
   <v type="int" >        4       25       26       71       72 </v>
   <v type="int" >        4       25       71       72       80 </v>
   <v type="int" >        4       25       71       79       80 </v>
   <v type="int" >        4       15       16       26       72 </v>
   <v type="int" >        4       15       25       26       72 </v>
   <v type="int" >        4       15       25       72       80 </v>
   <v type="int" >        4       15       16       72       73 </v>
   <v type="int" >        4       15       72       73       81 </v>
   <v type="int" >        4       15       72       80       81 </v>
   <v type="int" >        4        4        5       16       73 </v>
   <v type="int" >        4        5       15       16       73 </v>
   <v type="int" >        4        5       15       73       81 </v>
   <v type="int" >        4        4        5       10       73 </v>
   <v type="int" >        4        5       10       11       73 </v>
   <v type="int" >        4        5       11       73       81 </v>
   <v type="int" >        4       35       36       40       74 </v>
   <v type="int" >        4       36       40       74       75 </v>
   <v type="int" >        4       40       74       75       82 </v>
   <v type="int" >        4       36       37       41       75 </v>
   <v type="int" >        4       36       40       41       75 </v>
   <v type="int" >        4       40       41       75       82 </v>
   <v type="int" >        4       37       41       75       76 </v>
   <v type="int" >        4       41       75       76       83 </v>
   <v type="int" >        4       41       75       82       83 </v>
   <v type="int" >        4       37       38       42       76 </v>
   <v type="int" >        4       37       41       42       76 </v>
   <v type="int" >        4       41       42       76       83 </v>
   <v type="int" >        4       38       42       76       77 </v>
   <v type="int" >        4       42       76       77       84 </v>
   <v type="int" >        4       42       76       83       84 </v>
   <v type="int" >        4       38       38       39       77 </v>
   <v type="int" >        4       38       38       42       77 </v>
   <v type="int" >        4       38       42       77       84 </v>
   <v type="int" >        4       38       39       77       78 </v>
   <v type="int" >        4       38       77       78       85 </v>
   <v type="int" >        4       38       77       84       85 </v>
   <v type="int" >        4       32       33       39       78 </v>
   <v type="int" >        4       32       38       39       78 </v>
   <v type="int" >        4       32       38       78       85 </v>
   <v type="int" >        4       32       33       78       79 </v>
   <v type="int" >        4       32       78       79       86 </v>
   <v type="int" >        4       32       78       85       86 </v>
   <v type="int" >        4       24       25       33       79 </v>
   <v type="int" >        4       24       32       33       79 </v>
   <v type="int" >        4       24       32       79       86 </v>
   <v type="int" >        4       24       25       79       80 </v>
   <v type="int" >        4       24       79       80       87 </v>
   <v type="int" >        4       24       79       86       87 </v>
   <v type="int" >        4       14       15       25       80 </v>
   <v type="int" >        4       14       24       25       80 </v>
   <v type="int" >        4       14       24       80       87 </v>
   <v type="int" >        4       14       15       80       81 </v>
   <v type="int" >        4       14       80       81       88 </v>
   <v type="int" >        4       14       80       87       88 </v>
   <v type="int" >        4        5        6       15       81 </v>
   <v type="int" >        4        6       14       15       81 </v>
   <v type="int" >        4        6       14       81       88 </v>
   <v type="int" >        4        5        6       11       81 </v>
   <v type="int" >        4        6       11       12       81 </v>
   <v type="int" >        4        6       12       81       88 </v>
   <v type="int" >        4       40       41       43       82 </v>
   <v type="int" >        4       41       43       82       83 </v>
   <v type="int" >        4       43       82       83       89 </v>
   <v type="int" >        4       41       41       42       83 </v>
   <v type="int" >        8       41       41       43       83 </v>
   <v type="int" >        8       41       43       83       89 </v>
   <v type="int" >        4       41       42       83       84 </v>
   <v type="int" >        4       41       83       84       90 </v>
   <v type="int" >        4       41       83       89       90 </v>
   <v type="int" >        4       37       38       42       84 </v>
   <v type="int" >        4       37       41       42       84 </v>
   <v type="int" >        4       37       41       84       90 </v>
   <v type="int" >        4       37       38       84       85 </v>
   <v type="int" >        4       37       84       85       91 </v>
   <v type="int" >        4       37       84       90       91 </v>
   <v type="int" >        4       31       32       38       85 </v>
   <v type="int" >        4       31       37       38       85 </v>
   <v type="int" >        4       31       37       85       91 </v>
   <v type="int" >        4       31       32       85       86 </v>
   <v type="int" >        4       31       85       86       92 </v>
   <v type="int" >        4       31       85       91       92 </v>
   <v type="int" >        4       23       24       32       86 </v>
   <v type="int" >        4       23       31       32       86 </v>
   <v type="int" >        4       23       31       86       92 </v>
   <v type="int" >        4       23       24       86       87 </v>
   <v type="int" >        4       23       86       87       93 </v>
   <v type="int" >        4       23       86       92       93 </v>
   <v type="int" >        4       13       14       24       87 </v>
   <v type="int" >        4       13       23       24       87 </v>
   <v type="int" >        4       13       23       87       93 </v>
   <v type="int" >        4       13       14       87       88 </v>
   <v type="int" >        4       13       87       88       94 </v>
   <v type="int" >        4       13       87       93       94 </v>
   <v type="int" >        4        6        7       14       88 </v>
   <v type="int" >        4        7       13       14       88 </v>
   <v type="int" >        8        7       13       88       94 </v>
   <v type="int" >        4        6        7       12       88 </v>
   <v type="int" >        4        7       12       13       88 </v>
   <v type="int" >        4       40       41       43       89 </v>
   <v type="int" >        4       40       41       89       90 </v>
   <v type="int" >        4       40       89       90       95 </v>
   <v type="int" >        4       36       37       41       90 </v>
   <v type="int" >        4       36       40       41       90 </v>
   <v type="int" >        4       36       40       90       95 </v>
   <v type="int" >        4       36       37       90       91 </v>
   <v type="int" >        4       36       90       91       96 </v>
   <v type="int" >        4       36       90       95       96 </v>
   <v type="int" >        4       30       31       37       91 </v>
   <v type="int" >        4       30       36       37       91 </v>
   <v type="int" >        4       30       36       91       96 </v>
   <v type="int" >        4       30       31       91       92 </v>
   <v type="int" >        4       30       91       92       97 </v>
   <v type="int" >        4       30       91       96       97 </v>
   <v type="int" >        4       22       23       31       92 </v>
   <v type="int" >        4       22       30       31       92 </v>
   <v type="int" >        4       22       30       92       97 </v>
   <v type="int" >        4       22       23       92       93 </v>
   <v type="int" >        4       22       92       93       98 </v>
   <v type="int" >        4       22       92       97       98 </v>
   <v type="int" >        4       12       13       23       93 </v>
   <v type="int" >        4       12       22       23       93 </v>
   <v type="int" >        4       12       22       93       98 </v>
   <v type="int" >        4       12       13       93       94 </v>
   <v type="int" >        4       12       88       93       94 </v>
   <v type="int" >        4       12       88       93       98 </v>
   <v type="int" >        8        6        7       13       94 </v>
   <v type="int" >        4        6       12       13       94 </v>
   <v type="int" >        4        6       12       88       94 </v>
   <v type="int" >        4        6       13       14       94 </v>
   <v type="int" >        4        6       14       88       94 </v>
   <v type="int" >        4       35       36       40       95 </v>
   <v type="int" >        4       35       36       95       96 </v>
   <v type="int" >        4       35       95       96       99 </v>
   <v type="int" >        4       29       30       36       96 </v>
   <v type="int" >        4       29       35       36       96 </v>
   <v type="int" >        4       29       35       96       99 </v>
   <v type="int" >        4       29       30       96       97 </v>
   <v type="int" >        4       29       96       97      100 </v>
   <v type="int" >        4       29       96       99      100 </v>
   <v type="int" >        4       21       22       30       97 </v>
   <v type="int" >        4       21       29       30       97 </v>
   <v type="int" >        4       21       29       97      100 </v>
   <v type="int" >        4       21       22       97       98 </v>
   <v type="int" >        4       21       97       98      101 </v>
   <v type="int" >        4       21       97      100      101 </v>
   <v type="int" >        4       11       12       22       98 </v>
   <v type="int" >        4       11       21       22       98 </v>
   <v type="int" >        4       11       21       98      101 </v>
   <v type="int" >        4       11       12       88       98 </v>
   <v type="int" >        4       11       81       88       98 </v>
   <v type="int" >        4       11       81       98      101 </v>
   <v type="int" >        4        5        6       12       88 </v>
   <v type="int" >        4        5       11       12       88 </v>
   <v type="int" >        4        5       11       81       88 </v>
   <v type="int" >        4        5        6       14       88 </v>
   <v type="int" >        4        5       14       15       88 </v>
   <v type="int" >        4        5       15       81       88 </v>
   <v type="int" >        4       28       29       35       99 </v>
   <v type="int" >        4       28       29       99      100 </v>
   <v type="int" >        4       28       99      100      102 </v>
   <v type="int" >        4       20       21       29      100 </v>
   <v type="int" >        4       20       28       29      100 </v>
   <v type="int" >        4       20       28      100      102 </v>
   <v type="int" >        4       20       21      100      101 </v>
   <v type="int" >        4       20      100      101      103 </v>
   <v type="int" >        4       20      100      102      103 </v>
   <v type="int" >        4       10       11       21      101 </v>
   <v type="int" >        4       10       20       21      101 </v>
   <v type="int" >        4       10       20      101      103 </v>
   <v type="int" >        4       10       11       81      101 </v>
   <v type="int" >        4       10       73       81      101 </v>
   <v type="int" >        4       10       73      101      103 </v>
   <v type="int" >        4        4        5       11       81 </v>
   <v type="int" >        4        4       10       11       81 </v>
   <v type="int" >        4        4       10       73       81 </v>
   <v type="int" >        4        4        5       15       81 </v>
   <v type="int" >        4        4       15       16       81 </v>
   <v type="int" >        4        4       16       73       81 </v>
   <v type="int" >        4       19       20       28      102 </v>
   <v type="int" >        4       19       20      102      103 </v>
   <v type="int" >        4       19      102      103      104 </v>
   <v type="int" >        4        9       10       20      103 </v>
   <v type="int" >        4        9       19       20      103 </v>
   <v type="int" >        4        9       19      103      104 </v>
   <v type="int" >        4        9       10       73      103 </v>
   <v type="int" >        4        9       64       73      103 </v>
   <v type="int" >        4        9       64      103      104 </v>
   <v type="int" >        4        3        4       10       73 </v>
   <v type="int" >        4        3        9       10       73 </v>
   <v type="int" >        4        3        9       64       73 </v>
   <v type="int" >        4        3        4       16       73 </v>
   <v type="int" >        4        3       16       17       73 </v>
   <v type="int" >        4        3       17       64       73 </v>
   <v type="int" >        4        8        9       19      104 </v>
   <v type="int" >        4        8        9       64      104 </v>
   <v type="int" >        4        8       54       64      104 </v>
   <v type="int" >        4        2        3        9       64 </v>
   <v type="int" >        4        2        8        9       64 </v>
   <v type="int" >        4        2        8       54       64 </v>
   <v type="int" >        4        2        3       17       64 </v>
   <v type="int" >        4        2       17       18       64 </v>
   <v type="int" >        4        2       18       54       64 </v>
   <v type="int" >        4        1        2        8       54 </v>
   <v type="int" >        8        1        2       18       54 </v>
   <v type="int" >        4        2        3        8       44 </v>
   <v type="int" >        4        3        8        9       44 </v>
   <v type="int" >        4        3        9       44       45 </v>
   <v type="int" >        4        9       44       45       45 </v>
   <v type="int" >        4        9        9       19       45 </v>
   <v type="int" >        4        9       19       45       55 </v>
   <v type="int" >        4        9       45       45       55 </v>
   <v type="int" >        4        9       10       19       46 </v>
   <v type="int" >        4        9       19       45       46 </v>
   <v type="int" >        4       19       45       46       55 </v>
   <v type="int" >        4       10       19       20       46 </v>
   <v type="int" >        4       19       20       46       56 </v>
   <v type="int" >        4       19       46       55       56 </v>
   <v type="int" >        4       10       11       20       47 </v>
   <v type="int" >        4       10       20       46       47 </v>
   <v type="int" >        4       20       46       47       56 </v>
   <v type="int" >        4       11       20       21       47 </v>
   <v type="int" >        4       20       21       47       57 </v>
   <v type="int" >        4       20       47       56       57 </v>
   <v type="int" >        4       11       12       21       48 </v>
   <v type="int" >        4       11       21       47       48 </v>
   <v type="int" >        4       21       47       48       57 </v>
   <v type="int" >        4       12       21       22       48 </v>
   <v type="int" >        4       21       22       48       58 </v>
   <v type="int" >        4       21       48       57       58 </v>
   <v type="int" >        4       12       13       22       49 </v>
   <v type="int" >        4       12       22       48       49 </v>
   <v type="int" >        4       22       48       49       58 </v>
   <v type="int" >        4       13       22       23       49 </v>
   <v type="int" >        4       22       23       49       59 </v>
   <v type="int" >        4       22       49       58       59 </v>
   <v type="int" >        4       13       14       23       50 </v>
   <v type="int" >        4       13       23       49       50 </v>
   <v type="int" >        4       23       49       50       59 </v>
   <v type="int" >        4       14       23       24       50 </v>
   <v type="int" >        4       23       24       50       60 </v>
   <v type="int" >        4       23       50       59       60 </v>
   <v type="int" >        4       14       15       24       51 </v>
   <v type="int" >        4       14       24       50       51 </v>
   <v type="int" >        4       24       50       51       60 </v>
   <v type="int" >        4       15       24       25       51 </v>
   <v type="int" >        4       24       25       51       61 </v>
   <v type="int" >        4       24       51       60       61 </v>
   <v type="int" >        4       15       16       25       52 </v>
   <v type="int" >        4       15       25       51       52 </v>
   <v type="int" >        4       25       51       52       61 </v>
   <v type="int" >        4       16       25       26       52 </v>
   <v type="int" >        4       25       26       52       62 </v>
   <v type="int" >        4       25       52       61       62 </v>
   <v type="int" >        4       16       17       26       53 </v>
   <v type="int" >        4       16       26       52       53 </v>
   <v type="int" >        4       26       52       53       62 </v>
   <v type="int" >        4       17       26       27       53 </v>
   <v type="int" >        4       26       27       53       63 </v>
   <v type="int" >        4       26       53       62       63 </v>
   <v type="int" >        8       17       18       27       54 </v>
   <v type="int" >        4       17       27       53       54 </v>
   <v type="int" >        4       27       53       54       63 </v>
   <v type="int" >        4       17       27       54       64 </v>
   <v type="int" >        4       27       54       63       64 </v>
   <v type="int" >        4        2        8       17       18 </v>
   <v type="int" >        4        8       17       18       54 </v>
   <v type="int" >        4        8       17       54       64 </v>
   <v type="int" >        4        2        3        8       17 </v>
   <v type="int" >        4        3        8        9       17 </v>
   <v type="int" >        4        8        9       17       64 </v>
   <v type="int" >        4       44       45       45       55 </v>
   <v type="int" >        4       45       45       55       55 </v>
   <v type="int" >        4       45       55       55      105 </v>
   <v type="int" >        4       45       46       55       56 </v>
   <v type="int" >        4       45       55       55       56 </v>
   <v type="int" >        4       55       55       56      105 </v>
   <v type="int" >        4       46       55       56       56 </v>
   <v type="int" >        8       55       56       56      106 </v>
   <v type="int" >        8       55       56      105      106 </v>
   <v type="int" >        4       46       47       56       57 </v>
   <v type="int" >        4       46       56       56       57 </v>
   <v type="int" >        4       56       56       57      106 </v>
   <v type="int" >        4       47       56       57       57 </v>
   <v type="int" >        4       56       57       57      107 </v>
   <v type="int" >        4       56       57      106      107 </v>
   <v type="int" >        4       47       48       57       58 </v>
   <v type="int" >        4       47       57       57       58 </v>
   <v type="int" >        4       57       57       58      107 </v>
   <v type="int" >        4       48       57       58       58 </v>
   <v type="int" >        4       57       58       58      108 </v>
   <v type="int" >        4       57       58      107      108 </v>
   <v type="int" >        4       48       49       58       59 </v>
   <v type="int" >        4       48       58       58       59 </v>
   <v type="int" >        4       58       58       59      108 </v>
   <v type="int" >        4       49       58       59       59 </v>
   <v type="int" >        4       58       59       59      109 </v>
   <v type="int" >        4       58       59      108      109 </v>
   <v type="int" >        4       49       50       59       60 </v>
   <v type="int" >        4       49       59       59       60 </v>
   <v type="int" >        4       59       59       60      109 </v>
   <v type="int" >        4       50       59       60       60 </v>
   <v type="int" >        4       59       60       60      110 </v>
   <v type="int" >        4       59       60      109      110 </v>
   <v type="int" >        4       50       51       60       61 </v>
   <v type="int" >        4       50       60       60       61 </v>
   <v type="int" >        4       60       60       61      110 </v>
   <v type="int" >        4       51       60       61       61 </v>
   <v type="int" >        4       60       61       61      111 </v>
   <v type="int" >        4       60       61      110      111 </v>
   <v type="int" >        4       51       52       61       62 </v>
   <v type="int" >        4       51       61       61       62 </v>
   <v type="int" >        4       61       61       62      111 </v>
   <v type="int" >        4       52       61       62       62 </v>
   <v type="int" >        4       61       62       62      112 </v>
   <v type="int" >        4       61       62      111      112 </v>
   <v type="int" >        4       52       53       62       63 </v>
   <v type="int" >        4       52       62       62       63 </v>
   <v type="int" >        4       62       62       63      112 </v>
   <v type="int" >        4       53       62       63       63 </v>
   <v type="int" >        4       62       63       63      113 </v>
   <v type="int" >        4       62       63      112      113 </v>
   <v type="int" >        4       53       54       63       64 </v>
   <v type="int" >        4       53       63       63       64 </v>
   <v type="int" >        4       63       63       64      113 </v>
   <v type="int" >        4       54       63       64       64 </v>
   <v type="int" >        4       63       64       64      104 </v>
   <v type="int" >        4       63       64      104      113 </v>
   <v type="int" >        4        8        9       54       64 </v>
   <v type="int" >        4        9       54       64       64 </v>
   <v type="int" >        4        9       64       64      104 </v>
   <v type="int" >        4        8        9        9       64 </v>
   <v type="int" >        4        9        9       19       64 </v>
   <v type="int" >        4        9       19       64      104 </v>
   <v type="int" >        4       55       56       65      105 </v>
   <v type="int" >        4       56       65      105      106 </v>
   <v type="int" >        4       65      105      106      114 </v>
   <v type="int" >        4       56       57       66      106 </v>
   <v type="int" >        4       56       65       66      106 </v>
   <v type="int" >        4       65       66      106      114 </v>
   <v type="int" >        4       57       66      106      107 </v>
   <v type="int" >        4       66      106      107      115 </v>
   <v type="int" >        4       66      106      114      115 </v>
   <v type="int" >        4       57       58       67      107 </v>
   <v type="int" >        4       57       66       67      107 </v>
   <v type="int" >        4       66       67      107      115 </v>
   <v type="int" >        4       58       67      107      108 </v>
   <v type="int" >        4       67      107      108      116 </v>
   <v type="int" >        4       67      107      115      116 </v>
   <v type="int" >        4       58       59       68      108 </v>
   <v type="int" >        4       58       67       68      108 </v>
   <v type="int" >        4       67       68      108      116 </v>
   <v type="int" >        4       59       68      108      109 </v>
   <v type="int" >        4       68      108      109      117 </v>
   <v type="int" >        4       68      108      116      117 </v>
   <v type="int" >        4       59       60       69      109 </v>
   <v type="int" >        4       59       68       69      109 </v>
   <v type="int" >        4       68       69      109      117 </v>
   <v type="int" >        4       60       69      109      110 </v>
   <v type="int" >        4       69      109      110      118 </v>
   <v type="int" >        4       69      109      117      118 </v>
   <v type="int" >        4       60       61       70      110 </v>
   <v type="int" >        4       60       69       70      110 </v>
   <v type="int" >        4       69       70      110      118 </v>
   <v type="int" >        4       61       70      110      111 </v>
   <v type="int" >        4       70      110      111      119 </v>
   <v type="int" >        4       70      110      118      119 </v>
   <v type="int" >        4       61       62       71      111 </v>
   <v type="int" >        4       61       70       71      111 </v>
   <v type="int" >        4       70       71      111      119 </v>
   <v type="int" >        4       62       71      111      112 </v>
   <v type="int" >        4       71      111      112      120 </v>
   <v type="int" >        4       71      111      119      120 </v>
   <v type="int" >        4       62       63       72      112 </v>
   <v type="int" >        4       62       71       72      112 </v>
   <v type="int" >        4       71       72      112      120 </v>
   <v type="int" >        4       63       72      112      113 </v>
   <v type="int" >        4       72      112      113      121 </v>
   <v type="int" >        4       72      112      120      121 </v>
   <v type="int" >        4       63       64       73      113 </v>
   <v type="int" >        4       63       72       73      113 </v>
   <v type="int" >        4       72       73      113      121 </v>
   <v type="int" >        4       64       73      104      113 </v>
   <v type="int" >        4       73      103      104      113 </v>
   <v type="int" >        4       73      103      113      121 </v>
   <v type="int" >        4        9       10       64      104 </v>
   <v type="int" >        4       10       64       73      104 </v>
   <v type="int" >        4       10       73      103      104 </v>
   <v type="int" >        4        9       10       19      104 </v>
   <v type="int" >        4       10       19       20      104 </v>
   <v type="int" >        4       10       20      103      104 </v>
   <v type="int" >        4       65       66       74      114 </v>
   <v type="int" >        4       66       74      114      115 </v>
   <v type="int" >        4       74      114      115      122 </v>
   <v type="int" >        4       66       67       75      115 </v>
   <v type="int" >        4       66       74       75      115 </v>
   <v type="int" >        4       74       75      115      122 </v>
   <v type="int" >        4       67       75      115      116 </v>
   <v type="int" >        4       75      115      116      123 </v>
   <v type="int" >        4       75      115      122      123 </v>
   <v type="int" >        4       67       68       76      116 </v>
   <v type="int" >        4       67       75       76      116 </v>
   <v type="int" >        4       75       76      116      123 </v>
   <v type="int" >        4       68       76      116      117 </v>
   <v type="int" >        4       76      116      117      124 </v>
   <v type="int" >        4       76      116      123      124 </v>
   <v type="int" >        4       68       69       77      117 </v>
   <v type="int" >        4       68       76       77      117 </v>
   <v type="int" >        4       76       77      117      124 </v>
   <v type="int" >        4       69       77      117      118 </v>
   <v type="int" >        4       77      117      118      125 </v>
   <v type="int" >        4       77      117      124      125 </v>
   <v type="int" >        4       69       70       78      118 </v>
   <v type="int" >        4       69       77       78      118 </v>
   <v type="int" >        4       77       78      118      125 </v>
   <v type="int" >        4       70       78      118      119 </v>
   <v type="int" >        4       78      118      119      126 </v>
   <v type="int" >        4       78      118      125      126 </v>
   <v type="int" >        4       70       71       79      119 </v>
   <v type="int" >        4       70       78       79      119 </v>
   <v type="int" >        4       78       79      119      126 </v>
   <v type="int" >        4       71       79      119      120 </v>
   <v type="int" >        4       79      119      120      127 </v>
   <v type="int" >        4       79      119      126      127 </v>
   <v type="int" >        4       71       72       80      120 </v>
   <v type="int" >        4       71       79       80      120 </v>
   <v type="int" >        4       79       80      120      127 </v>
   <v type="int" >        4       72       80      120      121 </v>
   <v type="int" >        4       80      120      121      128 </v>
   <v type="int" >        4       80      120      127      128 </v>
   <v type="int" >        4       72       73       81      121 </v>
   <v type="int" >        4       72       80       81      121 </v>
   <v type="int" >        4       80       81      121      128 </v>
   <v type="int" >        4       73       81      103      121 </v>
   <v type="int" >        4       81      101      103      121 </v>
   <v type="int" >        4       81      101      121      128 </v>
   <v type="int" >        4       10       11       73      103 </v>
   <v type="int" >        4       11       73       81      103 </v>
   <v type="int" >        4       11       81      101      103 </v>
   <v type="int" >        4       10       11       20      103 </v>
   <v type="int" >        4       11       20       21      103 </v>
   <v type="int" >        4       11       21      101      103 </v>
   <v type="int" >        4       74       75       82      122 </v>
   <v type="int" >        4       75       82      122      123 </v>
   <v type="int" >        4       82      122      123      129 </v>
   <v type="int" >        4       75       76       83      123 </v>
   <v type="int" >        4       75       82       83      123 </v>
   <v type="int" >        4       82       83      123      129 </v>
   <v type="int" >        4       76       83      123      124 </v>
   <v type="int" >        4       83      123      124      130 </v>
   <v type="int" >        4       83      123      129      130 </v>
   <v type="int" >        4       76       77       84      124 </v>
   <v type="int" >        4       76       83       84      124 </v>
   <v type="int" >        4       83       84      124      130 </v>
   <v type="int" >        4       77       84      124      125 </v>
   <v type="int" >        4       84      124      125      131 </v>
   <v type="int" >        4       84      124      130      131 </v>
   <v type="int" >        4       77       78       85      125 </v>
   <v type="int" >        4       77       84       85      125 </v>
   <v type="int" >        4       84       85      125      131 </v>
   <v type="int" >        4       78       85      125      126 </v>
   <v type="int" >        4       85      125      126      132 </v>
   <v type="int" >        4       85      125      131      132 </v>
   <v type="int" >        4       78       79       86      126 </v>
   <v type="int" >        4       78       85       86      126 </v>
   <v type="int" >        4       85       86      126      132 </v>
   <v type="int" >        4       79       86      126      127 </v>
   <v type="int" >        4       86      126      127      133 </v>
   <v type="int" >        4       86      126      132      133 </v>
   <v type="int" >        4       79       80       87      127 </v>
   <v type="int" >        4       79       86       87      127 </v>
   <v type="int" >        4       86       87      127      133 </v>
   <v type="int" >        4       80       87      127      128 </v>
   <v type="int" >        4       87      127      128      134 </v>
   <v type="int" >        4       87      127      133      134 </v>
   <v type="int" >        4       80       81       88      128 </v>
   <v type="int" >        4       80       87       88      128 </v>
   <v type="int" >        4       87       88      128      134 </v>
   <v type="int" >        4       81       88      101      128 </v>
   <v type="int" >        4       88       98      101      128 </v>
   <v type="int" >        4       88       98      128      134 </v>
   <v type="int" >        4       11       12       81      101 </v>
   <v type="int" >        4       12       81       88      101 </v>
   <v type="int" >        4       12       88       98      101 </v>
   <v type="int" >        4       11       12       21      101 </v>
   <v type="int" >        4       12       21       22      101 </v>
   <v type="int" >        4       12       22       98      101 </v>
   <v type="int" >        4       82       83       89      129 </v>
   <v type="int" >        4       83       89      129      130 </v>
   <v type="int" >        4       89      129      130      135 </v>
   <v type="int" >        4       83       84       90      130 </v>
   <v type="int" >        4       83       89       90      130 </v>
   <v type="int" >        4       89       90      130      135 </v>
   <v type="int" >        4       84       90      130      131 </v>
   <v type="int" >        4       90      130      131      136 </v>
   <v type="int" >        4       90      130      135      136 </v>
   <v type="int" >        4       84       85       91      131 </v>
   <v type="int" >        4       84       90       91      131 </v>
   <v type="int" >        4       90       91      131      136 </v>
   <v type="int" >        4       85       91      131      132 </v>
   <v type="int" >        4       91      131      132      137 </v>
   <v type="int" >        4       91      131      136      137 </v>
   <v type="int" >        4       85       86       92      132 </v>
   <v type="int" >        4       85       91       92      132 </v>
   <v type="int" >        4       91       92      132      137 </v>
   <v type="int" >        4       86       92      132      133 </v>
   <v type="int" >        4       92      132      133      138 </v>
   <v type="int" >        4       92      132      137      138 </v>
   <v type="int" >        4       86       87       93      133 </v>
   <v type="int" >        4       86       92       93      133 </v>
   <v type="int" >        4       92       93      133      138 </v>
   <v type="int" >        4       87       93      133      134 </v>
   <v type="int" >        4       93      133      134      139 </v>
   <v type="int" >        4       93      133      138      139 </v>
   <v type="int" >        4       87       88       94      134 </v>
   <v type="int" >        4       87       93       94      134 </v>
   <v type="int" >        8       93       94      134      139 </v>
   <v type="int" >        4       88       94       98      134 </v>
   <v type="int" >        4       93       94       98      134 </v>
   <v type="int" >        4       12       13       88       98 </v>
   <v type="int" >        4       13       88       94       98 </v>
   <v type="int" >        4       13       93       94       98 </v>
   <v type="int" >        4       12       13       22       98 </v>
   <v type="int" >        4       13       22       23       98 </v>
   <v type="int" >        4       13       23       93       98 </v>
   <v type="int" >        4       89       90       95      135 </v>
   <v type="int" >        4       90       95      135      136 </v>
   <v type="int" >        4       95      135      136      140 </v>
   <v type="int" >        4       90       91       96      136 </v>
   <v type="int" >        4       90       95       96      136 </v>
   <v type="int" >        4       95       96      136      140 </v>
   <v type="int" >        4       91       96      136      137 </v>
   <v type="int" >        4       96      136      137      141 </v>
   <v type="int" >        4       96      136      140      141 </v>
   <v type="int" >        4       91       92       97      137 </v>
   <v type="int" >        4       91       96       97      137 </v>
   <v type="int" >        4       96       97      137      141 </v>
   <v type="int" >        4       92       97      137      138 </v>
   <v type="int" >        4       97      137      138      142 </v>
   <v type="int" >        4       97      137      141      142 </v>
   <v type="int" >        4       92       93       98      138 </v>
   <v type="int" >        4       92       97       98      138 </v>
   <v type="int" >        4       97       98      138      142 </v>
   <v type="int" >        4       93       98      138      139 </v>
   <v type="int" >        4       98      134      138      139 </v>
   <v type="int" >        4       98      134      138      142 </v>
   <v type="int" >        8       88       93       94      139 </v>
   <v type="int" >        4       88       93       98      139 </v>
   <v type="int" >        4       88       98      134      139 </v>
   <v type="int" >        4       87       88       93      139 </v>
   <v type="int" >        4       87       88      134      139 </v>
   <v type="int" >        4       13       14       93       94 </v>
   <v type="int" >        4       14       88       93       94 </v>
   <v type="int" >        4       14       87       88       93 </v>
   <v type="int" >        4       13       14       23       93 </v>
   <v type="int" >        4       14       23       24       93 </v>
   <v type="int" >        4       14       24       87       93 </v>
   <v type="int" >        4       95       96       99      140 </v>
   <v type="int" >        4       96       99      140      141 </v>
   <v type="int" >        4       99      140      141      143 </v>
   <v type="int" >        4       96       97      100      141 </v>
   <v type="int" >        4       96       99      100      141 </v>
   <v type="int" >        4       99      100      141      143 </v>
   <v type="int" >        4       97      100      141      142 </v>
   <v type="int" >        4      100      141      142      144 </v>
   <v type="int" >        4      100      141      143      144 </v>
   <v type="int" >        4       97       98      101      142 </v>
   <v type="int" >        4       97      100      101      142 </v>
   <v type="int" >        4      100      101      142      144 </v>
   <v type="int" >        4       98      101      134      142 </v>
   <v type="int" >        4      101      128      134      142 </v>
   <v type="int" >        4      101      128      142      144 </v>
   <v type="int" >        4       81       88       98      134 </v>
   <v type="int" >        4       81       98      101      134 </v>
   <v type="int" >        4       81      101      128      134 </v>
   <v type="int" >        4       81       87       88      134 </v>
   <v type="int" >        4       80       81       87      134 </v>
   <v type="int" >        4       80       81      128      134 </v>
   <v type="int" >        4       14       15       87       88 </v>
   <v type="int" >        4       15       81       87       88 </v>
   <v type="int" >        4       15       80       81       87 </v>
   <v type="int" >        4       14       15       24       87 </v>
   <v type="int" >        4       15       24       25       87 </v>
   <v type="int" >        4       15       25       80       87 </v>
   <v type="int" >        4       99      100      102      143 </v>
   <v type="int" >        4      100      102      143      144 </v>
   <v type="int" >        4      102      143      144      145 </v>
   <v type="int" >        4      100      101      103      144 </v>
   <v type="int" >        4      100      102      103      144 </v>
   <v type="int" >        4      102      103      144      145 </v>
   <v type="int" >        4      101      103      128      144 </v>
   <v type="int" >        4      103      121      128      144 </v>
   <v type="int" >        4      103      121      144      145 </v>
   <v type="int" >        4       73       81      101      128 </v>
   <v type="int" >        4       73      101      103      128 </v>
   <v type="int" >        4       73      103      121      128 </v>
   <v type="int" >        4       73       80       81      128 </v>
   <v type="int" >        4       72       73       80      128 </v>
   <v type="int" >        4       72       73      121      128 </v>
   <v type="int" >        4       15       16       80       81 </v>
   <v type="int" >        4       16       73       80       81 </v>
   <v type="int" >        4       16       72       73       80 </v>
   <v type="int" >        4       15       16       25       80 </v>
   <v type="int" >        4       16       25       26       80 </v>
   <v type="int" >        4       16       26       72       80 </v>
   <v type="int" >        4      102      103      104      145 </v>
   <v type="int" >        4      103      104      121      145 </v>
   <v type="int" >        4      104      113      121      145 </v>
   <v type="int" >        4       64       73      103      121 </v>
   <v type="int" >        4       64      103      104      121 </v>
   <v type="int" >        4       64      104      113      121 </v>
   <v type="int" >        4       64       72       73      121 </v>
   <v type="int" >        4       63       64       72      121 </v>
   <v type="int" >        4       63       64      113      121 </v>
   <v type="int" >        4       16       17       72       73 </v>
   <v type="int" >        4       17       64       72       73 </v>
   <v type="int" >        4       17       63       64       72 </v>
   <v type="int" >        4       16       17       26       72 </v>
   <v type="int" >        4       17       26       27       72 </v>
   <v type="int" >        4       17       27       63       72 </v>
   <v type="int" >        4       54       64      104      113 </v>
   <v type="int" >        4       54       63       64      113 </v>
   <v type="int" >        4       53       54       63      113 </v>
   <v type="int" >        4       17       18       63       64 </v>
   <v type="int" >        4       18       54       63       64 </v>
   <v type="int" >        4       18       53       54       63 </v>
   <v type="int" >        8       17       18       27       63 </v>
   <v type="int" >        4       17       18       53       63 </v>
   <v type="int" >        4        2       18       53       54 </v>
   <v type="int" >        4        2       17       18       53 </v>
   <v type="int" >        4        2        3       17       53 </v>
   <v type="int" >        4        3        4        9       45 </v>
   <v type="int" >        4        4        9       10       45 </v>
   <v type="int" >        4        4       10       45       46 </v>
   <v type="int" >        4        9       10       19       55 </v>
   <v type="int" >        4        9       10       45       55 </v>
   <v type="int" >        4       10       45       46       55 </v>
   <v type="int" >        4       10       19       20       55 </v>
   <v type="int" >        4       10       20       55       56 </v>
   <v type="int" >        4       10       46       55       56 </v>
   <v type="int" >        4       19       20       20       56 </v>
   <v type="int" >        4       19       20       55       56 </v>
   <v type="int" >        4       20       55       56       56 </v>
   <v type="int" >        4       20       20       28       56 </v>
   <v type="int" >        4       20       28       56       65 </v>
   <v type="int" >        4       20       56       56       65 </v>
   <v type="int" >        4       20       21       28       57 </v>
   <v type="int" >        4       20       28       56       57 </v>
   <v type="int" >        4       28       56       57       65 </v>
   <v type="int" >        4       21       28       29       57 </v>
   <v type="int" >        4       28       29       57       66 </v>
   <v type="int" >        4       28       57       65       66 </v>
[...]
       <r>   -6.1748    1.0000 </r>
       <r>   -5.9279    1.0000 </r>
       <r>   -3.3179    1.0000 </r>
       <r>   -3.3179    1.0000 </r>
       <r>   -3.3073    1.0000 </r>
       <r>   -2.2529    1.0000 </r>
       <r>    5.9667    1.0000 </r>
       <r>    6.1366    1.0000 </r>
       <r>    6.1366    1.0000 </r>
       <r>    6.2620    1.0000 </r>
       <r>    6.4373    1.0000 </r>
       <r>    6.4374    1.0000 </r>
       <r>    6.8767    1.0000 </r>
       <r>    6.9239    1.0000 </r>
       <r>   17.3310    0.0000 </r>
       <r>   17.4938    0.0000 </r>
       <r>   17.4938    0.0000 </r>
       <r>   17.7056    0.0000 </r>
       <r>   17.8591    0.0000 </r>
       <r>   18.2845    0.0000 </r>
       <r>   18.4023    0.0000 </r>
       <r>   18.4429    0.0000 </r>
      </set>
      <set comment="kpoint 187">
       <r>   -6.2961    1.0000 </r>
       <r>   -6.2961    1.0000 </r>
       <r>   -6.2872    1.0000 </r>
       <r>   -6.0404    1.0000 </r>
       <r>   -3.4291    1.0000 </r>
       <r>   -3.4199    1.0000 </r>
       <r>   -3.4199    1.0000 </r>
       <r>   -3.4165    1.0000 </r>
       <r>    6.3753    1.0000 </r>
       <r>    6.5375    1.0000 </r>
       <r>    6.5571    1.0000 </r>
       <r>    6.5571    1.0000 </r>
       <r>    6.5892    1.0000 </r>
       <r>    6.7573    1.0000 </r>
       <r>    6.7573    1.0000 </r>
       <r>    6.7850    1.0000 </r>
       <r>   17.7193    0.0000 </r>
       <r>   17.7582    0.0000 </r>
       <r>   17.7583    0.0000 </r>
       <r>   17.8243    0.0000 </r>
       <r>   17.8487    0.0000 </r>
       <r>   17.8681    0.0000 </r>
       <r>   17.9241    0.0000 </r>
       <r>   18.0223    0.0000 </r>
      </set>
      <set comment="kpoint 188">
       <r>   -6.7112    1.0000 </r>
       <r>   -6.7112    1.0000 </r>
       <r>   -6.0391    1.0000 </r>
       <r>   -5.7542    1.0000 </r>
       <r>   -3.5887    1.0000 </r>
       <r>   -3.5632    1.0000 </r>
       <r>   -2.9038    1.0000 </r>
       <r>   -2.9038    1.0000 </r>
       <r>    6.0494    1.0000 </r>
       <r>    6.2535    1.0000 </r>
       <r>    6.3877    1.0000 </r>
       <r>    6.5274    1.0000 </r>
       <r>    6.6620    1.0000 </r>
       <r>    6.6620    1.0000 </r>
       <r>    6.7414    1.0000 </r>
       <r>    6.7414    1.0000 </r>
       <r>   17.6392    0.0000 </r>
       <r>   17.6392    0.0000 </r>
       <r>   17.6648    0.0000 </r>
       <r>   17.6675    0.0000 </r>
       <r>   17.8441    0.0000 </r>
       <r>   18.0859    0.0000 </r>
       <r>   18.0864    0.0000 </r>
       <r>   18.4079    0.0000 </r>
      </set>
      <set comment="kpoint 189">
       <r>   -6.1500    1.0000 </r>
       <r>   -6.1500    1.0000 </r>
       <r>   -6.1500    1.0000 </r>
       <r>   -5.8649    1.0000 </r>
       <r>   -3.7012    1.0000 </r>
       <r>   -3.6772    1.0000 </r>
       <r>   -3.6772    1.0000 </r>
       <r>   -3.6772    1.0000 </r>
       <r>    6.6056    1.0000 </r>
       <r>    6.6056    1.0000 </r>
       <r>    6.7568    1.0000 </r>
       <r>    6.7568    1.0000 </r>
       <r>    6.7568    1.0000 </r>
       <r>    6.8087    1.0000 </r>
       <r>    6.8087    1.0000 </r>
       <r>    6.8087    1.0000 </r>
       <r>   17.7250    0.0000 </r>
       <r>   17.7352    0.0000 </r>
       <r>   17.7352    0.0000 </r>
       <r>   17.7368    0.0000 </r>
       <r>   17.7832    0.0000 </r>
       <r>   17.7844    0.0000 </r>
       <r>   17.8966    0.0000 </r>
       <r>   17.8966    0.0000 </r>
      </set>
     </set>
    </set>
   </array>
  </eigenvalues>
  <separator name="orbital magnetization" >
   <v name="MAGDIPOLOUT">      0.00000000      0.00000000      0.00000000</v>
  </separator>
  <dos>
   <i name="efermi">      9.61428866 </i>
   <total>
    <array>
     <dimension dim="1">gridpoints</dimension>
     <dimension dim="2">spin</dimension>
     <field>energy</field>
     <field>total</field>
     <field>integrated</field>
     <set>
      <set comment="spin 1">
       <r>   -13.3845     0.0000     0.0000 </r>
       <r>   -13.2641     0.0000     0.0000 </r>
       <r>   -13.1437     0.0000     0.0000 </r>
       <r>   -13.0233     0.0000     0.0000 </r>
       <r>   -12.9030     0.0000     0.0000 </r>
       <r>   -12.7826     0.0000     0.0000 </r>
       <r>   -12.6622     0.0000     0.0000 </r>
       <r>   -12.5418     0.0000     0.0000 </r>
       <r>   -12.4215     0.0000     0.0000 </r>
       <r>   -12.3011     0.0000     0.0000 </r>
       <r>   -12.1807     0.0000     0.0000 </r>
       <r>   -12.0604     0.0000     0.0000 </r>
       <r>   -11.9400     0.0000     0.0000 </r>
       <r>   -11.8196     0.0000     0.0000 </r>
       <r>   -11.6992     0.0352     0.0005 </r>
       <r>   -11.5789     0.1554     0.0149 </r>
       <r>   -11.4585     0.2432     0.0389 </r>
       <r>   -11.3381     0.2752     0.0698 </r>
       <r>   -11.2177     0.3230     0.1058 </r>
       <r>   -11.0974     0.3636     0.1476 </r>
       <r>   -10.9770     0.3930     0.1930 </r>
       <r>   -10.8566     0.4242     0.2421 </r>
       <r>   -10.7363     0.4629     0.2955 </r>
       <r>   -10.6159     0.4863     0.3528 </r>
       <r>   -10.4955     0.5099     0.4128 </r>
       <r>   -10.3751     0.5359     0.4756 </r>
       <r>   -10.2548     0.5645     0.5419 </r>
       <r>   -10.1344     0.5922     0.6115 </r>
       <r>   -10.0140     0.6118     0.6839 </r>
       <r>    -9.8936     0.6330     0.7589 </r>
       <r>    -9.7733     0.6567     0.8365 </r>
       <r>    -9.6529     0.6816     0.9170 </r>
       <r>    -9.5325     0.7085     1.0006 </r>
       <r>    -9.4122     0.7242     1.0872 </r>
       <r>    -9.2918     0.7403     1.1755 </r>
       <r>    -9.1714     0.7578     1.2655 </r>
       <r>    -9.0510     0.7770     1.3579 </r>
       <r>    -8.9307     0.7967     1.4526 </r>
       <r>    -8.8103     0.8202     1.5499 </r>
       <r>    -8.6899     0.8426     1.6500 </r>
       <r>    -8.5695     0.8593     1.7525 </r>
       <r>    -8.4492     0.8792     1.8571 </r>
       <r>    -8.3288     0.8986     1.9641 </r>
       <r>    -8.2084     0.9176     2.0734 </r>
       <r>    -8.0881     0.9365     2.1850 </r>
       <r>    -7.9677     0.9553     2.2989 </r>
       <r>    -7.8473     1.0236     2.4180 </r>
       <r>    -7.7269     1.0779     2.5438 </r>
       <r>    -7.6066     1.1076     2.6756 </r>
       <r>    -7.4862     1.1036     2.8090 </r>
       <r>    -7.3658     1.0749     2.9403 </r>
       <r>    -7.2454     1.0503     3.0668 </r>
       <r>    -7.1251     1.0782     3.1950 </r>
       <r>    -7.0047     1.0934     3.3259 </r>
       <r>    -6.8843     1.1035     3.4581 </r>
       <r>    -6.7640     1.1457     3.5930 </r>
       <r>    -6.6436     1.2042     3.7351 </r>
       <r>    -6.5232     1.2516     3.8806 </r>
       <r>    -6.4028     1.3437     4.0378 </r>
       <r>    -6.2825     1.3628     4.2006 </r>
       <r>    -6.1621     1.5334     4.3755 </r>
       <r>    -6.0417     1.5994     4.5629 </r>
       <r>    -5.9213     1.5884     4.7503 </r>
       <r>    -5.8010     1.5535     4.9417 </r>
       <r>    -5.6806     1.4470     5.1222 </r>
       <r>    -5.5602     1.4420     5.2937 </r>
       <r>    -5.4398     1.4351     5.4688 </r>
       <r>    -5.3195     1.4107     5.6418 </r>
       <r>    -5.1991     1.3793     5.8105 </r>
       <r>    -5.0787     1.2758     5.9701 </r>
       <r>    -4.9584     1.2293     6.1195 </r>
       <r>    -4.8380     1.2104     6.2670 </r>
       <r>    -4.7176     1.2424     6.4131 </r>
       <r>    -4.5972     1.1407     6.5565 </r>
       <r>    -4.4769     1.0814     6.6894 </r>
       <r>    -4.3565     1.0902     6.8219 </r>
       <r>    -4.2361     1.0681     6.9553 </r>
       <r>    -4.1157     1.0113     7.0792 </r>
       <r>    -3.9954     0.9897     7.1989 </r>
       <r>    -3.8750     0.9741     7.3180 </r>
       <r>    -3.7546     0.9322     7.4345 </r>
       <r>    -3.6343     0.8622     7.5424 </r>
       <r>    -3.5139     0.9649     7.6486 </r>
       <r>    -3.3935     0.9361     7.7647 </r>
       <r>    -3.2731     1.0144     7.8811 </r>
       <r>    -3.1528     0.9955     8.0016 </r>
       <r>    -3.0324     0.9870     8.1163 </r>
       <r>    -2.9120     0.9685     8.2289 </r>
       <r>    -2.7916     0.9500     8.3453 </r>
       <r>    -2.6713     0.9338     8.4572 </r>
       <r>    -2.5509     1.0225     8.5743 </r>
       <r>    -2.4305     1.1959     8.7066 </r>
       <r>    -2.3102     1.4133     8.8639 </r>
       <r>    -2.1898     1.6669     9.0491 </r>
       <r>    -2.0694     1.9918     9.2669 </r>
       <r>    -1.9490     2.4650     9.5339 </r>
       <r>    -1.8287     2.8770     9.8612 </r>
       <r>    -1.7083     2.8533    10.2212 </r>
       <r>    -1.5879     2.2173    10.5240 </r>
       <r>    -1.4675     1.8501    10.7677 </r>
       <r>    -1.3472     1.6914    10.9799 </r>
       <r>    -1.2268     1.5859    11.1770 </r>
       <r>    -1.1064     1.4963    11.3623 </r>
       <r>    -0.9861     1.4304    11.5381 </r>
       <r>    -0.8657     1.3860    11.7076 </r>
       <r>    -0.7453     1.3508    11.8722 </r>
       <r>    -0.6249     1.3223    12.0329 </r>
       <r>    -0.5046     1.2687    12.1888 </r>
       <r>    -0.3842     1.3596    12.3444 </r>
       <r>    -0.2638     1.1167    12.4822 </r>
       <r>    -0.1434     1.0961    12.6153 </r>
       <r>    -0.0231     1.0816    12.7464 </r>
       <r>     0.0973     1.0708    12.8759 </r>
       <r>     0.2177     1.0356    13.0031 </r>
       <r>     0.3381     1.0354    13.1252 </r>
       <r>     0.4584     1.2982    13.2640 </r>
       <r>     0.5788     1.5592    13.4358 </r>
       <r>     0.6992     1.8243    13.6398 </r>
       <r>     0.8195     2.1478    13.8749 </r>
       <r>     0.9399     2.3130    14.1551 </r>
       <r>     1.0603     2.1409    14.4217 </r>
       <r>     1.1807     2.1912    14.6808 </r>
       <r>     1.3010     2.2749    14.9504 </r>
       <r>     1.4214     2.2046    15.2236 </r>
       <r>     1.5418     1.8189    15.4671 </r>
       <r>     1.6622     1.4792    15.6648 </r>
       <r>     1.7825     1.5914    15.8443 </r>
       <r>     1.9029     1.8861    16.0535 </r>
       <r>     2.0233     2.1399    16.2974 </r>
       <r>     2.1436     2.3428    16.5676 </r>
       <r>     2.2640     2.3767    16.8559 </r>
       <r>     2.3844     2.3575    17.1426 </r>
       <r>     2.5048     2.3278    17.4234 </r>
       <r>     2.6251     2.3516    17.7043 </r>
       <r>     2.7455     2.6205    18.0006 </r>
       <r>     2.8659     2.9022    18.3315 </r>
       <r>     2.9863     3.1705    18.7131 </r>
       <r>     3.1066     2.7230    19.0652 </r>
       <r>     3.2270     2.3524    19.3615 </r>
       <r>     3.3474     2.8249    19.6836 </r>
       <r>     3.4677     2.7745    20.0055 </r>
       <r>     3.5881     2.8990    20.3516 </r>
       <r>     3.7085     3.5227    20.7332 </r>
       <r>     3.8289     4.0964    21.1933 </r>
       <r>     3.9492     3.4501    21.6543 </r>
       <r>     4.0696     3.1058    22.0525 </r>
       <r>     4.1900     2.6458    22.3960 </r>
       <r>     4.3104     2.6259    22.7091 </r>
       <r>     4.4307     2.9965    23.0449 </r>
       <r>     4.5511     2.8754    23.4044 </r>
       <r>     4.6715     2.9146    23.7474 </r>
       <r>     4.7918     2.9930    24.1074 </r>
       <r>     4.9122     2.9566    24.4637 </r>
       <r>     5.0326     3.0358    24.8246 </r>
       <r>     5.1530     3.1018    25.1929 </r>
       <r>     5.2733     3.0870    25.5679 </r>
       <r>     5.3937     2.7326    25.9207 </r>
       <r>     5.5141     2.4040    26.2293 </r>
       <r>     5.6345     2.4180    26.5195 </r>
       <r>     5.7548     2.4496    26.8136 </r>
       <r>     5.8752     2.7460    27.1229 </r>
       <r>     5.9956     2.8841    27.4588 </r>
       <r>     6.1160     2.8123    27.8053 </r>
       <r>     6.2363     2.7262    28.1393 </r>
       <r>     6.3567     2.6800    28.4646 </r>
       <r>     6.4771     2.4903    28.7733 </r>
       <r>     6.5974     2.3199    29.0669 </r>
       <r>     6.7178     2.6552    29.3625 </r>
       <r>     6.8382     2.1211    29.6769 </r>
       <r>     6.9586     1.8481    29.9138 </r>
       <r>     7.0789     1.6767    30.1240 </r>
       <r>     7.1993     1.5113    30.3153 </r>
       <r>     7.3197     1.3908    30.4895 </r>
       <r>     7.4401     1.3107    30.6519 </r>
       <r>     7.5604     1.2326    30.8050 </r>
       <r>     7.6808     1.1281    30.9472 </r>
       <r>     7.8012     1.0121    31.0758 </r>
       <r>     7.9215     0.9270    31.1921 </r>
       <r>     8.0419     0.8754    31.3004 </r>
       <r>     8.1623     0.8299    31.4026 </r>
       <r>     8.2827     0.7606    31.4993 </r>
       <r>     8.4030     0.6837    31.5859 </r>
       <r>     8.5234     0.6077    31.6636 </r>
       <r>     8.6438     0.5526    31.7329 </r>
       <r>     8.7642     0.5159    31.7982 </r>
       <r>     8.8845     0.3954    31.8523 </r>
       <r>     9.0049     0.3646    31.8964 </r>
       <r>     9.1253     0.3812    31.9425 </r>
       <r>     9.2456     0.1817    31.9749 </r>
       <r>     9.3660     0.1507    31.9922 </r>
       <r>     9.4864     0.0025    32.0000 </r>
       <r>     9.6068     0.0000    32.0000 </r>
       <r>     9.7271     0.0000    32.0000 </r>
       <r>     9.8475     0.0000    32.0000 </r>
       <r>     9.9679     0.0000    32.0000 </r>
       <r>    10.0883     0.0000    32.0000 </r>
       <r>    10.2086     0.0000    32.0000 </r>
       <r>    10.3290     0.0000    32.0000 </r>
       <r>    10.4494     0.0000    32.0000 </r>
       <r>    10.5697     0.0000    32.0000 </r>
       <r>    10.6901     0.0000    32.0000 </r>
       <r>    10.8105     0.0000    32.0000 </r>
       <r>    10.9309     0.0000    32.0000 </r>
       <r>    11.0512     0.0000    32.0000 </r>
       <r>    11.1716     0.0000    32.0000 </r>
       <r>    11.2920     0.0000    32.0000 </r>
       <r>    11.4124     0.0000    32.0000 </r>
       <r>    11.5327     0.0000    32.0000 </r>
       <r>    11.6531     0.0000    32.0000 </r>
       <r>    11.7735     0.0000    32.0000 </r>
       <r>    11.8939     0.0000    32.0000 </r>
       <r>    12.0142     0.0000    32.0000 </r>
       <r>    12.1346     0.0000    32.0000 </r>
       <r>    12.2550     0.0000    32.0000 </r>
       <r>    12.3753     0.0000    32.0000 </r>
       <r>    12.4957     0.0000    32.0000 </r>
       <r>    12.6161     0.0000    32.0000 </r>
       <r>    12.7365     0.0000    32.0000 </r>
       <r>    12.8568     0.0000    32.0000 </r>
       <r>    12.9772     0.0000    32.0000 </r>
       <r>    13.0976     0.0000    32.0000 </r>
       <r>    13.2180     0.0000    32.0000 </r>
       <r>    13.3383     0.0000    32.0000 </r>
       <r>    13.4587     0.0000    32.0000 </r>
       <r>    13.5791     0.0034    32.0000 </r>
       <r>    13.6994     0.1192    32.0063 </r>
       <r>    13.8198     0.3182    32.0319 </r>
       <r>    13.9402     0.5848    32.0883 </r>
       <r>    14.0606     0.6403    32.1653 </r>
       <r>    14.1809     0.6864    32.2412 </r>
       <r>    14.3013     0.7577    32.3281 </r>
       <r>    14.4217     0.8704    32.4257 </r>
       <r>    14.5421     1.1489    32.5493 </r>
       <r>    14.6624     1.2664    32.6949 </r>
       <r>    14.7828     1.5266    32.8613 </r>
       <r>    14.9032     1.5248    33.0503 </r>
       <r>    15.0235     1.5553    33.2348 </r>
       <r>    15.1439     1.5818    33.4223 </r>
       <r>    15.2643     1.6698    33.6175 </r>
       <r>    15.3847     1.7958    33.8247 </r>
       <r>    15.5050     1.9548    34.0494 </r>
       <r>    15.6254     2.1900    34.2979 </r>
       <r>    15.7458     2.3200    34.5701 </r>
       <r>    15.8662     2.1342    34.8386 </r>
       <r>    15.9865     2.1150    35.0938 </r>
       <r>    16.1069     2.1209    35.3487 </r>
       <r>    16.2273     2.1916    35.6072 </r>
       <r>    16.3476     2.3484    35.8803 </r>
       <r>    16.4680     2.5154    36.1733 </r>
       <r>    16.5884     2.7198    36.4884 </r>
       <r>    16.7088     2.8296    36.8234 </r>
       <r>    16.8291     2.9341    37.1703 </r>
       <r>    16.9495     3.0796    37.5316 </r>
       <r>    17.0699     3.1912    37.9115 </r>
       <r>    17.1903     3.4230    38.3070 </r>
       <r>    17.3106     3.8380    38.7471 </r>
       <r>    17.4310     4.0481    39.2231 </r>
       <r>    17.5514     4.4079    39.7293 </r>
       <r>    17.6718     4.7606    40.2879 </r>
       <r>    17.7921     3.4936    40.8202 </r>
       <r>    17.9125     3.5712    41.2307 </r>
       <r>    18.0329     3.6037    41.6629 </r>
       <r>    18.1532     3.5758    42.0998 </r>
       <r>    18.2736     3.9599    42.5491 </r>
       <r>    18.3940     3.6531    43.0127 </r>
       <r>    18.5144     3.6766    43.4496 </r>
       <r>    18.6347     3.5391    43.8881 </r>
       <r>    18.7551     2.9328    44.2725 </r>
       <r>    18.8755     2.7315    44.6121 </r>
       <r>    18.9959     2.6327    44.9336 </r>
       <r>    19.1162     2.6147    45.2505 </r>
       <r>    19.2366     2.7259    45.5730 </r>
       <r>    19.3570     2.7880    45.9049 </r>
       <r>    19.4773     2.8777    46.2467 </r>
       <r>    19.5977     2.8108    46.5913 </r>
       <r>    19.7181     2.6109    46.9174 </r>
       <r>    19.8385     2.3353    47.2172 </r>
       <r>    19.9588     1.8710    47.4702 </r>
       <r>    20.0792     1.3753    47.6644 </r>
       <r>    20.1996     0.9431    47.8074 </r>
       <r>    20.3200     0.4359    47.8860 </r>
       <r>    20.4403     0.2839    47.9273 </r>
       <r>    20.5607     0.2066    47.9567 </r>
       <r>    20.6811     0.1319    47.9774 </r>
       <r>    20.8014     0.0766    47.9897 </r>
       <r>    20.9218     0.0384    47.9964 </r>
       <r>    21.0422     0.0170    47.9996 </r>
       <r>    21.1626     0.0000    48.0000 </r>
       <r>    21.2829     0.0000    48.0000 </r>
       <r>    21.4033     0.0000    48.0000 </r>
       <r>    21.5237     0.0000    48.0000 </r>
       <r>    21.6441     0.0000    48.0000 </r>
       <r>    21.7644     0.0000    48.0000 </r>
       <r>    21.8848     0.0000    48.0000 </r>
       <r>    22.0052     0.0000    48.0000 </r>
       <r>    22.1255     0.0000    48.0000 </r>
       <r>    22.2459     0.0000    48.0000 </r>
       <r>    22.3663     0.0000    48.0000 </r>
       <r>    22.4867     0.0000    48.0000 </r>
       <r>    22.6070     0.0000    48.0000 </r>
       <r>    22.7274     0.0000    48.0000 </r>
      </set>
     </set>
    </array>
   </total>
  </dos>
 </calculation>
 <structure name="finalpos" >
  <crystal>
   <varray name="basis" >
    <v>       3.58999936       0.00000000       0.00000000 </v>
    <v>      -0.03589989       3.58981954       0.00000000 </v>
    <v>      -0.03589989      -0.03626053       3.58963671 </v>
   </varray>
   <i name="volume">     46.26126315 </i>
   <varray name="rec_basis" >
    <v>       0.27855158       0.00278565       0.00281393 </v>
    <v>       0.00000000       0.27856553       0.00281392 </v>
    <v>       0.00000000       0.00000000       0.27857972 </v>
   </varray>
  </crystal>
  <varray name="positions" >
   <v>       0.25000000       0.75000000       0.25000000 </v>
   <v>       0.00000000       0.00000000       0.50000000 </v>
   <v>       0.25000000       0.25000000       0.75000000 </v>
   <v>       0.00000000       0.50000000       0.00000000 </v>
   <v>       0.75000000       0.75000000       0.75000000 </v>
   <v>       0.50000000       0.00000000       0.00000000 </v>
   <v>       0.75000000       0.25000000       0.25000000 </v>
   <v>       0.50000000       0.50000000       0.50000000 </v>
  </varray>
 </structure>
</modeling>
