  64  64   0   0
  0.4871152E+01  0.6780638E-09  0.6780638E-09  0.6780638E-09  0.5000000E-15
  1.000000000000000E-004
  CAR 
 unknown system                          
     26.82182045    -13.36983769  301     12.36957004      1.00000000
    -13.370  0.0000E+00  0.0000E+00
    -13.236  0.0000E+00  0.0000E+00
    -13.102  0.0000E+00  0.0000E+00
    -12.968  0.0000E+00  0.0000E+00
    -12.834  0.0000E+00  0.0000E+00
    -12.700  0.0000E+00  0.0000E+00
    -12.566  0.0000E+00  0.0000E+00
    -12.432  0.0000E+00  0.0000E+00
    -12.298  0.0000E+00  0.0000E+00
    -12.164  0.0000E+00  0.0000E+00
    -12.030  0.0000E+00  0.0000E+00
    -11.896  0.1619E-17  0.2168E-18
    -11.762  0.3552E-08  0.4759E-09
    -11.628  0.9439E-03  0.1265E-03
    -11.494  0.2194E+00  0.2952E-01
    -11.360  0.9776E+00  0.1605E+00
    -11.226  0.1465E+01  0.3567E+00
    -11.092  0.2068E+01  0.6337E+00
    -10.958  0.2215E+01  0.9305E+00
    -10.824  0.2409E+01  0.1253E+01
    -10.690  0.3035E+01  0.1660E+01
    -10.556  0.2248E+01  0.1961E+01
    -10.422  0.3761E+01  0.2465E+01
    -10.288  0.3290E+01  0.2906E+01
    -10.155  0.3533E+01  0.3379E+01
    -10.021  0.3728E+01  0.3878E+01
     -9.887  0.4252E+01  0.4448E+01
     -9.753  0.4196E+01  0.5010E+01
     -9.619  0.3073E+01  0.5422E+01
     -9.485  0.5153E+01  0.6112E+01
     -9.351  0.5360E+01  0.6830E+01
     -9.217  0.4017E+01  0.7368E+01
     -9.083  0.4870E+01  0.8021E+01
     -8.949  0.4730E+01  0.8654E+01
     -8.815  0.6055E+01  0.9466E+01
     -8.681  0.4186E+01  0.1003E+02
     -8.547  0.6540E+01  0.1090E+02
     -8.413  0.4734E+01  0.1154E+02
     -8.279  0.5526E+01  0.1228E+02
     -8.145  0.6206E+01  0.1311E+02
     -8.011  0.7006E+01  0.1405E+02
     -7.877  0.5782E+01  0.1482E+02
     -7.743  0.4233E+01  0.1539E+02
     -7.609  0.7235E+01  0.1636E+02
     -7.475  0.6809E+01  0.1727E+02
     -7.341  0.7159E+01  0.1823E+02
     -7.207  0.6962E+01  0.1916E+02
     -7.073  0.5875E+01  0.1995E+02
     -6.939  0.7821E+01  0.2100E+02
     -6.805  0.5946E+01  0.2179E+02
     -6.671  0.7171E+01  0.2275E+02
     -6.537  0.7675E+01  0.2378E+02
     -6.403  0.8336E+01  0.2490E+02
     -6.269  0.7778E+01  0.2594E+02
     -6.135  0.7670E+01  0.2697E+02
     -6.001  0.6355E+01  0.2782E+02
     -5.867  0.7590E+01  0.2884E+02
     -5.733  0.1009E+02  0.3019E+02
     -5.599  0.9470E+01  0.3146E+02
     -5.465  0.6732E+01  0.3236E+02
     -5.332  0.8498E+01  0.3350E+02
     -5.198  0.1016E+02  0.3486E+02
     -5.064  0.6750E+01  0.3576E+02
     -4.930  0.1191E+02  0.3736E+02
     -4.796  0.9449E+01  0.3863E+02
     -4.662  0.9936E+01  0.3996E+02
     -4.528  0.1172E+02  0.4153E+02
     -4.394  0.1035E+02  0.4291E+02
     -4.260  0.9875E+01  0.4424E+02
     -4.126  0.7847E+01  0.4529E+02
     -3.992  0.7658E+01  0.4631E+02
     -3.858  0.1186E+02  0.4790E+02
     -3.724  0.8241E+01  0.4901E+02
     -3.590  0.1021E+02  0.5037E+02
     -3.456  0.6724E+01  0.5128E+02
     -3.322  0.8354E+01  0.5239E+02
     -3.188  0.8590E+01  0.5355E+02
     -3.054  0.6097E+01  0.5436E+02
     -2.920  0.6744E+01  0.5527E+02
     -2.786  0.1097E+02  0.5674E+02
     -2.652  0.1014E+02  0.5810E+02
     -2.518  0.7001E+01  0.5903E+02
     -2.384  0.1087E+02  0.6049E+02
     -2.250  0.7605E+01  0.6151E+02
     -2.116  0.1243E+02  0.6317E+02
     -1.982  0.7540E+01  0.6418E+02
     -1.848  0.7191E+01  0.6515E+02
     -1.714  0.8974E+01  0.6635E+02
     -1.580  0.1347E+02  0.6815E+02
     -1.446  0.9308E+01  0.6940E+02
     -1.312  0.8827E+01  0.7058E+02
     -1.178  0.9817E+01  0.7190E+02
     -1.044  0.8528E+01  0.7304E+02
     -0.910  0.9938E+01  0.7437E+02
     -0.776  0.1007E+02  0.7572E+02
     -0.642  0.1099E+02  0.7719E+02
     -0.509  0.1584E+02  0.7932E+02
     -0.375  0.2045E+02  0.8206E+02
     -0.241  0.1784E+02  0.8445E+02
     -0.107  0.1412E+02  0.8634E+02
      0.027  0.8147E+01  0.8743E+02
      0.161  0.1162E+02  0.8899E+02
      0.295  0.7812E+01  0.9003E+02
      0.429  0.1058E+02  0.9145E+02
      0.563  0.1521E+02  0.9349E+02
      0.697  0.1338E+02  0.9528E+02
      0.831  0.6575E+01  0.9616E+02
      0.965  0.7041E+01  0.9710E+02
      1.099  0.8957E+01  0.9830E+02
      1.233  0.1015E+02  0.9966E+02
      1.367  0.7076E+01  0.1006E+03
      1.501  0.9919E+01  0.1019E+03
      1.635  0.1465E+02  0.1039E+03
      1.769  0.1683E+02  0.1062E+03
      1.903  0.1095E+02  0.1076E+03
      2.037  0.1366E+02  0.1095E+03
      2.171  0.1476E+02  0.1114E+03
      2.305  0.1040E+02  0.1128E+03
      2.439  0.1104E+02  0.1143E+03
      2.573  0.2080E+02  0.1171E+03
      2.707  0.1606E+02  0.1192E+03
      2.841  0.1611E+02  0.1214E+03
      2.975  0.9822E+01  0.1227E+03
      3.109  0.1239E+02  0.1244E+03
      3.243  0.1711E+02  0.1267E+03
      3.377  0.1723E+02  0.1290E+03
      3.511  0.1366E+02  0.1308E+03
      3.645  0.1527E+02  0.1329E+03
      3.779  0.2024E+02  0.1356E+03
      3.913  0.1235E+02  0.1372E+03
      4.047  0.1532E+02  0.1393E+03
      4.181  0.2005E+02  0.1420E+03
      4.314  0.1449E+02  0.1439E+03
      4.448  0.2108E+02  0.1467E+03
      4.582  0.2058E+02  0.1495E+03
      4.716  0.1800E+02  0.1519E+03
      4.850  0.1952E+02  0.1545E+03
      4.984  0.1937E+02  0.1571E+03
      5.118  0.2908E+02  0.1610E+03
      5.252  0.2398E+02  0.1642E+03
      5.386  0.1759E+02  0.1666E+03
      5.520  0.1991E+02  0.1692E+03
      5.654  0.2330E+02  0.1724E+03
      5.788  0.2758E+02  0.1760E+03
      5.922  0.1766E+02  0.1784E+03
      6.056  0.1687E+02  0.1807E+03
      6.190  0.2225E+02  0.1837E+03
      6.324  0.2093E+02  0.1865E+03
      6.458  0.2552E+02  0.1899E+03
      6.592  0.1701E+02  0.1922E+03
      6.726  0.1948E+02  0.1948E+03
      6.860  0.1942E+02  0.1974E+03
      6.994  0.2116E+02  0.2002E+03
      7.128  0.1898E+02  0.2027E+03
      7.262  0.1999E+02  0.2054E+03
      7.396  0.1683E+02  0.2077E+03
      7.530  0.2052E+02  0.2104E+03
      7.664  0.2237E+02  0.2134E+03
      7.798  0.1500E+02  0.2154E+03
      7.932  0.1897E+02  0.2180E+03
      8.066  0.1603E+02  0.2201E+03
      8.200  0.1827E+02  0.2226E+03
      8.334  0.2400E+02  0.2258E+03
      8.468  0.1455E+02  0.2277E+03
      8.602  0.1637E+02  0.2299E+03
      8.736  0.1526E+02  0.2320E+03
      8.870  0.1833E+02  0.2344E+03
      9.004  0.2116E+02  0.2373E+03
      9.137  0.8944E+01  0.2385E+03
      9.271  0.9710E+01  0.2398E+03
      9.405  0.1489E+02  0.2418E+03
      9.539  0.9895E+01  0.2431E+03
      9.673  0.1013E+02  0.2444E+03
      9.807  0.6607E+01  0.2453E+03
      9.941  0.8843E+01  0.2465E+03
     10.075  0.9533E+01  0.2478E+03
     10.209  0.7066E+01  0.2487E+03
     10.343  0.6287E+01  0.2496E+03
     10.477  0.4987E+01  0.2502E+03
     10.611  0.6012E+01  0.2511E+03
     10.745  0.6830E+01  0.2520E+03
     10.879  0.5019E+01  0.2526E+03
     11.013  0.3618E+01  0.2531E+03
     11.147  0.3536E+01  0.2536E+03
     11.281  0.4937E+01  0.2543E+03
     11.415  0.3128E+01  0.2547E+03
     11.549  0.2832E+01  0.2551E+03
     11.683  0.2365E+01  0.2554E+03
     11.817  0.1971E+01  0.2556E+03
     11.951  0.1964E+01  0.2559E+03
     12.085  0.6222E+00  0.2560E+03
     12.219  0.1251E+00  0.2560E+03
     12.353  0.1827E-03  0.2560E+03
     12.487  0.6808E-10  0.2560E+03
     12.621  0.0000E+00  0.2560E+03
     12.755  0.0000E+00  0.2560E+03
     12.889  0.0000E+00  0.2560E+03
     13.023  0.0000E+00  0.2560E+03
     13.157  0.0000E+00  0.2560E+03
     13.291  0.0000E+00  0.2560E+03
     13.425  0.0000E+00  0.2560E+03
     13.559  0.0000E+00  0.2560E+03
     13.693  0.0000E+00  0.2560E+03
     13.827  0.0000E+00  0.2560E+03
     13.960  0.0000E+00  0.2560E+03
     14.094  0.0000E+00  0.2560E+03
     14.228  0.0000E+00  0.2560E+03
     14.362  0.0000E+00  0.2560E+03
     14.496  0.0000E+00  0.2560E+03
     14.630  0.0000E+00  0.2560E+03
     14.764  0.0000E+00  0.2560E+03
     14.898  0.0000E+00  0.2560E+03
     15.032  0.0000E+00  0.2560E+03
     15.166  0.0000E+00  0.2560E+03
     15.300  0.0000E+00  0.2560E+03
     15.434  0.0000E+00  0.2560E+03
     15.568  0.0000E+00  0.2560E+03
     15.702  0.0000E+00  0.2560E+03
     15.836  0.0000E+00  0.2560E+03
     15.970  0.0000E+00  0.2560E+03
     16.104  0.0000E+00  0.2560E+03
     16.238  0.3302E-15  0.2560E+03
     16.372  0.2372E-06  0.2560E+03
     16.506  0.1511E-01  0.2560E+03
     16.640  0.4860E+00  0.2561E+03
     16.774  0.1592E+01  0.2563E+03
     16.908  0.3398E+01  0.2567E+03
     17.042  0.3615E+01  0.2572E+03
     17.176  0.2925E+01  0.2576E+03
     17.310  0.5478E+01  0.2583E+03
     17.444  0.1047E+02  0.2597E+03
     17.578  0.6555E+01  0.2606E+03
     17.712  0.6091E+01  0.2614E+03
     17.846  0.8460E+01  0.2626E+03
     17.980  0.1055E+02  0.2640E+03
     18.114  0.1420E+02  0.2659E+03
     18.248  0.1217E+02  0.2675E+03
     18.382  0.1264E+02  0.2692E+03
     18.516  0.1192E+02  0.2708E+03
     18.650  0.1303E+02  0.2726E+03
     18.783  0.1354E+02  0.2744E+03
     18.917  0.1649E+02  0.2766E+03
     19.051  0.1539E+02  0.2786E+03
     19.185  0.1713E+02  0.2809E+03
     19.319  0.1598E+02  0.2831E+03
     19.453  0.1774E+02  0.2855E+03
     19.587  0.1528E+02  0.2875E+03
     19.721  0.1494E+02  0.2895E+03
     19.855  0.2379E+02  0.2927E+03
     19.989  0.1768E+02  0.2951E+03
     20.123  0.1902E+02  0.2976E+03
     20.257  0.2482E+02  0.3009E+03
     20.391  0.1766E+02  0.3033E+03
     20.525  0.2412E+02  0.3065E+03
     20.659  0.2453E+02  0.3098E+03
     20.793  0.3336E+02  0.3143E+03
     20.927  0.2617E+02  0.3178E+03
     21.061  0.2687E+02  0.3214E+03
     21.195  0.2664E+02  0.3250E+03
     21.329  0.2627E+02  0.3285E+03
     21.463  0.1960E+02  0.3311E+03
     21.597  0.1896E+02  0.3336E+03
     21.731  0.2352E+02  0.3368E+03
     21.865  0.2921E+02  0.3407E+03
     21.999  0.2150E+02  0.3436E+03
     22.133  0.2173E+02  0.3465E+03
     22.267  0.2371E+02  0.3497E+03
     22.401  0.1369E+02  0.3515E+03
     22.535  0.2199E+02  0.3545E+03
     22.669  0.2202E+02  0.3574E+03
     22.803  0.3270E+02  0.3618E+03
     22.937  0.3541E+02  0.3665E+03
     23.071  0.1725E+02  0.3688E+03
     23.205  0.2259E+02  0.3719E+03
     23.339  0.1718E+02  0.3742E+03
     23.473  0.1965E+02  0.3768E+03
     23.606  0.1660E+02  0.3790E+03
     23.740  0.1149E+02  0.3806E+03
     23.874  0.9449E+01  0.3818E+03
     24.008  0.5101E+01  0.3825E+03
     24.142  0.3471E+01  0.3830E+03
     24.276  0.2136E+01  0.3833E+03
     24.410  0.3078E+01  0.3837E+03
     24.544  0.4923E+00  0.3838E+03
     24.678  0.4734E+00  0.3838E+03
     24.812  0.6647E+00  0.3839E+03
     24.946  0.1131E+00  0.3839E+03
     25.080  0.5912E+00  0.3840E+03
     25.214  0.1399E-01  0.3840E+03
     25.348  0.6589E-07  0.3840E+03
     25.482  0.0000E+00  0.3840E+03
     25.616  0.0000E+00  0.3840E+03
     25.750  0.0000E+00  0.3840E+03
     25.884  0.0000E+00  0.3840E+03
     26.018  0.0000E+00  0.3840E+03
     26.152  0.0000E+00  0.3840E+03
     26.286  0.0000E+00  0.3840E+03
     26.420  0.0000E+00  0.3840E+03
     26.554  0.0000E+00  0.3840E+03
     26.688  0.0000E+00  0.3840E+03
     26.822  0.0000E+00  0.3840E+03
