  64   64
1 1
    60.387064153369998     0.000000000000000     0.000000000000000
     0.000000000000000    60.387064153369998     0.000000000000000
     0.000000000000000     0.000000000000000    60.387064153369998
1 2
    -0.216335165620000    -0.000000000000000    -0.000000000000000
    -0.000000000000000    -0.105540296670000    -0.000000000000000
    -0.000000000000000    -0.000000000000000    -0.105540296670000
1 3
    -0.105540296670000    -0.000000000000000    -0.000000000000000
    -0.000000000000000    -0.216335165620000    -0.000000000000000
    -0.000000000000000    -0.000000000000000    -0.105540296670000
1 4
    -0.186218303780000    -0.000000000000000     0.000000000000000
    -0.000000000000000    -0.186218303780000     0.000000000000000
     0.000000000000000     0.000000000000000     0.614827956140000
1 5
    -0.105540296670000     0.000000000000000    -0.000000000000000
     0.000000000000000    -0.105540296670000    -0.000000000000000
    -0.000000000000000    -0.000000000000000    -0.216335165620000
1 6
    -0.186218303780000    -0.000000000000000    -0.000000000000000
    -0.000000000000000     0.614827956140000    -0.000000000000000
    -0.000000000000000    -0.000000000000000    -0.186218303780000
1 7
     0.614827956140000    -0.000000000000000    -0.000000000000000
    -0.000000000000000    -0.186218303780000    -0.000000000000000
    -0.000000000000000    -0.000000000000000    -0.186218303780000
1 8
    -0.066918926170000     0.000000000000000     0.000000000000000
     0.000000000000000    -0.066918926170000     0.000000000000000
     0.000000000000000     0.000000000000000    -0.066918926170000
1 9
     0.175439031830000     0.100053791980000    -0.062536232380000
     0.100053791980000     0.071226070770000    -0.100053791980000
    -0.062536232380000    -0.100053791980000     0.175439031830000
1 10
    -0.112417675160000     0.155166385590000     0.272512053940000
     0.155166385590000    -0.112417675160000    -0.272512053940000
     0.272512053940000    -0.272512053940000    -0.372892785340000
1 11
   -12.478883820709999     5.319491254560000     5.319491254560000
     5.319491254560000   -12.478883820709999    -5.319491254560000
     5.319491254560000    -5.319491254560000   -12.478883820709999
1 12
     0.071226070770000     0.100053791980000     0.100053791980000
     0.100053791980000     0.175439031830000     0.062536232380000
     0.100053791980000     0.062536232380000     0.175439031830000
1 13
    -0.372892785340000     0.272512053940000     0.272512053940000
     0.272512053940000    -0.112417675160000    -0.155166385590000
     0.272512053940000    -0.155166385590000    -0.112417675160000
1 14
     0.035214930790000     0.029843491480000     0.029843491480000
     0.029843491480000     0.035214930790000    -0.029843491480000
     0.029843491480000    -0.029843491480000     0.035214930790000
1 15
     0.175439031830000    -0.062536232380000     0.100053791980000
    -0.062536232380000     0.175439031830000    -0.100053791980000
     0.100053791980000    -0.100053791980000     0.071226070770000
1 16
    -0.112417675160000     0.272512053940000     0.155166385590000
     0.272512053940000    -0.372892785340000    -0.272512053940000
     0.155166385590000    -0.272512053940000    -0.112417675160000
1 17
     1.620933334770000    -0.917013906240000     0.917013906240000
     0.917013906240000    -1.963395891280000     2.062521953620000
    -0.917013906240000     2.062521953620000    -1.963395891280000
1 18
     0.087888570740000    -0.051003029960000     0.051003029960000
     0.051003029960000    -0.098258627920000    -0.068554103710000
    -0.051003029960000    -0.068554103710000    -0.098258627920000
1 19
     1.620933334770000    -0.917013906240000    -0.917013906240000
     0.917013906240000    -1.963395891280000    -2.062521953620000
     0.917013906240000    -2.062521953620000    -1.963395891280000
1 20
     0.087888570740000    -0.051003029960000    -0.051003029960000
     0.051003029960000    -0.098258627920000     0.068554103710000
     0.051003029960000     0.068554103710000    -0.098258627920000
1 21
     1.620933334770000     0.917013906240000     0.917013906240000
    -0.917013906240000    -1.963395891280000    -2.062521953620000
    -0.917013906240000    -2.062521953620000    -1.963395891280000
1 22
     0.087888570740000     0.051003029960000     0.051003029960000
    -0.051003029960000    -0.098258627920000     0.068554103710000
    -0.051003029960000     0.068554103710000    -0.098258627920000
1 23
     1.620933334770000     0.917013906240000    -0.917013906240000
    -0.917013906240000    -1.963395891280000     2.062521953620000
     0.917013906240000     2.062521953620000    -1.963395891280000
1 24
     0.087888570740000     0.051003029960000    -0.051003029960000
    -0.051003029960000    -0.098258627920000    -0.068554103710000
     0.051003029960000    -0.068554103710000    -0.098258627920000
1 25
   -12.478883820709999    -5.319491254560000    -5.319491254560000
    -5.319491254560000   -12.478883820709999    -5.319491254560000
    -5.319491254560000    -5.319491254560000   -12.478883820709999
1 26
     0.071226070770000    -0.100053791980000    -0.100053791980000
    -0.100053791980000     0.175439031830000     0.062536232380000
    -0.100053791980000     0.062536232380000     0.175439031830000
1 27
     0.175439031830000    -0.100053791980000     0.062536232380000
    -0.100053791980000     0.071226070770000    -0.100053791980000
     0.062536232380000    -0.100053791980000     0.175439031830000
1 28
    -0.112417675160000    -0.155166385590000    -0.272512053940000
    -0.155166385590000    -0.112417675160000    -0.272512053940000
    -0.272512053940000    -0.272512053940000    -0.372892785340000
1 29
     0.175439031830000     0.062536232380000    -0.100053791980000
     0.062536232380000     0.175439031830000    -0.100053791980000
    -0.100053791980000    -0.100053791980000     0.071226070770000
1 30
    -0.112417675160000    -0.272512053940000    -0.155166385590000
    -0.272512053940000    -0.372892785340000    -0.272512053940000
    -0.155166385590000    -0.272512053940000    -0.112417675160000
1 31
    -0.372892785340000    -0.272512053940000    -0.272512053940000
    -0.272512053940000    -0.112417675160000    -0.155166385590000
    -0.272512053940000    -0.155166385590000    -0.112417675160000
1 32
     0.035214930790000    -0.029843491480000    -0.029843491480000
    -0.029843491480000     0.035214930790000    -0.029843491480000
    -0.029843491480000    -0.029843491480000     0.035214930790000
1 33
    -1.963395891280000     0.917013906240000    -2.062521953620000
    -0.917013906240000     1.620933334770000    -0.917013906240000
    -2.062521953620000     0.917013906240000    -1.963395891280000
1 34
    -1.963395891280000     0.917013906240000     2.062521953620000
    -0.917013906240000     1.620933334770000     0.917013906240000
     2.062521953620000    -0.917013906240000    -1.963395891280000
1 35
    -0.098258627920000     0.051003029960000     0.068554103710000
    -0.051003029960000     0.087888570740000    -0.051003029960000
     0.068554103710000     0.051003029960000    -0.098258627920000
1 36
    -0.098258627920000     0.051003029960000    -0.068554103710000
    -0.051003029960000     0.087888570740000     0.051003029960000
    -0.068554103710000    -0.051003029960000    -0.098258627920000
1 37
    -1.963395891280000    -0.917013906240000     2.062521953620000
     0.917013906240000     1.620933334770000    -0.917013906240000
     2.062521953620000     0.917013906240000    -1.963395891280000
1 38
    -1.963395891280000    -0.917013906240000    -2.062521953620000
     0.917013906240000     1.620933334770000     0.917013906240000
    -2.062521953620000    -0.917013906240000    -1.963395891280000
1 39
    -0.098258627920000    -0.051003029960000    -0.068554103710000
     0.051003029960000     0.087888570740000    -0.051003029960000
    -0.068554103710000     0.051003029960000    -0.098258627920000
1 40
    -0.098258627920000    -0.051003029960000     0.068554103710000
     0.051003029960000     0.087888570740000     0.051003029960000
     0.068554103710000    -0.051003029960000    -0.098258627920000
1 41
     0.175439031830000    -0.100053791980000    -0.062536232380000
    -0.100053791980000     0.071226070770000     0.100053791980000
    -0.062536232380000     0.100053791980000     0.175439031830000
1 42
    -0.112417675160000    -0.155166385590000     0.272512053940000
    -0.155166385590000    -0.112417675160000     0.272512053940000
     0.272512053940000     0.272512053940000    -0.372892785340000
1 43
   -12.478883820709999    -5.319491254560000     5.319491254560000
    -5.319491254560000   -12.478883820709999     5.319491254560000
     5.319491254560000     5.319491254560000   -12.478883820709999
1 44
     0.071226070770000    -0.100053791980000     0.100053791980000
    -0.100053791980000     0.175439031830000    -0.062536232380000
     0.100053791980000    -0.062536232380000     0.175439031830000
1 45
    -0.372892785340000    -0.272512053940000     0.272512053940000
    -0.272512053940000    -0.112417675160000     0.155166385590000
     0.272512053940000     0.155166385590000    -0.112417675160000
1 46
     0.035214930790000    -0.029843491480000     0.029843491480000
    -0.029843491480000     0.035214930790000     0.029843491480000
     0.029843491480000     0.029843491480000     0.035214930790000
1 47
     0.175439031830000     0.062536232380000     0.100053791980000
     0.062536232380000     0.175439031830000     0.100053791980000
     0.100053791980000     0.100053791980000     0.071226070770000
1 48
    -0.112417675160000    -0.272512053940000     0.155166385590000
    -0.272512053940000    -0.372892785340000     0.272512053940000
     0.155166385590000     0.272512053940000    -0.112417675160000
1 49
    -1.963395891280000     2.062521953620000    -0.917013906240000
     2.062521953620000    -1.963395891280000     0.917013906240000
     0.917013906240000    -0.917013906240000     1.620933334770000
1 50
    -1.963395891280000    -2.062521953620000    -0.917013906240000
    -2.062521953620000    -1.963395891280000    -0.917013906240000
     0.917013906240000     0.917013906240000     1.620933334770000
1 51
    -1.963395891280000    -2.062521953620000     0.917013906240000
    -2.062521953620000    -1.963395891280000     0.917013906240000
    -0.917013906240000    -0.917013906240000     1.620933334770000
1 52
    -1.963395891280000     2.062521953620000     0.917013906240000
     2.062521953620000    -1.963395891280000    -0.917013906240000
    -0.917013906240000     0.917013906240000     1.620933334770000
1 53
    -0.098258627920000    -0.068554103710000    -0.051003029960000
    -0.068554103710000    -0.098258627920000     0.051003029960000
     0.051003029960000    -0.051003029960000     0.087888570740000
1 54
    -0.098258627920000     0.068554103710000    -0.051003029960000
     0.068554103710000    -0.098258627920000    -0.051003029960000
     0.051003029960000     0.051003029960000     0.087888570740000
1 55
    -0.098258627920000     0.068554103710000     0.051003029960000
     0.068554103710000    -0.098258627920000     0.051003029960000
    -0.051003029960000    -0.051003029960000     0.087888570740000
1 56
    -0.098258627920000    -0.068554103710000     0.051003029960000
    -0.068554103710000    -0.098258627920000    -0.051003029960000
    -0.051003029960000     0.051003029960000     0.087888570740000
1 57
   -12.478883820709999     5.319491254560000    -5.319491254560000
     5.319491254560000   -12.478883820709999     5.319491254560000
    -5.319491254560000     5.319491254560000   -12.478883820709999
1 58
     0.071226070770000     0.100053791980000    -0.100053791980000
     0.100053791980000     0.175439031830000    -0.062536232380000
    -0.100053791980000    -0.062536232380000     0.175439031830000
1 59
     0.175439031830000     0.100053791980000     0.062536232380000
     0.100053791980000     0.071226070770000     0.100053791980000
     0.062536232380000     0.100053791980000     0.175439031830000
1 60
    -0.112417675160000     0.155166385590000    -0.272512053940000
     0.155166385590000    -0.112417675160000     0.272512053940000
    -0.272512053940000     0.272512053940000    -0.372892785340000
1 61
     0.175439031830000    -0.062536232380000    -0.100053791980000
    -0.062536232380000     0.175439031830000     0.100053791980000
    -0.100053791980000     0.100053791980000     0.071226070770000
1 62
    -0.112417675160000     0.272512053940000    -0.155166385590000
     0.272512053940000    -0.372892785340000     0.272512053940000
    -0.155166385590000     0.272512053940000    -0.112417675160000
1 63
    -0.372892785340000     0.272512053940000    -0.272512053940000
     0.272512053940000    -0.112417675160000     0.155166385590000
    -0.272512053940000     0.155166385590000    -0.112417675160000
1 64
     0.035214930790000     0.029843491480000    -0.029843491480000
     0.029843491480000     0.035214930790000     0.029843491480000
    -0.029843491480000     0.029843491480000     0.035214930790000
2 1
    -0.216335165620000    -0.000000000000000    -0.000000000000000
    -0.000000000000000    -0.105540296670000    -0.000000000000000
    -0.000000000000000    -0.000000000000000    -0.105540296670000
2 2
    60.387064153369998     0.000000000000000     0.000000000000000
     0.000000000000000    60.387064153369998     0.000000000000000
     0.000000000000000     0.000000000000000    60.387064153369998
2 3
    -0.186218303780000    -0.000000000000000     0.000000000000000
    -0.000000000000000    -0.186218303780000     0.000000000000000
     0.000000000000000     0.000000000000000     0.614827956140000
2 4
    -0.105540296670000    -0.000000000000000    -0.000000000000000
    -0.000000000000000    -0.216335165620000    -0.000000000000000
    -0.000000000000000    -0.000000000000000    -0.105540296670000
2 5
    -0.186218303780000    -0.000000000000000    -0.000000000000000
    -0.000000000000000     0.614827956140000    -0.000000000000000
    -0.000000000000000    -0.000000000000000    -0.186218303780000
2 6
    -0.105540296670000     0.000000000000000    -0.000000000000000
     0.000000000000000    -0.105540296670000    -0.000000000000000
    -0.000000000000000    -0.000000000000000    -0.216335165620000
2 7
    -0.066918926170000     0.000000000000000     0.000000000000000
     0.000000000000000    -0.066918926170000     0.000000000000000
     0.000000000000000     0.000000000000000    -0.066918926170000
2 8
     0.614827956140000    -0.000000000000000    -0.000000000000000
    -0.000000000000000    -0.186218303780000    -0.000000000000000
    -0.000000000000000    -0.000000000000000    -0.186218303780000
2 9
    -0.112417675160000     0.155166385590000     0.272512053940000
     0.155166385590000    -0.112417675160000    -0.272512053940000
     0.272512053940000    -0.272512053940000    -0.372892785340000
2 10
     0.175439031830000     0.100053791980000    -0.062536232380000
     0.100053791980000     0.071226070770000    -0.100053791980000
    -0.062536232380000    -0.100053791980000     0.175439031830000
2 11
     0.071226070770000     0.100053791980000     0.100053791980000
     0.100053791980000     0.175439031830000     0.062536232380000
     0.100053791980000     0.062536232380000     0.175439031830000
2 12
   -12.478883820709999     5.319491254560000     5.319491254560000
     5.319491254560000   -12.478883820709999    -5.319491254560000
     5.319491254560000    -5.319491254560000   -12.478883820709999
2 13
     0.035214930790000     0.029843491480000     0.029843491480000
     0.029843491480000     0.035214930790000    -0.029843491480000
     0.029843491480000    -0.029843491480000     0.035214930790000
2 14
    -0.372892785340000     0.272512053940000     0.272512053940000
     0.272512053940000    -0.112417675160000    -0.155166385590000
     0.272512053940000    -0.155166385590000    -0.112417675160000
2 15
    -0.112417675160000     0.272512053940000     0.155166385590000
     0.272512053940000    -0.372892785340000    -0.272512053940000
     0.155166385590000    -0.272512053940000    -0.112417675160000
2 16
     0.175439031830000    -0.062536232380000     0.100053791980000
    -0.062536232380000     0.175439031830000    -0.100053791980000
     0.100053791980000    -0.100053791980000     0.071226070770000
2 17
     0.087888570740000    -0.051003029960000     0.051003029960000
     0.051003029960000    -0.098258627920000    -0.068554103710000
    -0.051003029960000    -0.068554103710000    -0.098258627920000
2 18
     1.620933334770000    -0.917013906240000     0.917013906240000
     0.917013906240000    -1.963395891280000     2.062521953620000
    -0.917013906240000     2.062521953620000    -1.963395891280000
2 19
     0.087888570740000    -0.051003029960000    -0.051003029960000
     0.051003029960000    -0.098258627920000     0.068554103710000
     0.051003029960000     0.068554103710000    -0.098258627920000
2 20
     1.620933334770000    -0.917013906240000    -0.917013906240000
     0.917013906240000    -1.963395891280000    -2.062521953620000
     0.917013906240000    -2.062521953620000    -1.963395891280000
2 21
     0.087888570740000     0.051003029960000     0.051003029960000
    -0.051003029960000    -0.098258627920000     0.068554103710000
    -0.051003029960000     0.068554103710000    -0.098258627920000
2 22
     1.620933334770000     0.917013906240000     0.917013906240000
    -0.917013906240000    -1.963395891280000    -2.062521953620000
    -0.917013906240000    -2.062521953620000    -1.963395891280000
2 23
     0.087888570740000     0.051003029960000    -0.051003029960000
    -0.051003029960000    -0.098258627920000    -0.068554103710000
     0.051003029960000    -0.068554103710000    -0.098258627920000
2 24
     1.620933334770000     0.917013906240000    -0.917013906240000
    -0.917013906240000    -1.963395891280000     2.062521953620000
     0.917013906240000     2.062521953620000    -1.963395891280000
2 25
     0.071226070770000    -0.100053791980000    -0.100053791980000
    -0.100053791980000     0.175439031830000     0.062536232380000
    -0.100053791980000     0.062536232380000     0.175439031830000
2 26
   -12.478883820709999    -5.319491254560000    -5.319491254560000
    -5.319491254560000   -12.478883820709999    -5.319491254560000
    -5.319491254560000    -5.319491254560000   -12.478883820709999
2 27
    -0.112417675160000    -0.155166385590000    -0.272512053940000
    -0.155166385590000    -0.112417675160000    -0.272512053940000
    -0.272512053940000    -0.272512053940000    -0.372892785340000
2 28
     0.175439031830000    -0.100053791980000     0.062536232380000
    -0.100053791980000     0.071226070770000    -0.100053791980000
     0.062536232380000    -0.100053791980000     0.175439031830000
2 29
    -0.112417675160000    -0.272512053940000    -0.155166385590000
    -0.272512053940000    -0.372892785340000    -0.272512053940000
    -0.155166385590000    -0.272512053940000    -0.112417675160000
2 30
     0.175439031830000     0.062536232380000    -0.100053791980000
     0.062536232380000     0.175439031830000    -0.100053791980000
    -0.100053791980000    -0.100053791980000     0.071226070770000
2 31
     0.035214930790000    -0.029843491480000    -0.029843491480000
    -0.029843491480000     0.035214930790000    -0.029843491480000
    -0.029843491480000    -0.029843491480000     0.035214930790000
2 32
    -0.372892785340000    -0.272512053940000    -0.272512053940000
    -0.272512053940000    -0.112417675160000    -0.155166385590000
    -0.272512053940000    -0.155166385590000    -0.112417675160000
2 33
    -1.963395891280000     0.917013906240000     2.062521953620000
    -0.917013906240000     1.620933334770000     0.917013906240000
     2.062521953620000    -0.917013906240000    -1.963395891280000
2 34
    -1.963395891280000     0.917013906240000    -2.062521953620000
    -0.917013906240000     1.620933334770000    -0.917013906240000
    -2.062521953620000     0.917013906240000    -1.963395891280000
2 35
    -0.098258627920000     0.051003029960000    -0.068554103710000
    -0.051003029960000     0.087888570740000     0.051003029960000
    -0.068554103710000    -0.051003029960000    -0.098258627920000
2 36
    -0.098258627920000     0.051003029960000     0.068554103710000
    -0.051003029960000     0.087888570740000    -0.051003029960000
     0.068554103710000     0.051003029960000    -0.098258627920000
2 37
    -1.963395891280000    -0.917013906240000    -2.062521953620000
     0.917013906240000     1.620933334770000     0.917013906240000
    -2.062521953620000    -0.917013906240000    -1.963395891280000
2 38
    -1.963395891280000    -0.917013906240000     2.062521953620000
     0.917013906240000     1.620933334770000    -0.917013906240000
     2.062521953620000     0.917013906240000    -1.963395891280000
2 39
    -0.098258627920000    -0.051003029960000     0.068554103710000
     0.051003029960000     0.087888570740000     0.051003029960000
     0.068554103710000    -0.051003029960000    -0.098258627920000
2 40
    -0.098258627920000    -0.051003029960000    -0.068554103710000
     0.051003029960000     0.087888570740000    -0.051003029960000
    -0.068554103710000     0.051003029960000    -0.098258627920000
2 41
    -0.112417675160000    -0.155166385590000     0.272512053940000
    -0.155166385590000    -0.112417675160000     0.272512053940000
     0.272512053940000     0.272512053940000    -0.372892785340000
2 42
     0.175439031830000    -0.100053791980000    -0.062536232380000
    -0.100053791980000     0.071226070770000     0.100053791980000
    -0.062536232380000     0.100053791980000     0.175439031830000
2 43
     0.071226070770000    -0.100053791980000     0.100053791980000
    -0.100053791980000     0.175439031830000    -0.062536232380000
     0.100053791980000    -0.062536232380000     0.175439031830000
2 44
   -12.478883820709999    -5.319491254560000     5.319491254560000
    -5.319491254560000   -12.478883820709999     5.319491254560000
     5.319491254560000     5.319491254560000   -12.478883820709999
2 45
     0.035214930790000    -0.029843491480000     0.029843491480000
    -0.029843491480000     0.035214930790000     0.029843491480000
     0.029843491480000     0.029843491480000     0.035214930790000
2 46
    -0.372892785340000    -0.272512053940000     0.272512053940000
    -0.272512053940000    -0.112417675160000     0.155166385590000
     0.272512053940000     0.155166385590000    -0.112417675160000
2 47
    -0.112417675160000    -0.272512053940000     0.155166385590000
    -0.272512053940000    -0.372892785340000     0.272512053940000
     0.155166385590000     0.272512053940000    -0.112417675160000
2 48
     0.175439031830000     0.062536232380000     0.100053791980000
     0.062536232380000     0.175439031830000     0.100053791980000
     0.100053791980000     0.100053791980000     0.071226070770000
2 49
    -1.963395891280000    -2.062521953620000    -0.917013906240000
    -2.062521953620000    -1.963395891280000    -0.917013906240000
     0.917013906240000     0.917013906240000     1.620933334770000
2 50
    -1.963395891280000     2.062521953620000    -0.917013906240000
     2.062521953620000    -1.963395891280000     0.917013906240000
     0.917013906240000    -0.917013906240000     1.620933334770000
2 51
    -1.963395891280000     2.062521953620000     0.917013906240000
     2.062521953620000    -1.963395891280000    -0.917013906240000
    -0.917013906240000     0.917013906240000     1.620933334770000
2 52
    -1.963395891280000    -2.062521953620000     0.917013906240000
    -2.062521953620000    -1.963395891280000     0.917013906240000
    -0.917013906240000    -0.917013906240000     1.620933334770000
2 53
    -0.098258627920000     0.068554103710000    -0.051003029960000
     0.068554103710000    -0.098258627920000    -0.051003029960000
     0.051003029960000     0.051003029960000     0.087888570740000
2 54
    -0.098258627920000    -0.068554103710000    -0.051003029960000
    -0.068554103710000    -0.098258627920000     0.051003029960000
     0.051003029960000    -0.051003029960000     0.087888570740000
2 55
    -0.098258627920000    -0.068554103710000     0.051003029960000
    -0.068554103710000    -0.098258627920000    -0.051003029960000
    -0.051003029960000     0.051003029960000     0.087888570740000
2 56
    -0.098258627920000     0.068554103710000     0.051003029960000
     0.068554103710000    -0.098258627920000     0.051003029960000
    -0.051003029960000    -0.051003029960000     0.087888570740000
2 57
     0.071226070770000     0.100053791980000    -0.100053791980000
     0.100053791980000     0.175439031830000    -0.062536232380000
    -0.100053791980000    -0.062536232380000     0.175439031830000
2 58
   -12.478883820709999     5.319491254560000    -5.319491254560000
     5.319491254560000   -12.478883820709999     5.319491254560000
    -5.319491254560000     5.319491254560000   -12.478883820709999
2 59
    -0.112417675160000     0.155166385590000    -0.272512053940000
     0.155166385590000    -0.112417675160000     0.272512053940000
    -0.272512053940000     0.272512053940000    -0.372892785340000
2 60
     0.175439031830000     0.100053791980000     0.062536232380000
     0.100053791980000     0.071226070770000     0.100053791980000
     0.062536232380000     0.100053791980000     0.175439031830000
2 61
    -0.112417675160000     0.272512053940000    -0.155166385590000
     0.272512053940000    -0.372892785340000     0.272512053940000
    -0.155166385590000     0.272512053940000    -0.112417675160000
2 62
     0.175439031830000    -0.062536232380000    -0.100053791980000
    -0.062536232380000     0.175439031830000     0.100053791980000
    -0.100053791980000     0.100053791980000     0.071226070770000
2 63
     0.035214930790000     0.029843491480000    -0.029843491480000
     0.029843491480000     0.035214930790000     0.029843491480000
    -0.029843491480000     0.029843491480000     0.035214930790000
2 64
    -0.372892785340000     0.272512053940000    -0.272512053940000
     0.272512053940000    -0.112417675160000     0.155166385590000
    -0.272512053940000     0.155166385590000    -0.112417675160000
3 1
    -0.105540296670000    -0.000000000000000    -0.000000000000000
    -0.000000000000000    -0.216335165620000    -0.000000000000000
    -0.000000000000000    -0.000000000000000    -0.105540296670000
3 2
    -0.186218303780000    -0.000000000000000     0.000000000000000
    -0.000000000000000    -0.186218303780000     0.000000000000000
     0.000000000000000     0.000000000000000     0.614827956140000
3 3
    60.387064153369998     0.000000000000000     0.000000000000000
     0.000000000000000    60.387064153369998     0.000000000000000
     0.000000000000000     0.000000000000000    60.387064153369998
3 4
    -0.216335165620000    -0.000000000000000    -0.000000000000000
    -0.000000000000000    -0.105540296670000    -0.000000000000000
    -0.000000000000000    -0.000000000000000    -0.105540296670000
3 5
     0.614827956140000    -0.000000000000000    -0.000000000000000
    -0.000000000000000    -0.186218303780000    -0.000000000000000
    -0.000000000000000    -0.000000000000000    -0.186218303780000
3 6
    -0.066918926170000     0.000000000000000     0.000000000000000
     0.000000000000000    -0.066918926170000     0.000000000000000
     0.000000000000000     0.000000000000000    -0.066918926170000
3 7
    -0.105540296670000     0.000000000000000    -0.000000000000000
     0.000000000000000    -0.105540296670000    -0.000000000000000
    -0.000000000000000    -0.000000000000000    -0.216335165620000
3 8
    -0.186218303780000    -0.000000000000000    -0.000000000000000
    -0.000000000000000     0.614827956140000    -0.000000000000000
    -0.000000000000000    -0.000000000000000    -0.186218303780000
3 9
   -12.478883820709999     5.319491254560000     5.319491254560000
     5.319491254560000   -12.478883820709999    -5.319491254560000
     5.319491254560000    -5.319491254560000   -12.478883820709999
3 10
     0.071226070770000     0.100053791980000     0.100053791980000
     0.100053791980000     0.175439031830000     0.062536232380000
     0.100053791980000     0.062536232380000     0.175439031830000
3 11
     0.175439031830000     0.100053791980000    -0.062536232380000
     0.100053791980000     0.071226070770000    -0.100053791980000
    -0.062536232380000    -0.100053791980000     0.175439031830000
3 12
    -0.112417675160000     0.155166385590000     0.272512053940000
     0.155166385590000    -0.112417675160000    -0.272512053940000
     0.272512053940000    -0.272512053940000    -0.372892785340000
3 13
     0.175439031830000    -0.062536232380000     0.100053791980000
    -0.062536232380000     0.175439031830000    -0.100053791980000
     0.100053791980000    -0.100053791980000     0.071226070770000
3 14
    -0.112417675160000     0.272512053940000     0.155166385590000
     0.272512053940000    -0.372892785340000    -0.272512053940000
     0.155166385590000    -0.272512053940000    -0.112417675160000
3 15
    -0.372892785340000     0.272512053940000     0.272512053940000
     0.272512053940000    -0.112417675160000    -0.155166385590000
     0.272512053940000    -0.155166385590000    -0.112417675160000
3 16
     0.035214930790000     0.029843491480000     0.029843491480000
     0.029843491480000     0.035214930790000    -0.029843491480000
     0.029843491480000    -0.029843491480000     0.035214930790000
3 17
     1.620933334770000    -0.917013906240000    -0.917013906240000
     0.917013906240000    -1.963395891280000    -2.062521953620000
     0.917013906240000    -2.062521953620000    -1.963395891280000
3 18
     0.087888570740000    -0.051003029960000    -0.051003029960000
     0.051003029960000    -0.098258627920000     0.068554103710000