mesh: [    48,    48,    48 ]
nqpoint: 2600   
reciprocal_lattice:
- [   0.29495750,   0.00000000,   0.00000000 ] # a*
- [   0.00000000,   0.29495750,   0.00000000 ] # b*
- [   0.00000000,   0.00000000,   0.29495750 ] # c*
natom:   8      
lattice:
- [     3.390319000000000,     0.000000000000000,     0.000000000000000 ] # a
- [     0.000000000000000,     3.390319000000000,     0.000000000000000 ] # b
- [     0.000000000000000,     0.000000000000000,     3.390319000000000 ] # c
points:
- symbol: C  # 1
  coordinates: [  0.250000000000000,  0.750000000000000,  0.250000000000000 ]
  mass: 12.010700
- symbol: C  # 2
  coordinates: [  0.000000000000000,  0.000000000000000,  0.500000000000000 ]
  mass: 12.010700
- symbol: C  # 3
  coordinates: [  0.250000000000000,  0.250000000000000,  0.750000000000000 ]
  mass: 12.010700
- symbol: C  # 4
  coordinates: [  0.000000000000000,  0.500000000000000,  0.000000000000000 ]
  mass: 12.010700
- symbol: C  # 5
  coordinates: [  0.750000000000000,  0.750000000000000,  0.750000000000000 ]
  mass: 12.010700
- symbol: C  # 6
  coordinates: [  0.500000000000000,  0.000000000000000,  0.000000000000000 ]
  mass: 12.010700
- symbol: C  # 7
  coordinates: [  0.750000000000000,  0.250000000000000,  0.250000000000000 ]
  mass: 12.010700
- symbol: C  # 8
  coordinates: [  0.500000000000000,  0.500000000000000,  0.500000000000000 ]
  mass: 12.010700

phonon:
- q-position: [    0.0104167,    0.0104167,    0.0104167 ]
  distance_from_gamma:  0.005321681
  weight: 8    
  band:
  - # 1
    frequency:     0.6445142916
  - # 2
    frequency:     0.6445142916
  - # 3
    frequency:     1.0948926783
  - # 4
    frequency:    24.1001935511
  - # 5
    frequency:    24.1001935511
  - # 6
    frequency:    24.1001935511
  - # 7
    frequency:    24.1184991098
  - # 8
    frequency:    24.1184991098
  - # 9
    frequency:    24.1184991098
  - # 10
    frequency:    39.8262907640
  - # 11
    frequency:    39.8262907640
  - # 12
    frequency:    39.8262907640
  - # 13
    frequency:    39.8537453911
  - # 14
    frequency:    39.8537453911
  - # 15
    frequency:    39.8537453911
  - # 16
    frequency:    41.0218256427
  - # 17
    frequency:    41.0218256427
  - # 18
    frequency:    41.0218256427
  - # 19
    frequency:    41.4105366626
  - # 20
    frequency:    41.4105366626
  - # 21
    frequency:    41.4105366626
  - # 22
    frequency:    45.3208685456
  - # 23
    frequency:    45.3208685456
  - # 24
    frequency:    45.3237276054

- q-position: [    0.0312500,    0.0104167,    0.0104167 ]
  distance_from_gamma:  0.010190243
  weight: 24   
  band:
  - # 1
    frequency:     1.2648729739
  - # 2
    frequency:     1.3254269521
  - # 3
    frequency:     2.0196824618
  - # 4
    frequency:    24.0784052036
  - # 5
    frequency:    24.0967198758
  - # 6
    frequency:    24.1160125472
  - # 7
    frequency:    24.1160125472
  - # 8
    frequency:    24.1708095395
  - # 9
    frequency:    24.1708095395
  - # 10
    frequency:    39.7496261882
  - # 11
    frequency:    39.7496261882
  - # 12
    frequency:    39.8289100135
  - # 13
    frequency:    39.8289100135
  - # 14
    frequency:    39.8294970894
  - # 15
    frequency:    39.8650239476
  - # 16
    frequency:    40.6207589554
  - # 17
    frequency:    41.0540848155
  - # 18
    frequency:    41.0540848155
  - # 19
    frequency:    41.4339696676
  - # 20
    frequency:    41.4339696676
  - # 21
    frequency:    41.7799121218
  - # 22
    frequency:    45.3098278420
  - # 23
    frequency:    45.3106526224
  - # 24
    frequency:    45.3268599935

- q-position: [    0.0520833,    0.0104167,    0.0104167 ]
  distance_from_gamma:  0.015965043
  weight: 24   
  band:
  - # 1
    frequency:     2.0555916197
  - # 2
    frequency:     2.1054846898
  - # 3
    frequency:     3.0930250160
  - # 4
    frequency:    24.0347630175
  - # 5
    frequency:    24.0530947423
  - # 6
    frequency:    24.1657332872
  - # 7
    frequency:    24.1657332872
  - # 8
    frequency:    24.2566672277
  - # 9
    frequency:    24.2566672277
  - # 10
    frequency:    39.6311402046
  - # 11
    frequency:    39.6311402046
  - # 12
    frequency:    39.7556288551
  - # 13
    frequency:    39.7556288551
  - # 14
    frequency:    39.8160748329
  - # 15
    frequency:    39.8875680502
  - # 16
    frequency:    40.2259728642
  - # 17
    frequency:    41.1116256577
  - # 18
    frequency:    41.1116256577
  - # 19
    frequency:    41.4767984860
  - # 20
    frequency:    41.4767984860
  - # 21
    frequency:    42.1311677341
  - # 22
    frequency:    45.2877795215
  - # 23
    frequency:    45.2886724681
  - # 24
    frequency:    45.3346401596

- q-position: [    0.0729167,    0.0104167,    0.0104167 ]
  distance_from_gamma:  0.021941853
  weight: 24   
  band:
  - # 1
    frequency:     2.8653965780
  - # 2
    frequency:     2.9037118067
  - # 3
    frequency:     4.2084031948
  - # 4
    frequency:    23.9691396914
  - # 5
    frequency:    23.9874941112
  - # 6
    frequency:    24.2487942615
  - # 7
    frequency:    24.2487942615
  - # 8
    frequency:    24.3752845099
  - # 9
    frequency:    24.3752845099
  - # 10
    frequency:    39.4792337780
  - # 11
    frequency:    39.4792337780
  - # 12
    frequency:    39.6251946410
  - # 13
    frequency:    39.6412748463
  - # 14
    frequency:    39.6412748463
  - # 15
    frequency:    39.9213492778
  - # 16
    frequency:    39.9988096671
  - # 17
    frequency:    41.1850558038
  - # 18
    frequency:    41.1850558038
  - # 19
    frequency:    41.5330804571
  - # 20
    frequency:    41.5330804571
  - # 21
    frequency:    42.4638225525
  - # 22
    frequency:    45.2547899106
  - # 23
    frequency:    45.2556953782
  - # 24
    frequency:    45.3462357339

- q-position: [    0.0937500,    0.0104167,    0.0104167 ]
  distance_from_gamma:  0.027991569
  weight: 24   
  band:
  - # 1
    frequency:     3.6760918437
  - # 2
    frequency:     3.7058175427
  - # 3
    frequency:     5.3388354095
  - # 4
    frequency:    23.8813532317
  - # 5
    frequency:    23.8997326693
  - # 6
    frequency:    24.3643032346
  - # 7
    frequency:    24.3643032346
  - # 8
    frequency:    24.5255578951
  - # 9
    frequency:    24.5255578951
  - # 10
    frequency:    39.2004354939
  - # 11
    frequency:    39.3006412975
  - # 12
    frequency:    39.3006412975
  - # 13
    frequency:    39.4934267295
  - # 14
    frequency:    39.4934267295
  - # 15
    frequency:    39.9663192107
  - # 16
    frequency:    39.9956962990
  - # 17
    frequency:    41.2664007867
  - # 18
    frequency:    41.2664007867
  - # 19
    frequency:    41.5971423197
  - # 20
    frequency:    41.5971423197
  - # 21
    frequency:    42.7779135139
  - # 22
    frequency:    45.2109588764
  - # 23
    frequency:    45.2118632680
  - # 24
    frequency:    45.3614090799

- q-position: [    0.1145833,    0.0104167,    0.0104167 ]
  distance_from_gamma:  0.034075384
  weight: 24   
  band:
  - # 1
    frequency:     4.4835837830
  - # 2
    frequency:     4.5069232446
  - # 3
    frequency:     6.4739460293
  - # 4
    frequency:    23.7711770402
  - # 5
    frequency:    23.7895796192
  - # 6
    frequency:    24.5110501474
  - # 7
    frequency:    24.5110501474
  - # 8
    frequency:    24.7060856582
  - # 9
    frequency:    24.7060856582
  - # 10
    frequency:    38.7186184290
  - # 11
    frequency:    39.1001045958
  - # 12
    frequency:    39.1001045958
  - # 13
    frequency:    39.3181599834
  - # 14
    frequency:    39.3181599834
  - # 15
    frequency:    40.0224030562
  - # 16
    frequency:    40.0396826902
  - # 17
    frequency:    41.3501546223
  - # 18
    frequency:    41.3501546223
  - # 19
    frequency:    41.6645740079
  - # 20
    frequency:    41.6645740079
  - # 21
    frequency:    43.0736177470
  - # 22
    frequency:    45.1564202679
  - # 23
    frequency:    45.1573177000
  - # 24
    frequency:    45.3798944923

- q-position: [    0.1354167,    0.0104167,    0.0104167 ]
  distance_from_gamma:  0.040177810
  weight: 24   
  band:
  - # 1
    frequency:     5.2861139519
  - # 2
    frequency:     5.3045184682
  - # 3
    frequency:     7.6086135693
  - # 4
    frequency:    23.6383523254
  - # 5
    frequency:    23.6567712663
  - # 6
    frequency:    24.6875230608
  - # 7
    frequency:    24.6875230608
  - # 8
    frequency:    24.9151874900
  - # 9
    frequency:    24.9151874900
  - # 10
    frequency:    38.2086927894
  - # 11
    frequency:    38.8808713354
  - # 12
    frequency:    38.8808713354
  - # 13
    frequency:    39.1199059217
  - # 14
    frequency:    39.1199059217
  - # 15
    frequency:    40.0894920452
  - # 16
    frequency:    40.1016193082
  - # 17
    frequency:    41.4328645165
  - # 18
    frequency:    41.4328645165
  - # 19
    frequency:    41.7323003178
  - # 20
    frequency:    41.7323003178
  - # 21
    frequency:    43.3511821861
  - # 22
    frequency:    45.0913424848
  - # 23
    frequency:    45.0922294729
  - # 24
    frequency:    45.4013715062

- q-position: [    0.1562500,    0.0104167,    0.0104167 ]
  distance_from_gamma:  0.046291487
  weight: 24   
  band:
  - # 1
    frequency:     6.0824723486
  - # 2
    frequency:     6.0969128271
  - # 3
    frequency:     8.7397727713
  - # 4
    frequency:    23.4826020705
  - # 5
    frequency:    23.5010251846
  - # 6
    frequency:    24.8919252073
  - # 7
    frequency:    24.8919252073
  - # 8
    frequency:    25.1509240924
  - # 9
    frequency:    25.1509240924
  - # 10
    frequency:    37.6751728243
  - # 11
    frequency:    38.6452528753
  - # 12
    frequency:    38.6452528753
  - # 13
    frequency:    38.9018540481
  - # 14
    frequency:    38.9018540481
  - # 15
    frequency:    40.1674352491
  - # 16
    frequency:    40.1767396600
  - # 17
    frequency:    41.5124667699
  - # 18
    frequency:    41.5124667699
  - # 19
    frequency:    41.7983045873
  - # 20
    frequency:    41.7983045873
  - # 21
    frequency:    43.6108975236
  - # 22
    frequency:    45.0159291565
  - # 23
    frequency:    45.0168032887
  - # 24
    frequency:    45.4254637438

- q-position: [    0.1770833,    0.0104167,    0.0104167 ]
  distance_from_gamma:  0.052412479
  weight: 24   
  band:
  - # 1
    frequency:     6.8716145430
  - # 2
    frequency:     6.8827637650
  - # 3
    frequency:     9.8652942618
  - # 4
    frequency:    23.3036457321
  - # 5
    frequency:    23.3220551252
  - # 6
    frequency:    25.1221907661
  - # 7
    frequency:    25.1221907661
  - # 8
    frequency:    25.4111142944
  - # 9
    frequency:    25.4111142944
  - # 10
    frequency:    37.1192595298
  - # 11
    frequency:    38.3950374736
  - # 12
    frequency:    38.3950374736
  - # 13
    frequency:    38.6663890913
  - # 14
    frequency:    38.6663890913
  - # 15
    frequency:    40.2560315066
  - # 16
    frequency:    40.2635433948
  - # 17
    frequency:    41.5877728709
  - # 18
    frequency:    41.5877728709
  - # 19
    frequency:    41.8613201548
  - # 20
    frequency:    41.8613201548
  - # 21
    frequency:    43.8530866469
  - # 22
    frequency:    44.9304199104
  - # 23
    frequency:    44.9312794390
  - # 24
    frequency:    45.4517412861

- q-position: [    0.1979167,    0.0104167,    0.0104167 ]
  distance_from_gamma:  0.058538490
  weight: 24   
  band:
  - # 1
    frequency:     7.6525584388
  - # 2
    frequency:     7.6608998057
  - # 3
    frequency:    10.9835290152
  - # 4
    frequency:    23.1012138635
  - # 5
    frequency:    23.1195858466
  - # 6
    frequency:    25.3759965633
  - # 7
    frequency:    25.3759965633
  - # 8
    frequency:    25.6933469112
  - # 9
    frequency:    25.6933469112
  - # 10
    frequency:    36.5413591208
  - # 11
    frequency:    38.1317679455
  - # 12
    frequency:    38.1317679455
  - # 13
    frequency:    38.4154300815
  - # 14
    frequency:    38.4154300815
  - # 15
    frequency:    40.3550221193
  - # 16
    frequency:    40.3612777183
  - # 17
    frequency:    41.6581349177
  - # 18
    frequency:    41.6581349177
  - # 19
    frequency:    41.9205868649
  - # 20
    frequency:    41.9205868649
  - # 21
    frequency:    44.0780990994
  - # 22
    frequency:    44.8350912035
  - # 23
    frequency:    44.8359349219
  - # 24
    frequency:    45.4797240793

- q-position: [    0.2187500,    0.0104167,    0.0104167 ]
  distance_from_gamma:  0.064668095
  weight: 24   
  band:
  - # 1
    frequency:     8.4243518752
  - # 2
    frequency:     8.4302445568
  - # 3
    frequency:    12.0931015160
  - # 4
    frequency:    22.8750619286
  - # 5
    frequency:    22.8933671221
  - # 6
    frequency:    25.6507664145
  - # 7
    frequency:    25.6507664145
  - # 8
    frequency:    25.9949841243
  - # 9
    frequency:    25.9949841243
  - # 10
    frequency:    35.9416227261
  - # 11
    frequency:    37.8569308252
  - # 12
    frequency:    37.8569308252
  - # 13
    frequency:    38.1506734921
  - # 14
    frequency:    38.1506734921
  - # 15
    frequency:    40.4640848909
  - # 16
    frequency:    40.4693962561
  - # 17
    frequency:    41.7232384257
  - # 18
    frequency:    41.7232384257
  - # 19
    frequency:    41.9756795794
  - # 20
    frequency:    41.9756795794
  - # 21
    frequency:    44.2863083832
  - # 22
    frequency:    44.7302571881
  - # 23
    frequency:    44.7310844175
  - # 24
    frequency:    45.5088858560

- q-position: [    0.2395833,    0.0104167,    0.0104167 ]
  distance_from_gamma:  0.070800360
  weight: 24   
  band:
  - # 1
    frequency:     9.1860615912
  - # 2
    frequency:     9.1897806974
  - # 3
    frequency:    13.1928076298
  - # 4
    frequency:    22.6249827007
  - # 5
    frequency:    22.6431863101
  - # 6
    frequency:    25.9436642025
  - # 7
    frequency:    25.9436642025
  - # 8
    frequency:    26.3131525124
  - # 9
    frequency:    26.3131525124
  - # 10
    frequency:    35.3201094053
  - # 11
    frequency:    37.5720965350
  - # 12
    frequency:    37.5720965350
  - # 13
    frequency:    37.8737710382
  - # 14
    frequency:    37.8737710382
  - # 15
    frequency:    40.5828299544
  - # 16
    frequency:    40.5873950758
  - # 17
    frequency:    41.7829746222
  - # 18
    frequency:    41.7829746222
  - # 19
    frequency:    42.0263922712
  - # 20
    frequency:    42.0263922712
  - # 21
    frequency:    44.4781107129
  - # 22
    frequency:    44.6162705758
  - # 23
    frequency:    44.6170812031
  - # 24
    frequency:    45.5386583915

- q-position: [    0.2604167,    0.0104167,    0.0104167 ]
  distance_from_gamma:  0.076934648
  weight: 24   
  band:
  - # 1
    frequency:     9.9367695519
  - # 2
    frequency:     9.9385317431
  - # 3
    frequency:    14.2815608313
  - # 4
    frequency:    22.3508168045
  - # 5
    frequency:    22.3688790347
  - # 6
    frequency:    26.2515708700
  - # 7
    frequency:    26.2515708700
  - # 8
    frequency:    26.6447168886
  - # 9
    frequency:    26.6447168886
  - # 10
    frequency:    34.6768476207
  - # 11
    frequency:    37.2790383096
  - # 12
    frequency:    37.2790383096
  - # 13
    frequency:    37.5864712431
  - # 14
    frequency:    37.5864712431
  - # 15
    frequency:    40.7107976726
  - # 16
    frequency:    40.7147516603
  - # 17
    frequency:    41.8373606604
  - # 18
    frequency:    41.8373606604
  - # 19
    frequency:    42.0726605353
  - # 20
    frequency:    42.0726605353
  - # 21
    frequency:    44.4935234621
  - # 22
    frequency:    44.4943180069
  - # 23
    frequency:    44.6539245432
  - # 24
    frequency:    45.5684359930

- q-position: [    0.2812500,    0.0104167,    0.0104167 ]
  distance_from_gamma:  0.083070513
  weight: 24   
  band:
  - # 1
    frequency:    10.6755524549
  - # 2
    frequency:    10.6755721042
  - # 3
    frequency:    15.3583624710
  - # 4
    frequency:    22.0524611289
  - # 5
    frequency:    22.0703377030
  - # 6
    frequency:    26.5710392246
  - # 7
    frequency:    26.5710392246
  - # 8
    frequency:    26.9862306721
  - # 9
    frequency:    26.9862306721
  - # 10
    frequency:    34.0118625556
  - # 11
    frequency:    36.9798498671
  - # 12
    frequency:    36.9798498671
  - # 13
    frequency:    37.2907479694
  - # 14
    frequency:    37.2907479694
  - # 15
    frequency:    40.8474587306
  - # 16
    frequency:    40.8508998801
  - # 17
    frequency:    41.8864887695
  - # 18
    frequency:    41.8864887695
  - # 19
    frequency:    42.1145096563
  - # 20
    frequency:    42.1145096563
  - # 21
    frequency:    44.3624480663
  - # 22
    frequency:    44.3632277673
  - # 23
    frequency:    44.8141905104
  - # 24
    frequency:    45.5975801414

- q-position: [    0.3020833,    0.0104167,    0.0104167 ]
  distance_from_gamma:  0.089207628
  weight: 24   
  band:
  - # 1
    frequency:    11.3999237775
  - # 2
    frequency:    11.4015803392
  - # 3
    frequency:    16.4222847162
  - # 4
    frequency:    21.7298750150
  - # 5
    frequency:    21.7475177588
  - # 6
    frequency:    26.8982187171
  - # 7
    frequency:    26.8982187171
  - # 8
    frequency:    27.3338545779
  - # 9
    frequency:    27.3338545779
  - # 10
    frequency:    33.3251900313
  - # 11
    frequency:    36.6770779352
  - # 12
    frequency:    36.6770779352
  - # 13
    frequency:    36.9889351479
  - # 14
    frequency:    36.9889351479
  - # 15
    frequency:    40.9922163768
  - # 16
    frequency:    40.9952203307
  - # 17
    frequency:    41.9304931830
  - # 18
    frequency:    41.9304931830
  - # 19
    frequency:    42.1520195271
  - # 20
    frequency:    42.1520195271
  - # 21
    frequency:    44.2235173395
  - # 22
    frequency:    44.2242842554
  - # 23
    frequency:    44.9593715816
  - # 24
    frequency:    45.6254242159

- q-position: [    0.3229167,    0.0104167,    0.0104167 ]
  distance_from_gamma:  0.095345752
  weight: 24   
  band:
  - # 1
    frequency:    12.1107503140
  - # 2
    frequency:    12.1139210353
  - # 3
    frequency:    17.4724604936
  - # 4
    frequency:    21.3830842678
  - # 5
    frequency:    21.4004417237
  - # 6
    frequency:    27.2287403773
  - # 7
    frequency:    27.2287403773
  - # 8
    frequency:    27.6832331572
  - # 9
    frequency:    27.6832331572
  - # 10
    frequency:    32.6168845232
  - # 11
    frequency:    36.3738840849
  - # 12
    frequency:    36.3738840849
  - # 13
    frequency:    36.6838856561
  - # 14
    frequency:    36.6838856561
  - # 15
    frequency:    41.1444106356
  - # 16
    frequency:    41.1470384394
  - # 17
    frequency:    41.9695282513
  - # 18
    frequency:    41.9695282513
  - # 19
    frequency:    42.1853007314
  - # 20
    frequency:    42.1853007314
  - # 21
    frequency:    44.0772453878
  - # 22
    frequency:    44.0780025095
  - # 23
    frequency:    45.0899532782
  - # 24
    frequency:    45.6512782347

- q-position: [    0.3437500,    0.0104167,    0.0104167 ]
  distance_from_gamma:  0.101484702
  weight: 24   
  band:
  - # 1
    frequency:    12.8071593186
  - # 2
    frequency:    12.8117379312
  - # 3
    frequency:    18.5080774365
  - # 4
    frequency:    21.0121831658
  - # 5
    frequency:    21.0292012004
  - # 6
    frequency:    27.5575507407
  - # 7
    frequency:    27.5575507407
  - # 8
    frequency:    28.0293171246
  - # 9
    frequency:    28.0293171246
  - # 10
    frequency:    31.8870243315
  - # 11
    frequency:    36.0742483983
  - # 12
    frequency:    36.0742483983
  - # 13
    frequency:    36.3791728656
  - # 14
    frequency:    36.3791728656
  - # 15
    frequency:    41.3033242070
  - # 16
    frequency:    41.3056270382
  - # 17
    frequency:    42.0037537716
  - # 18
    frequency:    42.0037537716
  - # 19
    frequency:    42.2144780978
  - # 20
    frequency:    42.2144780978
  - # 21
    frequency:    43.9241876515
  - # 22
    frequency:    43.9249390253
  - # 23
    frequency:    45.2064438876
  - # 24
    frequency:    45.6744335516

- q-position: [    0.3645833,    0.0104167,    0.0104167 ]
  distance_from_gamma:  0.107624336
  weight: 24   
  band:
  - # 1
    frequency:    13.4883006603
  - # 2
    frequency:    13.4941932309
  - # 3
    frequency:    19.5283741790
  - # 4
    frequency:    20.6173347226
  - # 5
    frequency:    20.6339570995
  - # 6
    frequency:    27.8786855153
  - # 7
    frequency:    27.8786855153
  - # 8
    frequency:    28.3661213932
  - # 9
    frequency:    28.3661213932
  - # 10
    frequency:    31.1357152656
  - # 11
    frequency:    35.7832206803
  - # 12
    frequency:    35.7832206803
  - # 13
    frequency:    36.0793537453
  - # 14
    frequency:    36.0793537453
  - # 15
    frequency:    41.4681897038
  - # 16
    frequency:    41.4702117088
  - # 17
    frequency:    42.0333250904
  - # 18
    frequency:    42.0333250904
  - # 19
    frequency:    42.2396793156
  - # 20
    frequency:    42.2396793156
  - # 21
    frequency:    43.7649407802
  - # 22
    frequency:    43.7656916385
  - # 23
    frequency:    45.3093745954
  - # 24
    frequency:    45.6941674512

- q-position: [    0.3854167,    0.0104167,    0.0104167 ]
  distance_from_gamma:  0.113764544
  weight: 24   
  band:
  - # 1
    frequency:    14.1533474630
  - # 2
    frequency:    14.1604693091
  - # 3
    frequency:    20.1987695047
  - # 4
    frequency:    20.2149383964
  - # 5
    frequency:    20.5326380413
  - # 6
    frequency:    28.1849854831
  - # 7
    frequency:    28.1849854831
  - # 8
    frequency:    28.6864215845
  - # 9
    frequency:    28.6864215845
  - # 10
    frequency:    30.3630934913
  - # 11
    frequency:    35.5072033641
  - # 12
    frequency:    35.5072033641
  - # 13
    frequency:    35.7903078174
  - # 14
    frequency:    35.7903078174
  - # 15
    frequency:    41.6381978457
  - # 16
    frequency:    41.6399778655
  - # 17
    frequency:    42.0583864254
  - # 18
    frequency:    42.0583864254
  - # 19
    frequency:    42.2610270205
  - # 20
    frequency:    42.2610270205
  - # 21
    frequency:    43.6001421371
  - # 22
    frequency:    43.6008990361
  - # 23
    frequency:    45.3992994868
  - # 24
    frequency:    45.7097475919

- q-position: [    0.4062500,    0.0104167,    0.0104167 ]
  distance_from_gamma:  0.119905238
  weight: 24   
  band:
  - # 1
    frequency:    14.8014972534
  - # 2
    frequency:    14.8097706167
  - # 3
    frequency:    19.7567833261
  - # 4
    frequency:    19.7724397458
  - # 5
    frequency:    21.5202035340
  - # 6
    frequency:    28.4677926975
  - # 7
    frequency:    28.4677926975
  - # 8
    frequency:    28.9814307914
  - # 9
    frequency:    28.9814307914
  - # 10
    frequency:    29.5693278656
  - # 11
    frequency:    35.2541948587
  - # 12
    frequency:    35.2541948587
  - # 13
    frequency:    35.5196461133
  - # 14
    frequency:    35.5196461133
  - # 15
    frequency:    41.8125062299
  - # 16
    frequency:    41.8140788629
  - # 17
    frequency:    42.0790663939
  - # 18
    frequency:    42.0790663939
  - # 19
    frequency:    42.2786332830
  - # 20
    frequency:    42.2786332830
  - # 21
    frequency:    43.4304688642
  - # 22
    frequency:    43.4312398264
  - # 23
    frequency:    45.4767953759
  - # 24
    frequency:    45.7204362530

- q-position: [    0.4270833,    0.0104167,    0.0104167 ]
  distance_from_gamma:  0.126046346
  weight: 24   
  band:
  - # 1
    frequency:    15.4319735311
  - # 2
    frequency:    15.4413257993
  - # 3
    frequency:    19.2917341277
  - # 4
    frequency:    19.3068182660
  - # 5
    frequency:    22.4904513306
  - # 6
    frequency:    28.7167475407
  - # 7
    frequency:    28.7167475407
  - # 8
    frequency:    28.7546219302
  - # 9
    frequency:    29.2405877479
  - # 10
    frequency:    29.2405877479
  - # 11
    frequency:    35.0338057087
  - # 12
    frequency:    35.0338057087
  - # 13
    frequency:    35.2771281321
  - # 14
    frequency:    35.2771281321
  - # 15
    frequency:    41.9902483269
  - # 16
    frequency:    41.9916445933
  - # 17
    frequency:    42.0954750618
  - # 18
    frequency:    42.0954750618
  - # 19
    frequency:    42.2925957788
  - # 20
    frequency:    42.2925957788
  - # 21
    frequency:    43.2566364370
  - # 22
    frequency:    43.2574310970
  - # 23
    frequency:    45.5424614252
  - # 24
    frequency:    45.7254943447

- q-position: [    0.4479167,    0.0104167,    0.0104167 ]
  distance_from_gamma:  0.132187812
  weight: 24   
  band:
  - # 1
    frequency:    16.0440277119
  - # 2
    frequency:    16.0543900509
  - # 3
    frequency:    18.8040383239
  - # 4
    frequency:    18.8184897791
  - # 5
    frequency:    23.4428074852
  - # 6
    frequency:    27.9192156529
  - # 7
    frequency:    28.9199538968
  - # 8
    frequency:    28.9199538968
  - # 9
    frequency:    29.4517412817
  - # 10
    frequency:    29.4517412817
  - # 11
    frequency:    34.8566820890
  - # 12
    frequency:    34.8566820890
  - # 13
    frequency:    35.0749017665
  - # 14
    frequency:    35.0749017665
  - # 15
    frequency:    42.1077020424
  - # 16
    frequency:    42.1077020424
  - # 17
    frequency:    42.1705423913
  - # 18
    frequency:    42.1717901603
  - # 19
    frequency:    42.3029951436
  - # 20
    frequency:    42.3029951436
  - # 21
    frequency:    43.0793966394
  - # 22
    frequency:    43.0802263899
  - # 23
    frequency:    45.5969185249
  - # 24
    frequency:    45.7241851498

- q-position: [    0.4687500,    0.0104167,    0.0104167 ]
  distance_from_gamma:  0.138329586
  weight: 24   
  band:
  - # 1
    frequency:    16.6369414231
  - # 2
    frequency:    16.6482477231
  - # 3
    frequency:    18.2941668565
  - # 4
    frequency:    18.3079247504
  - # 5
    frequency:    24.3767427551
  - # 6
    frequency:    27.0633869660
  - # 7
    frequency:    29.0649354018
  - # 8
    frequency:    29.0649354018
  - # 9
    frequency:    29.6021643675
  - # 10
    frequency:    29.6021643675
  - # 11
    frequency:    34.7329007878
  - # 12
    frequency:    34.7329007878
  - # 13
    frequency:    34.9271470308
  - # 14
    frequency:    34.9271470308
  - # 15
    frequency:    42.1158153098
  - # 16
    frequency:    42.1158153098
  - # 17
    frequency:    42.3098931771
  - # 18
    frequency:    42.3098931771
  - # 19
    frequency:    42.3525000354
  - # 20
    frequency:    42.3536243130
  - # 21
    frequency:    42.8995348882
  - # 22
    frequency:    42.9004130262
  - # 23
    frequency:    45.6408084061
  - # 24
    frequency:    45.7157777722

- q-position: [    0.4895833,    0.0104167,    0.0104167 ]
  distance_from_gamma:  0.144471631
  weight: 24   
  band:
  - # 1
    frequency:    17.2100291398
  - # 2
    frequency:    17.2222152110
  - # 3
    frequency:    17.7626411530
  - # 4
    frequency:    17.7756441248
  - # 5
    frequency:    25.2917719328
  - # 6
    frequency:    26.1874531292
  - # 7
    frequency:    29.1407228286
  - # 8
    frequency:    29.1407228286
  - # 9
    frequency:    29.6807112900
  - # 10
    frequency:    29.6807112900
  - # 11
    frequency:    34.6695552139
  - # 12
    frequency:    34.6695552139
  - # 13
    frequency:    34.8482514534
  - # 14
    frequency:    34.8482514534
  - # 15
    frequency:    42.1198604939
  - # 16
    frequency:    42.1198604939
  - # 17
    frequency:    42.3133316641
  - # 18
    frequency:    42.3133316641
  - # 19
    frequency:    42.5352342659
  - # 20
    frequency:    42.5362574054
  - # 21
    frequency:    42.7178668457
  - # 22
    frequency:    42.7188087166
  - # 23
    frequency:    45.6747924634
  - # 24
    frequency:    45.6995502702

- q-position: [    0.0312500,    0.0312500,    0.0104167 ]
  distance_from_gamma:  0.013392603
  weight: 24   
  band:
  - # 1
    frequency:     1.5460312114
  - # 2
    frequency:     1.7482178471
  - # 3
    frequency:     2.7170572602
  - # 4
    frequency:    24.0941315006
  - # 5
    frequency:    24.0941315006
  - # 6
    frequency:    24.0951709715
  - # 7
    frequency:    24.1489838367
  - # 8
    frequency:    24.1489838367
  - # 9
    frequency:    24.2591846000
  - # 10
    frequency:    39.6378860164
  - # 11
    frequency:    39.7269417229
  - # 12
    frequency:    39.7269417229
  - # 13
    frequency:    39.8427705506
  - # 14
    frequency:    39.8427705506
  - # 15
    frequency:    39.8579554717
  - # 16
    frequency:    40.6908928657
  - # 17
    frequency:    40.6908928657
  - # 18
    frequency:    41.0420088448
  - # 19
    frequency:    41.4830122107
  - # 20
    frequency:    41.7889678372
  - # 21
    frequency:    41.7889678372
  - # 22
    frequency:    45.2991679157
  - # 23
    frequency:    45.3061643351
  - # 24
    frequency:    45.3239239743

- q-position: [    0.0520833,    0.0312500,    0.0104167 ]
  distance_from_gamma:  0.018177001
  weight: 48   
  band:
  - # 1
    frequency:     2.1526050165
  - # 2
    frequency:     2.3941979966
  - # 3
    frequency:     3.6368154003
  - # 4
    frequency:    24.0503057366
  - # 5
    frequency:    24.1052660826
  - # 6
    frequency:    24.1083052067
  - # 7
    frequency:    24.1436405961
  - # 8
    frequency:    24.2347735638
  - # 9
    frequency:    24.3804505613
  - # 10
    frequency:    39.4973254494
  - # 11
    frequency:    39.5702543769
  - # 12
    frequency:    39.6491465258
  - # 13
    frequency:    39.7820006433
  - # 14
    frequency:    39.8327855611
  - # 15
    frequency:    39.8686544410
  - # 16
    frequency:    40.3655573562
  - # 17
    frequency:    40.8001681301
  - # 18
    frequency:    41.0387701512
  - # 19
    frequency:    41.5607425698
  - # 20
    frequency:    41.8061312405
  - # 21
    frequency:    42.1321826182
  - # 22
    frequency:    45.2773350219
  - # 23
    frequency:    45.2870131487
  - # 24
    frequency:    45.3287396754

- q-position: [    0.0729167,    0.0312500,    0.0104167 ]
  distance_from_gamma:  0.023600120
  weight: 48   
  band: