       N       E                     dE             d eps       ncg     rms          rms(c)
DAV:   1     0.541705857828E+03    0.54171E+03   -0.11634E+05 13440   0.108E+03
DAV:   2    -0.561288582944E+03   -0.11030E+04   -0.10564E+04 17600   0.242E+02
DAV:   3    -0.599435085313E+03   -0.38147E+02   -0.37961E+02 17600   0.419E+01
DAV:   4    -0.599755927275E+03   -0.32084E+00   -0.32031E+00 17376   0.434E+00
DAV:   5    -0.599761464687E+03   -0.55374E-02   -0.55357E-02 16672   0.511E-01    0.322E+01
DAV:   6    -0.576449174786E+03    0.23312E+02   -0.14906E+01 15680   0.819E+00    0.173E+01
DAV:   7    -0.568626768577E+03    0.78224E+01   -0.16326E+01 16192   0.881E+00    0.207E+00
DAV:   8    -0.568704872653E+03   -0.78104E-01   -0.34819E-01 16032   0.122E+00    0.249E-01
DAV:   9    -0.568706857053E+03   -0.19844E-02   -0.36218E-03 17280   0.151E-01    0.867E-02
DAV:  10    -0.568707230029E+03   -0.37298E-03   -0.28702E-04 15904   0.472E-02    0.905E-03
DAV:  11    -0.568707238478E+03   -0.84494E-05   -0.95800E-06 17280   0.796E-03    0.196E-03
DAV:  12    -0.568707237924E+03    0.55395E-06   -0.13977E-07 16672   0.106E-03    0.337E-04
DAV:  13    -0.568707237887E+03    0.37639E-07   -0.56729E-09 12672   0.186E-04    0.366E-05
DAV:  14    -0.568707237919E+03   -0.32936E-07   -0.58325E-10 10464   0.707E-05    0.288E-05
DAV:  15    -0.568707237921E+03   -0.11605E-08   -0.41671E-11 10112   0.177E-05
   1 F= -.56870724E+03 E0= -.56870724E+03  d E =-.906245E-13
 Linear response reoptimize wavefunctions
DAV:   1    -0.568707237918E+03    0.30495E-08   -0.33640E-12  9984   0.729E-06
DAV:   2    -0.568707237918E+03   -0.12460E-09    0.34701E-12  9984   0.295E-06
DAV:   3    -0.568707237918E+03   -0.26375E-10    0.49208E-12  9984   0.134E-06
 Linear response DOF=           1
 Linear response progress:
  Degree of freedom:   1/  1
       N       E                     dE             d eps       ncg     rms          rms(c)
RMM:   1    -0.157201444751E+00   -0.15720E+00    0.68432E-03115242   0.785E-01
RMM:   2    -0.130830086428E+00    0.26371E-01   -0.72145E-03 67424   0.197E-01    0.227E-01
RMM:   3    -0.130396844748E+00    0.43324E-03   -0.15389E-03 70571   0.663E-02    0.111E-01
RMM:   4    -0.130797920331E+00   -0.40108E-03   -0.44230E-04 71012   0.372E-02    0.315E-02
RMM:   5    -0.130933263709E+00   -0.13534E-03   -0.26412E-05 72477   0.981E-03    0.724E-03
RMM:   6    -0.130920293138E+00    0.12971E-04   -0.12122E-06 73170   0.217E-03    0.146E-03
RMM:   7    -0.130912537435E+00    0.77557E-05   -0.35999E-07 74656   0.580E-04    0.430E-04
RMM:   8    -0.130911993686E+00    0.54375E-06   -0.30460E-07 75665   0.245E-04    0.868E-05
RMM:   9    -0.130911704631E+00    0.28906E-06   -0.28713E-07 77369   0.127E-04    0.351E-05
RMM:  10    -0.130911742580E+00   -0.37949E-07   -0.22807E-07 77866   0.116E-04    0.884E-06
RMM:  11    -0.130911738504E+00    0.40750E-08   -0.20966E-07 78494   0.112E-04    0.346E-06
RMM:  12    -0.130911750986E+00   -0.12481E-07   -0.24816E-07 78752   0.111E-04    0.108E-06
 Linear response finished
