# Thermal properties / unit cell (natom)

unit:
  temperature:   K
  free_energy:   kJ/mol
  entropy:       J/K/mol
  heat_capacity: J/K/mol

natom: 8    
cutoff_frequency:    0.000
num_modes: 2654208
num_integrated_modes: 2654208

zero_point_energy:     160.6993356
high_T_entropy:        405.8079582

thermal_properties:
- temperature:         0.0000000
  free_energy:       160.6993356
  entropy:             0.0000000
  heat_capacity:       0.0000000
  energy:            160.6993356

- temperature:         2.0000000
  free_energy:       160.6993356
  entropy:             0.0000000
  heat_capacity:       0.0000000
  energy:            160.6993356

- temperature:         4.0000000
  free_energy:       160.6993355
  entropy:             0.0000046
  heat_capacity:       0.0000319
  energy:            160.6993356

- temperature:         6.0000000
  free_energy:       160.6993355
  entropy:             0.0000453
  heat_capacity:       0.0002080
  energy:            160.6993358

- temperature:         8.0000000
  free_energy:       160.6993353
  entropy:             0.0001478
  heat_capacity:       0.0005499
  energy:            160.6993365

- temperature:        10.0000000
  free_energy:       160.6993349
  entropy:             0.0003247
  heat_capacity:       0.0010941
  energy:            160.6993381

- temperature:        12.0000000
  free_energy:       160.6993340
  entropy:             0.0005909
  heat_capacity:       0.0018989
  energy:            160.6993411

- temperature:        14.0000000
  free_energy:       160.6993324
  entropy:             0.0009635
  heat_capacity:       0.0030214
  energy:            160.6993459

- temperature:        16.0000000
  free_energy:       160.6993300
  entropy:             0.0014601
  heat_capacity:       0.0045172
  energy:            160.6993534

- temperature:        18.0000000
  free_energy:       160.6993265
  entropy:             0.0020988
  heat_capacity:       0.0064419
  energy:            160.6993643

- temperature:        20.0000000
  free_energy:       160.6993215
  entropy:             0.0028978
  heat_capacity:       0.0088520
  energy:            160.6993795

- temperature:        22.0000000
  free_energy:       160.6993148
  entropy:             0.0038754
  heat_capacity:       0.0118045
  energy:            160.6994000

- temperature:        24.0000000
  free_energy:       160.6993059
  entropy:             0.0050503
  heat_capacity:       0.0153578
  energy:            160.6994271

- temperature:        26.0000000
  free_energy:       160.6992944
  entropy:             0.0064413
  heat_capacity:       0.0195712
  energy:            160.6994619

- temperature:        28.0000000
  free_energy:       160.6992800
  entropy:             0.0080677
  heat_capacity:       0.0245055
  energy:            160.6995059

- temperature:        30.0000000
  free_energy:       160.6992620
  entropy:             0.0099486
  heat_capacity:       0.0302231
  energy:            160.6995605

- temperature:        32.0000000
  free_energy:       160.6992400
  entropy:             0.0121040
  heat_capacity:       0.0367880
  energy:            160.6996273

- temperature:        34.0000000
  free_energy:       160.6992134
  entropy:             0.0145539
  heat_capacity:       0.0442663
  energy:            160.6997082

- temperature:        36.0000000
  free_energy:       160.6991816
  entropy:             0.0173187
  heat_capacity:       0.0527265
  energy:            160.6998050

- temperature:        38.0000000
  free_energy:       160.6991439
  entropy:             0.0204195
  heat_capacity:       0.0622397
  energy:            160.6999198

- temperature:        40.0000000
  free_energy:       160.6990997
  entropy:             0.0238775
  heat_capacity:       0.0728799
  energy:            160.7000548

- temperature:        42.0000000
  free_energy:       160.6990481
  entropy:             0.0277149
  heat_capacity:       0.0847249
  energy:            160.7002122

- temperature:        44.0000000
  free_energy:       160.6989885
  entropy:             0.0319542
  heat_capacity:       0.0978562
  energy:            160.7003945

- temperature:        46.0000000
  free_energy:       160.6989200
  entropy:             0.0366188
  heat_capacity:       0.1123604
  energy:            160.7006045

- temperature:        48.0000000
  free_energy:       160.6988418
  entropy:             0.0417329
  heat_capacity:       0.1283293
  energy:            160.7008449

- temperature:        50.0000000
  free_energy:       160.6987528
  entropy:             0.0473214
  heat_capacity:       0.1458607
  energy:            160.7011189

- temperature:        52.0000000
  free_energy:       160.6986521
  entropy:             0.0534106
  heat_capacity:       0.1650590
  energy:            160.7014295

- temperature:        54.0000000
  free_energy:       160.6985388
  entropy:             0.0600275
  heat_capacity:       0.1860359
  energy:            160.7017803

- temperature:        56.0000000
  free_energy:       160.6984117
  entropy:             0.0672007
  heat_capacity:       0.2089111
  energy:            160.7021749

- temperature:        58.0000000
  free_energy:       160.6982696
  entropy:             0.0749599
  heat_capacity:       0.2338119
  energy:            160.7026173

- temperature:        60.0000000
  free_energy:       160.6981114
  entropy:             0.0833363
  heat_capacity:       0.2608743
  energy:            160.7031116

- temperature:        62.0000000
  free_energy:       160.6979358
  entropy:             0.0923627
  heat_capacity:       0.2902425
  energy:            160.7036623

- temperature:        64.0000000
  free_energy:       160.6977415
  entropy:             0.1020734
  heat_capacity:       0.3220689
  energy:            160.7042742

- temperature:        66.0000000
  free_energy:       160.6975270
  entropy:             0.1125043
  heat_capacity:       0.3565135
  energy:            160.7049523

- temperature:        68.0000000
  free_energy:       160.6972910
  entropy:             0.1236931
  heat_capacity:       0.3937440
  energy:            160.7057021

- temperature:        70.0000000
  free_energy:       160.6970317
  entropy:             0.1356791
  heat_capacity:       0.4339344
  energy:            160.7065293

- temperature:        72.0000000
  free_energy:       160.6967477
  entropy:             0.1485033
  heat_capacity:       0.4772645
  energy:            160.7074399

- temperature:        74.0000000
  free_energy:       160.6964371
  entropy:             0.1622083
  heat_capacity:       0.5239191
  energy:            160.7084405

- temperature:        76.0000000
  free_energy:       160.6960982
  entropy:             0.1768382
  heat_capacity:       0.5740864
  energy:            160.7095380

- temperature:        78.0000000
  free_energy:       160.6957291
  entropy:             0.1924388
  heat_capacity:       0.6279574
  energy:            160.7107394

- temperature:        80.0000000
  free_energy:       160.6953278
  entropy:             0.2090570
  heat_capacity:       0.6857244
  energy:            160.7120524

- temperature:        82.0000000
  free_energy:       160.6948922
  entropy:             0.2267413
  heat_capacity:       0.7475798
  energy:            160.7134850

- temperature:        84.0000000
  free_energy:       160.6944201
  entropy:             0.2455410
  heat_capacity:       0.8137151
  energy:            160.7150455

- temperature:        86.0000000
  free_energy:       160.6939093
  entropy:             0.2655066
  heat_capacity:       0.8843194
  energy:            160.7167428

- temperature:        88.0000000
  free_energy:       160.6933573
  entropy:             0.2866894
  heat_capacity:       0.9595783
  energy:            160.7185859

- temperature:        90.0000000
  free_energy:       160.6927617
  entropy:             0.3091412
  heat_capacity:       1.0396732
  energy:            160.7205844

- temperature:        92.0000000
  free_energy:       160.6921198
  entropy:             0.3329146
  heat_capacity:       1.1247797
  energy:            160.7227480

- temperature:        94.0000000
  free_energy:       160.6914291
  entropy:             0.3580623
  heat_capacity:       1.2150671
  energy:            160.7250869

- temperature:        96.0000000
  free_energy:       160.6906866
  entropy:             0.3846372
  heat_capacity:       1.3106975
  energy:            160.7276118

- temperature:        98.0000000
  free_energy:       160.6898895
  entropy:             0.4126923
  heat_capacity:       1.4118248
  energy:            160.7303334

- temperature:       100.0000000
  free_energy:       160.6890348
  entropy:             0.4422803
  heat_capacity:       1.5185944
  energy:            160.7332629

- temperature:       102.0000000
  free_energy:       160.6881194
  entropy:             0.4734535
  heat_capacity:       1.6311426
  energy:            160.7364116

- temperature:       104.0000000
  free_energy:       160.6871399
  entropy:             0.5062638
  heat_capacity:       1.7495961
  energy:            160.7397914

- temperature:       106.0000000
  free_energy:       160.6860932
  entropy:             0.5407626
  heat_capacity:       1.8740716
  energy:            160.7434140

- temperature:       108.0000000
  free_energy:       160.6849757
  entropy:             0.5770002
  heat_capacity:       2.0046758
  energy:            160.7472917

- temperature:       110.0000000
  free_energy:       160.6837840
  entropy:             0.6150262
  heat_capacity:       2.1415054
  energy:            160.7514369

- temperature:       112.0000000
  free_energy:       160.6825144
  entropy:             0.6548891
  heat_capacity:       2.2846463
  energy:            160.7558620

- temperature:       114.0000000
  free_energy:       160.6811632
  entropy:             0.6966363
  heat_capacity:       2.4341748
  energy:            160.7605797

- temperature:       116.0000000
  free_energy:       160.6797266
  entropy:             0.7403139
  heat_capacity:       2.5901568
  energy:            160.7656030

- temperature:       118.0000000
  free_energy:       160.6782006
  entropy:             0.7859668
  heat_capacity:       2.7526481
  energy:            160.7709447

- temperature:       120.0000000
  free_energy:       160.6765813
  entropy:             0.8336383
  heat_capacity:       2.9216953
  energy:            160.7766179

- temperature:       122.0000000
  free_energy:       160.6748647
  entropy:             0.8833703
  heat_capacity:       3.0973354
  energy:            160.7826359

- temperature:       124.0000000
  free_energy:       160.6730465
  entropy:             0.9352035
  heat_capacity:       3.2795961
  energy:            160.7890117

- temperature:       126.0000000
  free_energy:       160.6711224
  entropy:             0.9891765
  heat_capacity:       3.4684969
  energy:            160.7957587

- temperature:       128.0000000
  free_energy:       160.6690883
  entropy:             1.0453266
  heat_capacity:       3.6640487
  energy:            160.8028901

- temperature:       130.0000000
  free_energy:       160.6669397
  entropy:             1.1036896
  heat_capacity:       3.8662547
  energy:            160.8104193

- temperature:       132.0000000
  free_energy:       160.6646720
  entropy:             1.1642994
  heat_capacity:       4.0751106
  energy:            160.8183596

- temperature:       134.0000000
  free_energy:       160.6622809
  entropy:             1.2271883
  heat_capacity:       4.2906052
  energy:            160.8267242

- temperature:       136.0000000
  free_energy:       160.6597618
  entropy:             1.2923871
  heat_capacity:       4.5127209
  energy:            160.8355264

- temperature:       138.0000000
  free_energy:       160.6571098
  entropy:             1.3599248
  heat_capacity:       4.7414338
  energy:            160.8447795

- temperature:       140.0000000
  free_energy:       160.6543205
  entropy:             1.4298288
  heat_capacity:       4.9767145
  energy:            160.8544965

- temperature:       142.0000000
  free_energy:       160.6513889
  entropy:             1.5021250
  heat_capacity:       5.2185286
  energy:            160.8646907

- temperature:       144.0000000
  free_energy:       160.6483104
  entropy:             1.5768374
  heat_capacity:       5.4668367
  energy:            160.8753750

- temperature:       146.0000000
  free_energy:       160.6450799
  entropy:             1.6539888
  heat_capacity:       5.7215954
  energy:            160.8865623

- temperature:       148.0000000
  free_energy:       160.6416928
  entropy:             1.7336002
  heat_capacity:       5.9827571
  energy:            160.8982656

- temperature:       150.0000000
  free_energy:       160.6381439
  entropy:             1.8156912
  heat_capacity:       6.2502709
  energy:            160.9104976

- temperature:       152.0000000
  free_energy:       160.6344283
  entropy:             1.9002799
  heat_capacity:       6.5240826
  energy:            160.9232709

- temperature:       154.0000000
  free_energy:       160.6305411
  entropy:             1.9873829
  heat_capacity:       6.8041353
  energy:            160.9365981

- temperature:       156.0000000
  free_energy:       160.6264771
  entropy:             2.0770156
  heat_capacity:       7.0903695
  energy:            160.9504915

- temperature:       158.0000000
  free_energy:       160.6222313
  entropy:             2.1691917
  heat_capacity:       7.3827239
  energy:            160.9649636

- temperature:       160.0000000
  free_energy:       160.6177986
  entropy:             2.2639239
  heat_capacity:       7.6811347
  energy:            160.9800265

- temperature:       162.0000000
  free_energy:       160.6131739
  entropy:             2.3612236
  heat_capacity:       7.9855371
  energy:            160.9956922

- temperature:       164.0000000
  free_energy:       160.6083520
  entropy:             2.4611009
  heat_capacity:       8.2958645
  energy:            161.0119726

- temperature:       166.0000000
  free_energy:       160.6033278
  entropy:             2.5635646
  heat_capacity:       8.6120493
  energy:            161.0288795

- temperature:       168.0000000
  free_energy:       160.5980960
  entropy:             2.6686225
  heat_capacity:       8.9340230
  energy:            161.0464246

- temperature:       170.0000000
  free_energy:       160.5926516
  entropy:             2.7762815
  heat_capacity:       9.2617161
  energy:            161.0646194

- temperature:       172.0000000
  free_energy:       160.5869892
  entropy:             2.8865470
  heat_capacity:       9.5950587
  energy:            161.0834753

- temperature:       174.0000000
  free_energy:       160.5811036
  entropy:             2.9994237
  heat_capacity:       9.9339804
  energy:            161.1030034

- temperature:       176.0000000
  free_energy:       160.5749897
  entropy:             3.1149154
  heat_capacity:      10.2784103
  energy:            161.1232149

- temperature:       178.0000000
  free_energy:       160.5686422
  entropy:             3.2330247
  heat_capacity:      10.6282776
  energy:            161.1441206

- temperature:       180.0000000
  free_energy:       160.5620559
  entropy:             3.3537536
  heat_capacity:      10.9835109
  energy:            161.1657315

- temperature:       182.0000000
  free_energy:       160.5552255
  entropy:             3.4771030
  heat_capacity:      11.3440390
  energy:            161.1880582

- temperature:       184.0000000
  free_energy:       160.5481457
  entropy:             3.6030731
  heat_capacity:      11.7097909
  energy:            161.2111112

- temperature:       186.0000000
  free_energy:       160.5408114
  entropy:             3.7316633
  heat_capacity:      12.0806953
  energy:            161.2349008

- temperature:       188.0000000
  free_energy:       160.5332173
  entropy:             3.8628724
  heat_capacity:      12.4566813
  energy:            161.2594374

- temperature:       190.0000000
  free_energy:       160.5253582
  entropy:             3.9966983
  heat_capacity:      12.8376780
  energy:            161.2847309

- temperature:       192.0000000
  free_energy:       160.5172288
  entropy:             4.1331383
  heat_capacity:      13.2236147
  energy:            161.3107914

- temperature:       194.0000000
  free_energy:       160.5088239
  entropy:             4.2721891
  heat_capacity:      13.6144210
  energy:            161.3376286

- temperature:       196.0000000
  free_energy:       160.5001383
  entropy:             4.4138466
  heat_capacity:      14.0100266
  energy:            161.3652522

- temperature:       198.0000000
  free_energy:       160.4911668
  entropy:             4.5581063
  heat_capacity:      14.4103616
  energy:            161.3936718

- temperature:       200.0000000
  free_energy:       160.4819042
  entropy:             4.7049632
  heat_capacity:      14.8153561
  energy:            161.4228968

- temperature:       202.0000000
  free_energy:       160.4723452
  entropy:             4.8544115
  heat_capacity:      15.2249407
  energy:            161.4529363

- temperature:       204.0000000
  free_energy:       160.4624848
  entropy:             5.0064450
  heat_capacity:      15.6390459
  energy:            161.4837996

- temperature:       206.0000000
  free_energy:       160.4523177
  entropy:             5.1610571
  heat_capacity:      16.0576028
  energy:            161.5154955

- temperature:       208.0000000
  free_energy:       160.4418388
  entropy:             5.3182407
  heat_capacity:      16.4805422
  energy:            161.5480329

- temperature:       210.0000000
  free_energy:       160.4310430
  entropy:             5.4779880
  heat_capacity:      16.9077957
  energy:            161.5814205

- temperature:       212.0000000
  free_energy:       160.4199252
  entropy:             5.6402912
  heat_capacity:      17.3392945
  energy:            161.6156669

- temperature:       214.0000000
  free_energy:       160.4084802
  entropy:             5.8051417
  heat_capacity:      17.7749704
  energy:            161.6507805

- temperature:       216.0000000
  free_energy:       160.3967029
  entropy:             5.9725306
  heat_capacity:      18.2147549
  energy:            161.6867695

- temperature:       218.0000000
  free_energy:       160.3845884
  entropy:             6.1424488
  heat_capacity:      18.6585801
  energy:            161.7236422

- temperature:       220.0000000
  free_energy:       160.3721315
  entropy:             6.3148866
  heat_capacity:      19.1063779
  energy:            161.7614065

- temperature:       222.0000000
  free_energy:       160.3593271
  entropy:             6.4898341
  heat_capacity:      19.5580804
  energy:            161.8000703

- temperature:       224.0000000
  free_energy:       160.3461705
  entropy:             6.6672810
  heat_capacity:      20.0136197
  energy:            161.8396414

- temperature:       226.0000000
  free_energy:       160.3326564
  entropy:             6.8472166
  heat_capacity:      20.4729279
  energy:            161.8801273

- temperature:       228.0000000
  free_energy:       160.3187799
  entropy:             7.0296300
  heat_capacity:      20.9359374
  energy:            161.9215356

- temperature:       230.0000000
  free_energy:       160.3045362
  entropy:             7.2145099
  heat_capacity:      21.4025803
  energy:            161.9638735

- temperature:       232.0000000
  free_energy:       160.2899203
  entropy:             7.4018449
  heat_capacity:      21.8727891
  energy:            162.0071483

- temperature:       234.0000000
  free_energy:       160.2749272
  entropy:             7.5916230
  heat_capacity:      22.3464960
  energy:            162.0513670

- temperature:       236.0000000
  free_energy:       160.2595521
  entropy:             7.7838322
  heat_capacity:      22.8236332
  energy:            162.0965365

- temperature:       238.0000000
  free_energy:       160.2437903
  entropy:             7.9784601
  heat_capacity:      23.3041332
  energy:            162.1426637

- temperature:       240.0000000
  free_energy:       160.2276367
  entropy:             8.1754940
  heat_capacity:      23.7879281
  energy:            162.1897553

- temperature:       242.0000000
  free_energy:       160.2110867
  entropy:             8.3749212
  heat_capacity:      24.2749502
  energy:            162.2378176

- temperature:       244.0000000
  free_energy:       160.1941354
  entropy:             8.5767285
  heat_capacity:      24.7651319
  energy:            162.2868572

- temperature:       246.0000000
  free_energy:       160.1767782
  entropy:             8.7809025
  heat_capacity:      25.2584053
  energy:            162.3368802

- temperature:       248.0000000
  free_energy:       160.1590102
  entropy:             8.9874297
  heat_capacity:      25.7547027
  energy:            162.3878928

- temperature:       250.0000000
  free_energy:       160.1408269
  entropy:             9.1962963
  heat_capacity:      26.2539563
  energy:            162.4399010

- temperature:       252.0000000
  free_energy:       160.1222235
  entropy:             9.4074883
  heat_capacity:      26.7560983
  energy:            162.4929106

- temperature:       254.0000000
  free_energy:       160.1031954
  entropy:             9.6209915
  heat_capacity:      27.2610609
  energy:            162.5469273

- temperature:       256.0000000
  free_energy:       160.0837380
  entropy:             9.8367915
  heat_capacity:      27.7687762
  energy:            162.6019566

- temperature:       258.0000000
  free_energy:       160.0638467
  entropy:            10.0548737
  heat_capacity:      28.2791767
  energy:            162.6580042

- temperature:       260.0000000
  free_energy:       160.0435170
  entropy:            10.2752234
  heat_capacity:      28.7921944
  energy:            162.7150751

- temperature:       262.0000000
  free_energy:       160.0227443
  entropy:            10.4978255
  heat_capacity:      29.3077617
  energy:            162.7731746

- temperature:       264.0000000
  free_energy:       160.0015242
  entropy:            10.7226651
  heat_capacity:      29.8258109
  energy:            162.8323078

- temperature:       266.0000000
  free_energy:       159.9798522
  entropy:            10.9497266
  heat_capacity:      30.3462744
  energy:            162.8924795

- temperature:       268.0000000
  free_energy:       159.9577238
  entropy:            11.1789948
  heat_capacity:      30.8690847
  energy:            162.9536945

- temperature:       270.0000000
  free_energy:       159.9351348
  entropy:            11.4104540
  heat_capacity:      31.3941744
  energy:            163.0159573

- temperature:       272.0000000
  free_energy:       159.9120806
  entropy:            11.6440884
  heat_capacity:      31.9214761
  energy:            163.0792726

- temperature:       274.0000000
  free_energy:       159.8885570
  entropy:            11.8798822
  heat_capacity:      32.4509227
  energy:            163.1436447

- temperature:       276.0000000
  free_energy:       159.8645596
  entropy:            12.1178192
  heat_capacity:      32.9824470
  energy:            163.2090777

- temperature:       278.0000000
  free_energy:       159.8400843
  entropy:            12.3578832
  heat_capacity:      33.5159822
  energy:            163.2755758

- temperature:       280.0000000
  free_energy:       159.8151267
  entropy:            12.6000580
  heat_capacity:      34.0514616
  energy:            163.3431429

- temperature:       282.0000000
  free_energy:       159.7896826
  entropy:            12.8443272
  heat_capacity:      34.5888186
  energy:            163.4117829

- temperature:       284.0000000
  free_energy:       159.7637480
  entropy:            13.0906740
  heat_capacity:      35.1279870
  energy:            163.4814994

- temperature:       286.0000000
  free_energy:       159.7373186
  entropy:            13.3390820
  heat_capacity:      35.6689006
  energy:            163.5522960

- temperature:       288.0000000
  free_energy:       159.7103903
  entropy:            13.5895342
  heat_capacity:      36.2114937
  energy:            163.6241761

- temperature:       290.0000000
  free_energy:       159.6829591
  entropy:            13.8420137
  heat_capacity:      36.7557008
  energy:            163.6971431

- temperature:       292.0000000
  free_energy:       159.6550209
  entropy:            14.0965037
  heat_capacity:      37.3014565
  energy:            163.7712000

- temperature:       294.0000000
  free_energy:       159.6265717
  entropy:            14.3529869
  heat_capacity:      37.8486960
  energy:            163.8463499

- temperature:       296.0000000
  free_energy:       159.5976076
  entropy:            14.6114462
  heat_capacity:      38.3973547
  energy:            163.9225957

- temperature:       298.0000000
  free_energy:       159.5681246
  entropy:            14.8718643
  heat_capacity:      38.9473683
  energy:            163.9999402

- temperature:       300.0000000
  free_energy:       159.5381189
  entropy:            15.1342238
  heat_capacity:      39.4986730
  energy:            164.0783860

- temperature:       302.0000000
  free_energy:       159.5075865
  entropy:            15.3985074
  heat_capacity:      40.0512053
  energy:            164.1579357

- temperature:       304.0000000
  free_energy:       159.4765236
  entropy:            15.6646975
  heat_capacity:      40.6049022
  energy:            164.2385916

- temperature:       306.0000000
  free_energy:       159.4449264
  entropy:            15.9327766
  heat_capacity:      41.1597010
  energy:            164.3203561

- temperature:       308.0000000
  free_energy:       159.4127912
  entropy:            16.2027270
  heat_capacity:      41.7155396
  energy:            164.4032311

- temperature:       310.0000000
  free_energy:       159.3801143
  entropy:            16.4745309
  heat_capacity:      42.2723561
  energy:            164.4872189

- temperature:       312.0000000
  free_energy:       159.3468919
  entropy:            16.7481708
  heat_capacity:      42.8300896
  energy:            164.5723212

- temperature:       314.0000000
  free_energy:       159.3131204
  entropy:            17.0236287
  heat_capacity:      43.3886791
  energy:            164.6585398

- temperature:       316.0000000
  free_energy:       159.2787962
  entropy:            17.3008869
  heat_capacity:      43.9480644
  energy:            164.7458764

- temperature:       318.0000000
  free_energy:       159.2439156
  entropy:            17.5799274
  heat_capacity:      44.5081860
  energy:            164.8343325

- temperature:       320.0000000
  free_energy:       159.2084753
  entropy:            17.8607323
  heat_capacity:      45.0689847
  energy:            164.9239096

- temperature:       322.0000000
  free_energy:       159.1724715
  entropy:            18.1432837
  heat_capacity:      45.6304018
  energy:            165.0146089

- temperature:       324.0000000
  free_energy:       159.1359010
  entropy:            18.4275636
  heat_capacity:      46.1923796
  energy:            165.1064316

- temperature:       326.0000000
  free_energy:       159.0987602
  entropy:            18.7135540
  heat_capacity:      46.7548604
  energy:            165.1993787

- temperature:       328.0000000
  free_energy:       159.0610456
  entropy:            19.0012368
  heat_capacity:      47.3177876
  energy:            165.2934513

- temperature:       330.0000000
  free_energy:       159.0227541
  entropy:            19.2905941
  heat_capacity:      47.8811050
  energy:            165.3886502

- temperature:       332.0000000
  free_energy:       158.9838822
  entropy:            19.5816078
  heat_capacity:      48.4447570
  energy:            165.4849760

- temperature:       334.0000000
  free_energy:       158.9444266
  entropy:            19.8742599
  heat_capacity:      49.0086887
  energy:            165.5824294

- temperature:       336.0000000
  free_energy:       158.9043840
  entropy:            20.1685322
  heat_capacity:      49.5728459
  energy:            165.6810109

- temperature:       338.0000000
  free_energy:       158.8637514
  entropy:            20.4644068
  heat_capacity:      50.1371751
  energy:            165.7807209

- temperature:       340.0000000
  free_energy:       158.8225254
  entropy:            20.7618656
  heat_capacity:      50.7016232
  energy:            165.8815597

- temperature:       342.0000000
  free_energy:       158.7807029
  entropy:            21.0608905
  heat_capacity:      51.2661381
  energy:            165.9835274

- temperature:       344.0000000
  free_energy:       158.7382808
  entropy:            21.3614635
  heat_capacity:      51.8306682
  energy:            166.0866242

- temperature:       346.0000000
  free_energy:       158.6952560
  entropy:            21.6635667
  heat_capacity:      52.3951627
  energy:            166.1908501

- temperature:       348.0000000
  free_energy:       158.6516255
  entropy:            21.9671819
  heat_capacity:      52.9595714
  energy:            166.2962048

- temperature:       350.0000000
  free_energy:       158.6073863
  entropy:            22.2722914
  heat_capacity:      53.5238449
  energy:            166.4026883

- temperature:       352.0000000
  free_energy:       158.5625353
  entropy:            22.5788771
  heat_capacity:      54.0879345
  energy:            166.5103001

- temperature:       354.0000000
  free_energy:       158.5170698
  entropy:            22.8869210
  heat_capacity:      54.6517922
  energy:            166.6190398

- temperature:       356.0000000
  free_energy:       158.4709867
  entropy:            23.1964055