<?xml version="1.0" encoding="ISO-8859-1"?>
<modeling>
 <generator>
  <i name="program" type="string">vasp </i>
  <i name="version" type="string">5.4.4.18Apr17-6-g9f103f2a35  </i>
  <i name="subversion" type="string">(build Mar 12 2022 03:36:41) complex            parallel </i>
  <i name="platform" type="string">IFC19.0.3.199_CrayMPICH7.7.19 </i>
  <i name="date" type="string">2022 11 30 </i>
  <i name="time" type="string">13:26:08 </i>
 </generator>
 <incar>
  <i type="string" name="PREC">accurate</i>
  <i type="int" name="IALGO">    38</i>
  <i type="logical" name="ADDGRID"> T  </i>
  <i type="int" name="IBRION">     8</i>
  <i name="EDIFF">      0.00000001</i>
  <i type="logical" name="LREAL"> F  </i>
  <i type="int" name="ISMEAR">     0</i>
  <i name="SIGMA">      0.06000000</i>
  <i type="logical" name="LWAVE"> F  </i>
  <i type="logical" name="LCHARG"> F  </i>
  <v type="int" name="KPOINT_BSE">    -1     0     0     0</v>
 </incar>
 <structure name="primitive_cell" >
  <crystal>
   <varray name="basis" >
    <v>       1.69515950       1.69515950       0.00000000 </v>
    <v>       1.69515950       0.00000000      -1.69515950 </v>
    <v>       0.00000000       1.69515950      -1.69515950 </v>
   </varray>
   <i name="volume">      9.74230449 </i>
   <varray name="rec_basis" >
    <v>       0.29495750       0.29495750       0.29495750 </v>
    <v>       0.29495750      -0.29495750      -0.29495750 </v>
    <v>      -0.29495750       0.29495750      -0.29495750 </v>
   </varray>
  </crystal>
  <varray name="positions" >
   <v>       0.25000000       0.25000000       0.25000000 </v>
   <v>      -0.50000000      -0.50000000      -0.50000000 </v>
  </varray>
 </structure>
 <varray name="primitive_index" >
  <v type="int" >        1 </v>
  <v type="int" >       11 </v>
 </varray>
 <kpoints>
  <generation param="Gamma">
   <v type="int" name="divisions">       8        8        8 </v>
   <v name="usershift">      0.00000000       0.00000000       0.00000000 </v>
   <v name="genvec1">      0.12500000       0.00000000       0.00000000 </v>
   <v name="genvec2">      0.00000000       0.12500000       0.00000000 </v>
   <v name="genvec3">      0.00000000       0.00000000       0.12500000 </v>
   <v name="shift">      0.00000000       0.00000000       0.00000000 </v>
  </generation>
  <varray name="kpointlist" >
   <v>       0.00000000       0.00000000       0.00000000 </v>
   <v>       0.12500000       0.00000000       0.00000000 </v>
   <v>       0.25000000       0.00000000       0.00000000 </v>
   <v>       0.37500000       0.00000000       0.00000000 </v>
   <v>       0.50000000       0.00000000       0.00000000 </v>
   <v>       0.12500000       0.12500000       0.00000000 </v>
   <v>       0.25000000       0.12500000       0.00000000 </v>
   <v>       0.37500000       0.12500000       0.00000000 </v>
   <v>       0.50000000       0.12500000       0.00000000 </v>
   <v>       0.25000000       0.25000000       0.00000000 </v>
   <v>       0.37500000       0.25000000       0.00000000 </v>
   <v>       0.50000000       0.25000000       0.00000000 </v>
   <v>       0.37500000       0.37500000       0.00000000 </v>
   <v>       0.50000000       0.37500000       0.00000000 </v>
   <v>       0.50000000       0.50000000       0.00000000 </v>
   <v>       0.12500000       0.12500000       0.12500000 </v>
   <v>       0.25000000       0.12500000       0.12500000 </v>
   <v>       0.37500000       0.12500000       0.12500000 </v>
   <v>       0.50000000       0.12500000       0.12500000 </v>
   <v>       0.25000000       0.25000000       0.12500000 </v>
   <v>       0.37500000       0.25000000       0.12500000 </v>
   <v>       0.50000000       0.25000000       0.12500000 </v>
   <v>       0.37500000       0.37500000       0.12500000 </v>
   <v>       0.50000000       0.37500000       0.12500000 </v>
   <v>       0.50000000       0.50000000       0.12500000 </v>
   <v>       0.25000000       0.25000000       0.25000000 </v>
   <v>       0.37500000       0.25000000       0.25000000 </v>
   <v>       0.50000000       0.25000000       0.25000000 </v>
   <v>       0.37500000       0.37500000       0.25000000 </v>
   <v>       0.50000000       0.37500000       0.25000000 </v>
   <v>       0.50000000       0.50000000       0.25000000 </v>
   <v>       0.37500000       0.37500000       0.37500000 </v>
   <v>       0.50000000       0.37500000       0.37500000 </v>
   <v>       0.50000000       0.50000000       0.37500000 </v>
   <v>       0.50000000       0.50000000       0.50000000 </v>
  </varray>
  <varray name="weights" >
   <v>       0.00195312 </v>
   <v>       0.01171875 </v>
   <v>       0.01171875 </v>
   <v>       0.01171875 </v>
   <v>       0.00585938 </v>
   <v>       0.02343750 </v>
   <v>       0.04687500 </v>
   <v>       0.04687500 </v>
   <v>       0.02343750 </v>
   <v>       0.02343750 </v>
   <v>       0.04687500 </v>
   <v>       0.02343750 </v>
   <v>       0.02343750 </v>
   <v>       0.02343750 </v>
   <v>       0.00585938 </v>
   <v>       0.01562500 </v>
   <v>       0.04687500 </v>
   <v>       0.04687500 </v>
   <v>       0.02343750 </v>
   <v>       0.04687500 </v>
   <v>       0.09375000 </v>
   <v>       0.04687500 </v>
   <v>       0.04687500 </v>
   <v>       0.04687500 </v>
   <v>       0.01171875 </v>
   <v>       0.01562500 </v>
   <v>       0.04687500 </v>
   <v>       0.02343750 </v>
   <v>       0.04687500 </v>
   <v>       0.04687500 </v>
   <v>       0.01171875 </v>
   <v>       0.01562500 </v>
   <v>       0.02343750 </v>
   <v>       0.01171875 </v>
   <v>       0.00195312 </v>
  </varray>
 </kpoints>
 <parameters>
  <separator name="general" >
   <i type="string" name="SYSTEM">unknown system</i>
   <i type="logical" name="LCOMPAT"> F  </i>
  </separator>
  <separator name="electronic" >
   <i type="string" name="PREC">accura</i>
   <i name="ENMAX">    400.00000000</i>
   <i name="ENAUG">    644.87300000</i>
   <i name="EDIFF">      0.00000001</i>
   <i type="int" name="IALGO">    38</i>
   <i type="int" name="IWAVPR">    11</i>
   <i type="int" name="NBANDS">   192</i>
   <i name="NELECT">    256.00000000</i>
   <i type="int" name="TURBO">     0</i>
   <i type="int" name="IRESTART">     0</i>
   <i type="int" name="NREBOOT">     0</i>
   <i type="int" name="NMIN">     0</i>
   <i name="EREF">      0.00000000</i>
   <separator name="electronic smearing" >
    <i type="int" name="ISMEAR">     0</i>
    <i name="SIGMA">      0.06000000</i>
    <i name="KSPACING">      0.50000000</i>
    <i type="logical" name="KGAMMA"> T  </i>
   </separator>
   <separator name="electronic projectors" >
    <i type="logical" name="LREAL"> F  </i>
    <v name="ROPT">      0.00000000</v>
    <i type="int" name="LMAXPAW">  -100</i>
    <i type="int" name="LMAXMIX">     2</i>
    <i type="logical" name="NLSPLINE"> F  </i>
   </separator>
   <separator name="electronic startup" >
    <i type="int" name="ISTART">     0</i>
    <i type="int" name="ICHARG">     2</i>
    <i type="int" name="INIWAV">     1</i>
   </separator>
   <separator name="electronic spin" >
    <i type="int" name="ISPIN">     1</i>
    <i type="logical" name="LNONCOLLINEAR"> F  </i>
    <v name="MAGMOM">      1.00000000      1.00000000      1.00000000      1.00000000      1.00000000      1.00000000      1.00000000      1.00000000      1.00000000      1.00000000      1.00000000      1.00000000      1.00000000      1.00000000      1.00000000      1.00000000      1.00000000      1.00000000      1.00000000      1.00000000
      1.00000000      1.00000000      1.00000000      1.00000000      1.00000000      1.00000000      1.00000000      1.00000000      1.00000000      1.00000000      1.00000000      1.00000000      1.00000000      1.00000000      1.00000000      1.00000000      1.00000000      1.00000000      1.00000000      1.00000000
      1.00000000      1.00000000      1.00000000      1.00000000      1.00000000      1.00000000      1.00000000      1.00000000      1.00000000      1.00000000      1.00000000      1.00000000      1.00000000      1.00000000      1.00000000      1.00000000      1.00000000      1.00000000      1.00000000      1.00000000
      1.00000000      1.00000000      1.00000000      1.00000000</v>
    <i name="NUPDOWN">     -1.00000000</i>
    <i type="logical" name="LSORBIT"> F  </i>
    <v name="SAXIS">      0.00000000      0.00000000      1.00000000</v>
    <i type="logical" name="LSPIRAL"> F  </i>
    <v name="QSPIRAL">      0.00000000      0.00000000      0.00000000</v>
    <i type="logical" name="LZEROZ"> F  </i>
   </separator>
   <separator name="electronic exchange-correlation" >
    <i type="logical" name="LASPH"> F  </i>
    <i type="logical" name="LMETAGGA"> F  </i>
   </separator>
   <separator name="electronic convergence" >
    <i type="int" name="NELM">    60</i>
    <i type="int" name="NELMDL">     0</i>
    <i type="int" name="NELMIN">     2</i>
    <i name="ENINI">    400.00000000</i>
    <separator name="electronic convergence detail" >
     <i type="logical" name="LDIAG"> T  </i>
     <i type="logical" name="LSUBROT"> F  </i>
     <i name="WEIMIN">      0.00100000</i>
     <i name="EBREAK">      0.00000000</i>
     <i name="DEPER">      0.30000000</i>
     <i type="int" name="NRMM">     4</i>
     <i name="TIME">      0.40000000</i>
    </separator>
   </separator>
   <separator name="electronic mixer" >
    <i name="AMIX">      0.40000000</i>
    <i name="BMIX">      1.00000000</i>
    <i name="AMIN">      0.10000000</i>
    <i name="AMIX_MAG">      1.60000000</i>
    <i name="BMIX_MAG">      1.00000000</i>
    <separator name="electronic mixer details" >
     <i type="int" name="IMIX">     4</i>
     <i type="logical" name="MIXFIRST"> F  </i>
     <i type="int" name="MAXMIX">   -45</i>
     <i name="WC">    100.00000000</i>
     <i type="int" name="INIMIX">     1</i>
     <i type="int" name="MIXPRE">     1</i>
     <i type="int" name="MREMOVE">     5</i>
    </separator>
   </separator>
   <separator name="electronic dipolcorrection" >
    <i type="logical" name="LDIPOL"> F  </i>
    <i type="logical" name="LMONO"> F  </i>
    <i type="int" name="IDIPOL">     0</i>
    <i name="EPSILON">      1.00000000</i>
    <v name="DIPOL">   -100.00000000   -100.00000000   -100.00000000</v>
    <i name="EFIELD">      0.00000000</i>
   </separator>
  </separator>
  <separator name="grids" >
   <i type="int" name="NGX">    48</i>
   <i type="int" name="NGY">    48</i>
   <i type="int" name="NGZ">    48</i>
   <i type="int" name="NGXF">    96</i>
   <i type="int" name="NGYF">    96</i>
   <i type="int" name="NGZF">    96</i>
   <i type="logical" name="ADDGRID"> T  </i>
  </separator>
  <separator name="ionic" >
   <i type="int" name="NSW">     1</i>
   <i type="int" name="IBRION">     8</i>
   <i type="int" name="MDALGO">     0</i>
   <i type="int" name="ISIF">     2</i>
   <i name="PSTRESS">      0.00000000</i>
   <i name="EDIFFG">      0.00000010</i>
   <i type="int" name="NFREE">     0</i>
   <i name="POTIM">      0.50000000</i>
   <i name="SMASS">     -3.00000000</i>
   <i name="SCALEE">      1.00000000</i>
  </separator>
  <separator name="ionic md" >
   <i name="TEBEG">      0.00010000</i>
   <i name="TEEND">      0.00010000</i>
   <i type="int" name="NBLOCK">     1</i>
   <i type="int" name="KBLOCK">     1</i>
   <i type="int" name="NPACO">   256</i>
   <i name="APACO">     16.00000000</i>
  </separator>
  <separator name="symmetry" >
   <i type="int" name="ISYM">     2</i>
   <i name="SYMPREC">      0.00001000</i>
  </separator>
  <separator name="dos" >
   <i type="int" name="LORBIT">     0</i>
   <v name="RWIGS">     -1.00000000</v>
   <i type="int" name="NEDOS">   301</i>
   <i name="EMIN">     10.00000000</i>
   <i name="EMAX">    -10.00000000</i>
   <i name="EFERMI">      0.00000000</i>
  </separator>
  <separator name="writing" >
   <i type="int" name="NWRITE">     2</i>
   <i type="logical" name="LWAVE"> F  </i>
   <i type="logical" name="LDOWNSAMPLE"> F  </i>
   <i type="logical" name="LCHARG"> F  </i>
   <i type="logical" name="LPARD"> F  </i>
   <i type="logical" name="LVTOT"> F  </i>
   <i type="logical" name="LVHAR"> F  </i>
   <i type="logical" name="LELF"> F  </i>
   <i type="logical" name="LOPTICS"> F  </i>
   <v name="STM">      0.00000000      0.00000000      0.00000000      0.00000000      0.00000000      0.00000000      0.00000000</v>
  </separator>
  <separator name="performance" >
   <i type="int" name="NPAR">    32</i>
   <i type="int" name="NSIM">     4</i>
   <i type="int" name="NBLK">    -1</i>
   <i type="logical" name="LPLANE"> T  </i>
   <i type="logical" name="LSCALAPACK"> T  </i>
   <i type="logical" name="LSCAAWARE"> F  </i>
   <i type="logical" name="LSCALU"> F  </i>
   <i type="logical" name="LASYNC"> F  </i>
   <i type="logical" name="LORBITALREAL"> F  </i>
  </separator>
  <separator name="miscellaneous" >
   <i type="int" name="IDIOT">     3</i>
   <i type="int" name="ISPECIAL">     0</i>
   <i type="logical" name="LMUSIC"> F  </i>
   <v name="POMASS">     12.01100000</v>
   <v name="DARWINR">      0.00000000</v>
   <v name="DARWINV">      1.00000000</v>
   <i type="logical" name="LCORR"> T  </i>
  </separator>
  <i type="logical" name="GGA_COMPAT"> T  </i>
  <i type="logical" name="LBERRY"> F  </i>
  <i type="int" name="ICORELEVEL">     0</i>
  <i type="logical" name="LDAU"> F  </i>
  <i type="int" name="I_CONSTRAINED_M">     0</i>
  <separator name="electronic exchange-correlation" >
   <i type="string" name="GGA">--</i>
   <i type="int" name="VOSKOWN">     0</i>
   <i type="logical" name="LHFCALC"> F  </i>
   <i type="string" name="PRECFOCK"></i>
   <i type="logical" name="LSYMGRAD"> F  </i>
   <i type="logical" name="LHFONE"> F  </i>
   <i type="logical" name="LRHFCALC"> F  </i>
   <i type="logical" name="LTHOMAS"> F  </i>
   <i type="logical" name="LMODELHF"> F  </i>
   <i name="ENCUT4O">     -1.00000000</i>
   <i type="int" name="EXXOEP">     0</i>
   <i type="int" name="FOURORBIT">     0</i>
   <i name="AEXX">      0.00000000</i>
   <i name="HFALPHA">      0.00000000</i>
   <i name="MCALPHA">      0.00000000</i>
   <i name="ALDAX">      1.00000000</i>
   <i name="AGGAX">      1.00000000</i>
   <i name="ALDAC">      1.00000000</i>
   <i name="AGGAC">      1.00000000</i>
   <i type="int" name="NKREDX">     1</i>
   <i type="int" name="NKREDY">     1</i>
   <i type="int" name="NKREDZ">     1</i>
   <i type="logical" name="SHIFTRED"> F  </i>
   <i type="logical" name="ODDONLY"> F  </i>
   <i type="logical" name="EVENONLY"> F  </i>
   <i type="int" name="LMAXFOCK">     0</i>
   <i type="int" name="NMAXFOCKAE">     0</i>
   <i type="logical" name="LFOCKAEDFT"> F  </i>
   <i name="HFSCREEN">      0.00000000</i>
   <i name="HFSCREENC">      0.00000000</i>
   <i type="int" name="NBANDSGWLOW">     0</i>
  </separator>
  <separator name="vdW DFT" >
   <i type="logical" name="LUSE_VDW"> F  </i>
   <i name="Zab_VDW">     -0.84910000</i>
   <i name="PARAM1">      0.12340000</i>
   <i name="PARAM2">      1.00000000</i>
   <i name="PARAM3">      0.00000000</i>
  </separator>
  <separator name="model GW" >
   <i type="int" name="MODEL_GW">     0</i>
   <i name="MODEL_EPS0">      2.92269135</i>
   <i name="MODEL_ALPHA">      1.00000000</i>
  </separator>
  <separator name="linear response parameters" >
   <i type="logical" name="LEPSILON"> F  </i>
   <i type="logical" name="LRPA"> F  </i>
   <i type="logical" name="LNABLA"> F  </i>
   <i type="logical" name="LVEL"> F  </i>
   <i type="int" name="KINTER">     0</i>
   <i name="CSHIFT">      0.10000000</i>
   <i name="OMEGAMAX">     -1.00000000</i>
   <i name="DEG_THRESHOLD">      0.00200000</i>
   <i name="RTIME">     -0.10000000</i>
   <i name="WPLASMAI">      0.00000000</i>
   <v name="DFIELD">      0.00000000      0.00000000      0.00000000</v>
   <v name="WPLASMA">      0.00000000      0.00000000      0.00000000      0.00000000      0.00000000      0.00000000      0.00000000      0.00000000      0.00000000</v>
  </separator>
  <separator name="orbital magnetization" >
   <i type="logical" name="NUCIND"> F  </i>
   <v name="MAGPOS">      0.00000000      0.00000000      0.00000000</v>
   <i type="logical" name="LNICSALL"> T  </i>
   <i type="logical" name="ORBITALMAG"> F  </i>
   <i type="logical" name="LMAGBLOCH"> F  </i>
   <i type="logical" name="LCHIMAG"> F  </i>
   <i type="logical" name="LGAUGE"> T  </i>
   <i type="int" name="MAGATOM">     0</i>
   <v name="MAGDIPOL">      0.00000000      0.00000000      0.00000000</v>
   <v name="AVECCONST">      0.00000000      0.00000000      0.00000000</v>
  </separator>
  <separator name="response functions" >
   <i type="logical" name="LADDER"> F  </i>
   <i type="logical" name="LRPAFORCE"> F  </i>
   <i type="logical" name="LFXC"> F  </i>
   <i type="logical" name="LHARTREE"> T  </i>
   <i type="int" name="IBSE">     0</i>
   <v type="int" name="KPOINT">    -1     0     0     0</v>
   <i type="logical" name="LTCTE"> F  </i>
   <i type="logical" name="LTETE"> F  </i>
   <i type="logical" name="LTRIPLET"> F  </i>
   <i type="logical" name="LFXCEPS"> F  </i>
   <i type="logical" name="LFXHEG"> F  </i>
   <i type="int" name="NATURALO">     2</i>
   <i type="logical" name="L2ORDER"> F  </i>
   <i type="logical" name="LMP2LT"> F  </i>
   <i type="logical" name="LUSEW"> F  </i>
   <i name="ENCUTGW">     -2.00000000</i>
   <i name="ENCUTGWSOFT">     -2.00000000</i>
   <i name="ENCUTLF">     -1.00000000</i>
   <i type="int" name="LMAXMP2">    -1</i>
   <i name="SCISSOR">      0.00000000</i>
   <i type="int" name="NOMEGA">     0</i>
   <i type="int" name="NOMEGAR">     0</i>
   <i type="int" name="NBANDSGW">    -1</i>
   <i type="int" name="NBANDSO">    -1</i>
   <i type="int" name="NBANDSV">    -1</i>
   <i type="int" name="NELM">     1</i>
   <i type="int" name="NELMHF">     1</i>
   <i type="int" name="DIM">     3</i>
   <i type="int" name="ANTIRES">     0</i>
   <i name="OMEGAMAX">    -30.00000000</i>
   <i name="OMEGAMIN">    -30.00000000</i>
   <i name="OMEGATL">   -200.00000000</i>
   <i type="int" name="OMEGAGRID">   140</i>
   <i name="CSHIFT">     -0.10000000</i>
   <i type="logical" name="SELFENERGY"> F  </i>
   <i type="logical" name="LSPECTRAL"> F  </i>
   <i type="logical" name="LSPECTRALGW"> F  </i>
   <i type="logical" name="LSINGLES"> F  </i>
   <i type="logical" name="LFERMIGW"> F  </i>
   <i type="logical" name="ODDONLYGW"> F  </i>
   <i type="logical" name="EVENONLYGW"> F  </i>
   <i type="int" name="NKREDLFX">     1</i>
   <i type="int" name="NKREDLFY">     1</i>
   <i type="int" name="NKREDLFZ">     1</i>
   <i type="int" name="MAXMEM">  2800</i>
   <i type="int" name="TELESCOPE">     0</i>
   <i type="int" name="TAUPAR">     1</i>
   <i type="int" name="OMEGAPAR">    -1</i>
   <i name="LAMBDA">      1.00000000</i>
  </separator>
  <separator name="External order field" >
   <i name="OFIELD_KAPPA">      0.00000000</i>
   <v name="OFIELD_K">      0.00000000      0.00000000      0.00000000</v>
   <i name="OFIELD_Q6_NEAR">      0.00000000</i>
   <i name="OFIELD_Q6_FAR">      0.00000000</i>
   <i name="OFIELD_A">      0.00000000</i>
  </separator>
 </parameters>
 <atominfo>
  <atoms>      64 </atoms>
  <types>       1 </types>
  <array name="atoms" >
   <dimension dim="1">ion</dimension>
   <field type="string">element</field>
   <field type="int">atomtype</field>
   <set>
    <rc><c>C </c><c>   1</c></rc>
    <rc><c>C </c><c>   1</c></rc>
    <rc><c>C </c><c>   1</c></rc>
    <rc><c>C </c><c>   1</c></rc>
    <rc><c>C </c><c>   1</c></rc>
    <rc><c>C </c><c>   1</c></rc>
    <rc><c>C </c><c>   1</c></rc>
    <rc><c>C </c><c>   1</c></rc>
    <rc><c>C </c><c>   1</c></rc>
    <rc><c>C </c><c>   1</c></rc>
    <rc><c>C </c><c>   1</c></rc>
    <rc><c>C </c><c>   1</c></rc>
    <rc><c>C </c><c>   1</c></rc>
    <rc><c>C </c><c>   1</c></rc>
    <rc><c>C </c><c>   1</c></rc>
    <rc><c>C </c><c>   1</c></rc>
    <rc><c>C </c><c>   1</c></rc>
    <rc><c>C </c><c>   1</c></rc>
    <rc><c>C </c><c>   1</c></rc>
    <rc><c>C </c><c>   1</c></rc>
    <rc><c>C </c><c>   1</c></rc>
    <rc><c>C </c><c>   1</c></rc>
    <rc><c>C </c><c>   1</c></rc>
    <rc><c>C </c><c>   1</c></rc>
    <rc><c>C </c><c>   1</c></rc>
    <rc><c>C </c><c>   1</c></rc>
    <rc><c>C </c><c>   1</c></rc>
    <rc><c>C </c><c>   1</c></rc>
    <rc><c>C </c><c>   1</c></rc>
    <rc><c>C </c><c>   1</c></rc>
    <rc><c>C </c><c>   1</c></rc>
    <rc><c>C </c><c>   1</c></rc>
    <rc><c>C </c><c>   1</c></rc>
    <rc><c>C </c><c>   1</c></rc>
    <rc><c>C </c><c>   1</c></rc>
    <rc><c>C </c><c>   1</c></rc>
    <rc><c>C </c><c>   1</c></rc>
    <rc><c>C </c><c>   1</c></rc>
    <rc><c>C </c><c>   1</c></rc>
    <rc><c>C </c><c>   1</c></rc>
    <rc><c>C </c><c>   1</c></rc>
    <rc><c>C </c><c>   1</c></rc>
    <rc><c>C </c><c>   1</c></rc>
    <rc><c>C </c><c>   1</c></rc>
    <rc><c>C </c><c>   1</c></rc>
    <rc><c>C </c><c>   1</c></rc>
    <rc><c>C </c><c>   1</c></rc>
    <rc><c>C </c><c>   1</c></rc>
    <rc><c>C </c><c>   1</c></rc>
    <rc><c>C </c><c>   1</c></rc>
    <rc><c>C </c><c>   1</c></rc>
    <rc><c>C </c><c>   1</c></rc>
    <rc><c>C </c><c>   1</c></rc>
    <rc><c>C </c><c>   1</c></rc>
    <rc><c>C </c><c>   1</c></rc>
    <rc><c>C </c><c>   1</c></rc>
    <rc><c>C </c><c>   1</c></rc>
    <rc><c>C </c><c>   1</c></rc>
    <rc><c>C </c><c>   1</c></rc>
    <rc><c>C </c><c>   1</c></rc>
    <rc><c>C </c><c>   1</c></rc>
    <rc><c>C </c><c>   1</c></rc>
    <rc><c>C </c><c>   1</c></rc>
    <rc><c>C </c><c>   1</c></rc>
   </set>
  </array>
  <array name="atomtypes" >
   <dimension dim="1">type</dimension>
   <field type="int">atomspertype</field>
   <field type="string">element</field>
   <field>mass</field>
   <field>valence</field>
   <field type="string">pseudopotential</field>
   <set>
    <rc><c>  64</c><c>C </c><c>     12.01100000</c><c>      4.00000000</c><c> PAW_PBE C 08Apr2002                    </c></rc>
   </set>
  </array>
 </atominfo>
 <structure name="initialpos" >
  <crystal>
   <varray name="basis" >
    <v>       6.78063800       0.00000000       0.00000000 </v>
    <v>       0.00000000       6.78063800       0.00000000 </v>
    <v>       0.00000000       0.00000000       6.78063800 </v>
   </varray>
   <i name="volume">    311.75374380 </i>
   <varray name="rec_basis" >
    <v>       0.14747875       0.00000000       0.00000000 </v>
    <v>       0.00000000       0.14747875       0.00000000 </v>
    <v>       0.00000000       0.00000000       0.14747875 </v>
   </varray>
  </crystal>
  <varray name="positions" >
   <v>       0.12500000       0.37500000       0.12500000 </v>
   <v>       0.62500000       0.37500000       0.12500000 </v>
   <v>       0.12500000       0.87500000       0.12500000 </v>
   <v>       0.62500000       0.87500000       0.12500000 </v>
   <v>       0.12500000       0.37500000       0.62500000 </v>
   <v>       0.62500000       0.37500000       0.62500000 </v>
   <v>       0.12500000       0.87500000       0.62500000 </v>
   <v>       0.62500000       0.87500000       0.62500000 </v>
   <v>       0.00000000       0.00000000       0.25000000 </v>
   <v>       0.50000000       0.00000000       0.25000000 </v>
   <v>       0.00000000       0.50000000       0.25000000 </v>
   <v>       0.50000000       0.50000000       0.25000000 </v>
   <v>       0.00000000       0.00000000       0.75000000 </v>
   <v>       0.50000000       0.00000000       0.75000000 </v>
   <v>       0.00000000       0.50000000       0.75000000 </v>
   <v>       0.50000000       0.50000000       0.75000000 </v>
   <v>       0.12500000       0.12500000       0.37500000 </v>
   <v>       0.62500000       0.12500000       0.37500000 </v>
   <v>       0.12500000       0.62500000       0.37500000 </v>
   <v>       0.62500000       0.62500000       0.37500000 </v>
   <v>       0.12500000       0.12500000       0.87500000 </v>
   <v>       0.62500000       0.12500000       0.87500000 </v>
   <v>       0.12500000       0.62500000       0.87500000 </v>
   <v>       0.62500000       0.62500000       0.87500000 </v>
   <v>       0.00000000       0.25000000       0.00000000 </v>
   <v>       0.50000000       0.25000000       0.00000000 </v>
   <v>       0.00000000       0.75000000       0.00000000 </v>
   <v>       0.50000000       0.75000000       0.00000000 </v>
   <v>       0.00000000       0.25000000       0.50000000 </v>
   <v>       0.50000000       0.25000000       0.50000000 </v>
   <v>       0.00000000       0.75000000       0.50000000 </v>
   <v>       0.50000000       0.75000000       0.50000000 </v>
   <v>       0.37500000       0.37500000       0.37500000 </v>
   <v>       0.87500000       0.37500000       0.37500000 </v>
   <v>       0.37500000       0.87500000       0.37500000 </v>
   <v>       0.87500000       0.87500000       0.37500000 </v>
   <v>       0.37500000       0.37500000       0.87500000 </v>
   <v>       0.87500000       0.37500000       0.87500000 </v>
   <v>       0.37500000       0.87500000       0.87500000 </v>
   <v>       0.87500000       0.87500000       0.87500000 </v>
   <v>       0.25000000       0.00000000       0.00000000 </v>
   <v>       0.75000000       0.00000000       0.00000000 </v>
   <v>       0.25000000       0.50000000       0.00000000 </v>
   <v>       0.75000000       0.50000000       0.00000000 </v>
   <v>       0.25000000       0.00000000       0.50000000 </v>
   <v>       0.75000000       0.00000000       0.50000000 </v>
   <v>       0.25000000       0.50000000       0.50000000 </v>
   <v>       0.75000000       0.50000000       0.50000000 </v>
   <v>       0.37500000       0.12500000       0.12500000 </v>
   <v>       0.87500000       0.12500000       0.12500000 </v>
   <v>       0.37500000       0.62500000       0.12500000 </v>
   <v>       0.87500000       0.62500000       0.12500000 </v>
   <v>       0.37500000       0.12500000       0.62500000 </v>
   <v>       0.87500000       0.12500000       0.62500000 </v>
   <v>       0.37500000       0.62500000       0.62500000 </v>
   <v>       0.87500000       0.62500000       0.62500000 </v>
   <v>       0.25000000       0.25000000       0.25000000 </v>
   <v>       0.75000000       0.25000000       0.25000000 </v>
   <v>       0.25000000       0.75000000       0.25000000 </v>
   <v>       0.75000000       0.75000000       0.25000000 </v>
   <v>       0.25000000       0.25000000       0.75000000 </v>
   <v>       0.75000000       0.25000000       0.75000000 </v>
   <v>       0.25000000       0.75000000       0.75000000 </v>
   <v>       0.75000000       0.75000000       0.75000000 </v>
  </varray>
 </structure>
 <calculation>
  <scstep>
   <time name="dav">   20.06   20.07</time>
   <time name="total">   20.17   20.30</time>
   <energy>
    <i name="alphaZ">   1070.53326026 </i>
    <i name="ewald"> -11714.29729139 </i>
    <i name="hartreedc">   -462.25387441 </i>
    <i name="XCdc">    947.66342890 </i>
    <i name="pawpsdc">   2421.21235816 </i>
    <i name="pawaedc">  -2494.84305711 </i>
    <i name="eentropy">     -0.00635928 </i>
    <i name="bandstr">   1357.55506494 </i>
    <i name="atom">   9416.14232778 </i>
    <i name="e_fr_energy">    541.70585783 </i>
    <i name="e_wo_entrp">    541.71221711 </i>
    <i name="e_0_energy">    541.70903747 </i>
   </energy>
  </scstep>
  <scstep>
   <time name="dav">   25.10   25.10</time>
   <time name="total">   25.10   25.10</time>
   <energy>
    <i name="e_fr_energy">   -561.28858294 </i>
    <i name="e_wo_entrp">   -561.28858294 </i>
    <i name="e_0_energy">   -561.28858294 </i>
   </energy>
  </scstep>
  <scstep>
   <time name="dav">   25.39   25.39</time>
   <time name="total">   25.39   25.40</time>
   <energy>
    <i name="e_fr_energy">   -599.43508531 </i>
    <i name="e_wo_entrp">   -599.43508531 </i>
    <i name="e_0_energy">   -599.43508531 </i>
   </energy>
  </scstep>
  <scstep>
   <time name="dav">   25.08   25.09</time>
   <time name="total">   25.09   25.09</time>
   <energy>
    <i name="e_fr_energy">   -599.75592727 </i>
    <i name="e_wo_entrp">   -599.75592727 </i>
    <i name="e_0_energy">   -599.75592727 </i>
   </energy>
  </scstep>
  <scstep>
   <time name="dav">   24.08   24.08</time>
   <time name="total">   24.80   24.80</time>
   <energy>
    <i name="e_fr_energy">   -599.76146469 </i>
    <i name="e_wo_entrp">   -599.76146469 </i>
    <i name="e_0_energy">   -599.76146469 </i>
   </energy>
  </scstep>
  <scstep>
   <time name="dav">   23.00   23.00</time>
   <time name="total">   23.82   23.82</time>
   <energy>
    <i name="e_fr_energy">   -576.44917479 </i>
    <i name="e_wo_entrp">   -576.44917479 </i>
    <i name="e_0_energy">   -576.44917479 </i>
   </energy>
  </scstep>
  <scstep>
   <time name="dav">   23.59   23.59</time>
   <time name="total">   24.41   24.41</time>
   <energy>
    <i name="e_fr_energy">   -568.62676858 </i>
    <i name="e_wo_entrp">   -568.62676858 </i>
    <i name="e_0_energy">   -568.62676858 </i>
   </energy>
  </scstep>
  <scstep>
   <time name="dav">   23.36   23.36</time>
   <time name="total">   24.18   24.19</time>
   <energy>
    <i name="e_fr_energy">   -568.70487265 </i>
    <i name="e_wo_entrp">   -568.70487265 </i>
    <i name="e_0_energy">   -568.70487265 </i>
   </energy>
  </scstep>
  <scstep>
   <time name="dav">   25.18   25.18</time>
   <time name="total">   26.00   26.00</time>
   <energy>
    <i name="e_fr_energy">   -568.70685705 </i>
    <i name="e_wo_entrp">   -568.70685705 </i>
    <i name="e_0_energy">   -568.70685705 </i>
   </energy>
  </scstep>
  <scstep>
   <time name="dav">   23.25   23.25</time>
   <time name="total">   24.08   24.08</time>
   <energy>
    <i name="e_fr_energy">   -568.70723003 </i>
    <i name="e_wo_entrp">   -568.70723003 </i>
    <i name="e_0_energy">   -568.70723003 </i>
   </energy>
  </scstep>
  <scstep>
   <time name="dav">   25.21   25.21</time>
   <time name="total">   26.03   26.03</time>
   <energy>
    <i name="e_fr_energy">   -568.70723848 </i>
    <i name="e_wo_entrp">   -568.70723848 </i>
    <i name="e_0_energy">   -568.70723848 </i>
   </energy>
  </scstep>
  <scstep>
   <time name="dav">   24.33   24.33</time>
   <time name="total">   25.16   25.16</time>
   <energy>
    <i name="e_fr_energy">   -568.70723792 </i>
    <i name="e_wo_entrp">   -568.70723792 </i>
    <i name="e_0_energy">   -568.70723792 </i>
   </energy>
  </scstep>
  <scstep>
   <time name="dav">   20.71   20.71</time>
   <time name="total">   21.54   21.54</time>
   <energy>
    <i name="e_fr_energy">   -568.70723789 </i>
    <i name="e_wo_entrp">   -568.70723789 </i>
    <i name="e_0_energy">   -568.70723789 </i>
   </energy>
  </scstep>
  <scstep>
   <time name="dav">   18.11   18.11</time>
   <time name="total">   18.93   18.93</time>
   <energy>
    <i name="e_fr_energy">   -568.70723792 </i>
    <i name="e_wo_entrp">   -568.70723792 </i>
    <i name="e_0_energy">   -568.70723792 </i>
   </energy>
  </scstep>
  <scstep>
   <time name="dav">   17.69   17.69</time>
   <time name="total">   17.79   17.79</time>
   <energy>
    <i name="alphaZ">   1070.53326026 </i>
    <i name="ewald"> -11714.29729139 </i>
    <i name="hartreedc">   -778.04988789 </i>
    <i name="XCdc">    977.79897247 </i>
    <i name="pawpsdc">   4930.79112438 </i>
    <i name="pawaedc">  -5015.28717773 </i>
    <i name="eentropy">     -0.00000000 </i>
    <i name="bandstr">    543.66143420 </i>
    <i name="atom">   9416.14232778 </i>
    <i name="e_fr_energy">   -568.70723792 </i>
    <i name="e_wo_entrp">   -568.70723792 </i>
    <i name="e_0_energy">   -568.70723792 </i>
   </energy>
  </scstep>
  <structure>
   <crystal>
    <varray name="basis" >
     <v>       6.78063800       0.00000000       0.00000000 </v>
     <v>       0.00000000       6.78063800       0.00000000 </v>
     <v>       0.00000000       0.00000000       6.78063800 </v>
    </varray>
    <i name="volume">    311.75374380 </i>
    <varray name="rec_basis" >
     <v>       0.14747875       0.00000000       0.00000000 </v>
     <v>       0.00000000       0.14747875       0.00000000 </v>
     <v>       0.00000000       0.00000000       0.14747875 </v>
    </varray>
   </crystal>
   <varray name="positions" >
    <v>       0.12500000       0.37500000       0.12500000 </v>
    <v>       0.62500000       0.37500000       0.12500000 </v>
    <v>       0.12500000       0.87500000       0.12500000 </v>
    <v>       0.62500000       0.87500000       0.12500000 </v>
    <v>       0.12500000       0.37500000       0.62500000 </v>
    <v>       0.62500000       0.37500000       0.62500000 </v>
    <v>       0.12500000       0.87500000       0.62500000 </v>
    <v>       0.62500000       0.87500000       0.62500000 </v>
    <v>       0.00000000       0.00000000       0.25000000 </v>
    <v>       0.50000000       0.00000000       0.25000000 </v>
    <v>       0.00000000       0.50000000       0.25000000 </v>
    <v>       0.50000000       0.50000000       0.25000000 </v>
    <v>       0.00000000       0.00000000       0.75000000 </v>
    <v>       0.50000000       0.00000000       0.75000000 </v>
    <v>       0.00000000       0.50000000       0.75000000 </v>
    <v>       0.50000000       0.50000000       0.75000000 </v>
    <v>       0.12500000       0.12500000       0.37500000 </v>
    <v>       0.62500000       0.12500000       0.37500000 </v>
    <v>       0.12500000       0.62500000       0.37500000 </v>
    <v>       0.62500000       0.62500000       0.37500000 </v>
    <v>       0.12500000       0.12500000       0.87500000 </v>
    <v>       0.62500000       0.12500000       0.87500000 </v>
    <v>       0.12500000       0.62500000       0.87500000 </v>
    <v>       0.62500000       0.62500000       0.87500000 </v>
    <v>       0.00000000       0.25000000       0.00000000 </v>
    <v>       0.50000000       0.25000000       0.00000000 </v>
    <v>       0.00000000       0.75000000       0.00000000 </v>
    <v>       0.50000000       0.75000000       0.00000000 </v>
    <v>       0.00000000       0.25000000       0.50000000 </v>
    <v>       0.50000000       0.25000000       0.50000000 </v>
    <v>       0.00000000       0.75000000       0.50000000 </v>
    <v>       0.50000000       0.75000000       0.50000000 </v>
    <v>       0.37500000       0.37500000       0.37500000 </v>
    <v>       0.87500000       0.37500000       0.37500000 </v>
    <v>       0.37500000       0.87500000       0.37500000 </v>
    <v>       0.87500000       0.87500000       0.37500000 </v>
    <v>       0.37500000       0.37500000       0.87500000 </v>
    <v>       0.87500000       0.37500000       0.87500000 </v>
    <v>       0.37500000       0.87500000       0.87500000 </v>
    <v>       0.87500000       0.87500000       0.87500000 </v>
    <v>       0.25000000       0.00000000       0.00000000 </v>
    <v>       0.75000000       0.00000000       0.00000000 </v>
    <v>       0.25000000       0.50000000       0.00000000 </v>
    <v>       0.75000000       0.50000000       0.00000000 </v>
    <v>       0.25000000       0.00000000       0.50000000 </v>
    <v>       0.75000000       0.00000000       0.50000000 </v>
    <v>       0.25000000       0.50000000       0.50000000 </v>
    <v>       0.75000000       0.50000000       0.50000000 </v>
    <v>       0.37500000       0.12500000       0.12500000 </v>
    <v>       0.87500000       0.12500000       0.12500000 </v>
    <v>       0.37500000       0.62500000       0.12500000 </v>
    <v>       0.87500000       0.62500000       0.12500000 </v>
    <v>       0.37500000       0.12500000       0.62500000 </v>
    <v>       0.87500000       0.12500000       0.62500000 </v>
    <v>       0.37500000       0.62500000       0.62500000 </v>
    <v>       0.87500000       0.62500000       0.62500000 </v>
    <v>       0.25000000       0.25000000       0.25000000 </v>
    <v>       0.75000000       0.25000000       0.25000000 </v>
    <v>       0.25000000       0.75000000       0.25000000 </v>
    <v>       0.75000000       0.75000000       0.25000000 </v>
    <v>       0.25000000       0.25000000       0.75000000 </v>
    <v>       0.75000000       0.25000000       0.75000000 </v>
    <v>       0.25000000       0.75000000       0.75000000 </v>
    <v>       0.75000000       0.75000000       0.75000000 </v>
   </varray>
  </structure>
  <varray name="forces" >
   <v>      -0.00000000       0.00000000      -0.00000000 </v>
   <v>      -0.00000000       0.00000000      -0.00000000 </v>
   <v>      -0.00000000      -0.00000000      -0.00000000 </v>
   <v>      -0.00000000      -0.00000000       0.00000000 </v>
   <v>      -0.00000000       0.00000000      -0.00000000 </v>
   <v>      -0.00000000      -0.00000000       0.00000000 </v>
   <v>      -0.00000000      -0.00000000      -0.00000000 </v>
   <v>      -0.00000000       0.00000000      -0.00000000 </v>
   <v>       0.00000000      -0.00000000       0.00000000 </v>
   <v>       0.00000000       0.00000000      -0.00000000 </v>
   <v>       0.00000000       0.00000000      -0.00000000 </v>
   <v>       0.00000000      -0.00000000       0.00000000 </v>
   <v>       0.00000000      -0.00000000       0.00000000 </v>
   <v>       0.00000000       0.00000000       0.00000000 </v>
   <v>       0.00000000       0.00000000       0.00000000 </v>
   <v>       0.00000000      -0.00000000       0.00000000 </v>
   <v>      -0.00000000      -0.00000000      -0.00000000 </v>
   <v>      -0.00000000      -0.00000000       0.00000000 </v>
   <v>      -0.00000000      -0.00000000      -0.00000000 </v>
   <v>      -0.00000000      -0.00000000      -0.00000000 </v>
   <v>      -0.00000000       0.00000000      -0.00000000 </v>
   <v>      -0.00000000       0.00000000      -0.00000000 </v>
   <v>      -0.00000000       0.00000000      -0.00000000 </v>
   <v>      -0.00000000      -0.00000000      -0.00000000 </v>
   <v>       0.00000000      -0.00000000      -0.00000000 </v>
   <v>       0.00000000       0.00000000       0.00000000 </v>
   <v>       0.00000000       0.00000000       0.00000000 </v>
   <v>       0.00000000      -0.00000000      -0.00000000 </v>
   <v>       0.00000000       0.00000000       0.00000000 </v>
   <v>       0.00000000      -0.00000000       0.00000000 </v>
   <v>       0.00000000       0.00000000       0.00000000 </v>
   <v>       0.00000000      -0.00000000       0.00000000 </v>
   <v>      -0.00000000      -0.00000000      -0.00000000 </v>
   <v>      -0.00000000      -0.00000000      -0.00000000 </v>
   <v>      -0.00000000      -0.00000000      -0.00000000 </v>
   <v>      -0.00000000      -0.00000000      -0.00000000 </v>
   <v>      -0.00000000       0.00000000       0.00000000 </v>
   <v>      -0.00000000       0.00000000      -0.00000000 </v>
   <v>      -0.00000000       0.00000000      -0.00000000 </v>
   <v>      -0.00000000      -0.00000000      -0.00000000 </v>
   <v>       0.00000000      -0.00000000       0.00000000 </v>
   <v>       0.00000000      -0.00000000      -0.00000000 </v>
   <v>       0.00000000      -0.00000000      -0.00000000 </v>
   <v>       0.00000000      -0.00000000       0.00000000 </v>
   <v>       0.00000000       0.00000000       0.00000000 </v>
   <v>       0.00000000      -0.00000000       0.00000000 </v>
   <v>       0.00000000      -0.00000000       0.00000000 </v>
   <v>       0.00000000       0.00000000      -0.00000000 </v>
   <v>      -0.00000000      -0.00000000      -0.00000000 </v>
   <v>      -0.00000000      -0.00000000       0.00000000 </v>
   <v>      -0.00000000       0.00000000      -0.00000000 </v>
   <v>      -0.00000000       0.00000000      -0.00000000 </v>
   <v>      -0.00000000       0.00000000      -0.00000000 </v>
   <v>      -0.00000000       0.00000000      -0.00000000 </v>
   <v>      -0.00000000       0.00000000      -0.00000000 </v>
   <v>      -0.00000000      -0.00000000      -0.00000000 </v>
   <v>       0.00000000      -0.00000000       0.00000000 </v>
   <v>       0.00000000       0.00000000      -0.00000000 </v>
   <v>       0.00000000       0.00000000       0.00000000 </v>
   <v>       0.00000000      -0.00000000       0.00000000 </v>
   <v>       0.00000000       0.00000000       0.00000000 </v>
   <v>       0.00000000       0.00000000       0.00000000 </v>
   <v>       0.00000000       0.00000000       0.00000000 </v>
   <v>       0.00000000       0.00000000      -0.00000000 </v>
  </varray>
  <varray name="stress" >
   <v>     874.21453480      -0.00000000       0.00000000 </v>
   <v>       0.00000000     874.21453480       0.00000000 </v>
   <v>      -0.00000000       0.00000000     874.21453480 </v>
  </varray>
  <energy>
   <i name="e_fr_energy">   -568.70723792 </i>
   <i name="e_wo_entrp">   -568.70723792 </i>
   <i name="e_0_energy">     -0.00000000 </i>
  </energy>
  <kpoints>
   <generation param="Gamma">
    <v type="int" name="divisions">       8        8        8 </v>
    <v name="usershift">      0.00000000       0.00000000       0.00000000 </v>
    <v name="genvec1">      0.12500000       0.00000000       0.00000000 </v>
    <v name="genvec2">      0.00000000       0.12500000       0.00000000 </v>
    <v name="genvec3">      0.00000000       0.00000000       0.12500000 </v>
    <v name="shift">      0.00000000       0.00000000       0.00000000 </v>
   </generation>
   <varray name="kpointlist" >
    <v>       0.00000000       0.00000000       0.00000000 </v>
    <v>       0.12500000       0.00000000       0.00000000 </v>
    <v>       0.25000000       0.00000000       0.00000000 </v>
    <v>       0.37500000       0.00000000       0.00000000 </v>
    <v>       0.50000000       0.00000000       0.00000000 </v>
    <v>       0.00000000       0.12500000       0.00000000 </v>
    <v>       0.12500000       0.12500000       0.00000000 </v>
    <v>       0.25000000       0.12500000       0.00000000 </v>
    <v>       0.37500000       0.12500000       0.00000000 </v>
    <v>       0.50000000       0.12500000       0.00000000 </v>
    <v>       0.00000000       0.25000000       0.00000000 </v>
    <v>       0.12500000       0.25000000       0.00000000 </v>
    <v>       0.25000000       0.25000000       0.00000000 </v>
    <v>       0.37500000       0.25000000       0.00000000 </v>
    <v>       0.50000000       0.25000000       0.00000000 </v>
    <v>       0.00000000       0.37500000       0.00000000 </v>
    <v>       0.12500000       0.37500000       0.00000000 </v>
    <v>       0.25000000       0.37500000       0.00000000 </v>
    <v>       0.37500000       0.37500000       0.00000000 </v>
    <v>       0.50000000       0.37500000       0.00000000 </v>
    <v>       0.00000000       0.50000000       0.00000000 </v>
    <v>       0.12500000       0.50000000       0.00000000 </v>
    <v>       0.25000000       0.50000000       0.00000000 </v>
    <v>       0.37500000       0.50000000       0.00000000 </v>
    <v>       0.50000000       0.50000000       0.00000000 </v>
    <v>       0.00000000       0.12500000       0.12500000 </v>
    <v>       0.12500000       0.12500000       0.12500000 </v>
    <v>       0.25000000       0.12500000       0.12500000 </v>
    <v>       0.37500000       0.12500000       0.12500000 </v>
    <v>       0.50000000       0.12500000       0.12500000 </v>
    <v>       0.00000000       0.25000000       0.12500000 </v>
    <v>       0.12500000       0.25000000       0.12500000 </v>
    <v>       0.25000000       0.25000000       0.12500000 </v>
    <v>       0.37500000       0.25000000       0.12500000 </v>
    <v>       0.50000000       0.25000000       0.12500000 </v>
    <v>       0.00000000       0.37500000       0.12500000 </v>
    <v>       0.12500000       0.37500000       0.12500000 </v>
    <v>       0.25000000       0.37500000       0.12500000 </v>
    <v>       0.37500000       0.37500000       0.12500000 </v>
    <v>       0.50000000       0.37500000       0.12500000 </v>
    <v>       0.00000000       0.50000000       0.12500000 </v>
    <v>       0.12500000       0.50000000       0.12500000 </v>
    <v>       0.25000000       0.50000000       0.12500000 </v>
    <v>       0.37500000       0.50000000       0.12500000 </v>
    <v>       0.50000000       0.50000000       0.12500000 </v>
    <v>       0.00000000      -0.37500000       0.12500000 </v>
    <v>       0.12500000      -0.37500000       0.12500000 </v>
    <v>       0.25000000      -0.37500000       0.12500000 </v>
    <v>       0.37500000      -0.37500000       0.12500000 </v>
    <v>       0.50000000      -0.37500000       0.12500000 </v>
    <v>       0.00000000      -0.25000000       0.12500000 </v>
    <v>       0.12500000      -0.25000000       0.12500000 </v>
    <v>       0.25000000      -0.25000000       0.12500000 </v>
    <v>       0.37500000      -0.25000000       0.12500000 </v>
    <v>       0.50000000      -0.25000000       0.12500000 </v>
    <v>       0.00000000      -0.12500000       0.12500000 </v>
    <v>       0.12500000      -0.12500000       0.12500000 </v>
    <v>       0.25000000      -0.12500000       0.12500000 </v>
    <v>       0.37500000      -0.12500000       0.12500000 </v>
    <v>       0.50000000      -0.12500000       0.12500000 </v>
    <v>       0.00000000       0.25000000       0.25000000 </v>
    <v>       0.12500000       0.25000000       0.25000000 </v>
    <v>       0.25000000       0.25000000       0.25000000 </v>
    <v>       0.37500000       0.25000000       0.25000000 </v>
    <v>       0.50000000       0.25000000       0.25000000 </v>
    <v>       0.00000000       0.37500000       0.25000000 </v>
    <v>       0.12500000       0.37500000       0.25000000 </v>
    <v>       0.25000000       0.37500000       0.25000000 </v>
    <v>       0.37500000       0.37500000       0.25000000 </v>
    <v>       0.50000000       0.37500000       0.25000000 </v>
    <v>       0.00000000       0.50000000       0.25000000 </v>
    <v>       0.12500000       0.50000000       0.25000000 </v>
    <v>       0.25000000       0.50000000       0.25000000 </v>
    <v>       0.37500000       0.50000000       0.25000000 </v>
    <v>       0.50000000       0.50000000       0.25000000 </v>
    <v>       0.00000000      -0.37500000       0.25000000 </v>
    <v>       0.12500000      -0.37500000       0.25000000 </v>
    <v>       0.25000000      -0.37500000       0.25000000 </v>
    <v>       0.37500000      -0.37500000       0.25000000 </v>
    <v>       0.50000000      -0.37500000       0.25000000 </v>
    <v>       0.00000000      -0.25000000       0.25000000 </v>
    <v>       0.12500000      -0.25000000       0.25000000 </v>
    <v>       0.25000000      -0.25000000       0.25000000 </v>
    <v>       0.37500000      -0.25000000       0.25000000 </v>
    <v>       0.50000000      -0.25000000       0.25000000 </v>
    <v>       0.00000000       0.37500000       0.37500000 </v>
    <v>       0.12500000       0.37500000       0.37500000 </v>
    <v>       0.25000000       0.37500000       0.37500000 </v>
    <v>       0.37500000       0.37500000       0.37500000 </v>
    <v>       0.50000000       0.37500000       0.37500000 </v>
    <v>       0.00000000       0.50000000       0.37500000 </v>
    <v>       0.12500000       0.50000000       0.37500000 </v>
    <v>       0.25000000       0.50000000       0.37500000 </v>
    <v>       0.37500000       0.50000000       0.37500000 </v>
    <v>       0.50000000       0.50000000       0.37500000 </v>
    <v>       0.00000000      -0.37500000       0.37500000 </v>
    <v>       0.12500000      -0.37500000       0.37500000 </v>
    <v>       0.25000000      -0.37500000       0.37500000 </v>
    <v>       0.37500000      -0.37500000       0.37500000 </v>
    <v>       0.50000000      -0.37500000       0.37500000 </v>
    <v>       0.00000000       0.50000000       0.50000000 </v>
    <v>       0.12500000       0.50000000       0.50000000 </v>
    <v>       0.25000000       0.50000000       0.50000000 </v>
    <v>       0.37500000       0.50000000       0.50000000 </v>
    <v>       0.50000000       0.50000000       0.50000000 </v>
   </varray>
   <varray name="weights" >
    <v>       0.00195312 </v>
    <v>       0.00390625 </v>
    <v>       0.00390625 </v>
    <v>       0.00390625 </v>
    <v>       0.00195312 </v>
    <v>       0.00781250 </v>
    <v>       0.01562500 </v>
    <v>       0.01562500 </v>
    <v>       0.01562500 </v>
    <v>       0.00781250 </v>
    <v>       0.00781250 </v>
    <v>       0.01562500 </v>
    <v>       0.01562500 </v>
    <v>       0.01562500 </v>
    <v>       0.00781250 </v>
    <v>       0.00781250 </v>
    <v>       0.01562500 </v>
    <v>       0.01562500 </v>
    <v>       0.01562500 </v>
    <v>       0.00781250 </v>
    <v>       0.00390625 </v>
    <v>       0.00781250 </v>
    <v>       0.00781250 </v>
    <v>       0.00781250 </v>
    <v>       0.00390625 </v>
    <v>       0.00390625 </v>
    <v>       0.00781250 </v>
    <v>       0.00781250 </v>
    <v>       0.00781250 </v>
    <v>       0.00390625 </v>
    <v>       0.00781250 </v>
    <v>       0.01562500 </v>
    <v>       0.01562500 </v>
    <v>       0.01562500 </v>
    <v>       0.00781250 </v>
    <v>       0.00781250 </v>
    <v>       0.01562500 </v>
    <v>       0.01562500 </v>
    <v>       0.01562500 </v>
    <v>       0.00781250 </v>
    <v>       0.00781250 </v>
    <v>       0.01562500 </v>
    <v>       0.01562500 </v>
    <v>       0.01562500 </v>
    <v>       0.00781250 </v>
    <v>       0.00781250 </v>
    <v>       0.01562500 </v>
    <v>       0.01562500 </v>
    <v>       0.01562500 </v>
    <v>       0.00781250 </v>
    <v>       0.00781250 </v>
    <v>       0.01562500 </v>
    <v>       0.01562500 </v>
    <v>       0.01562500 </v>
    <v>       0.00781250 </v>
    <v>       0.00390625 </v>
    <v>       0.00781250 </v>
    <v>       0.00781250 </v>
    <v>       0.00781250 </v>
    <v>       0.00390625 </v>
    <v>       0.00390625 </v>
    <v>       0.00781250 </v>
    <v>       0.00781250 </v>
    <v>       0.00781250 </v>
    <v>       0.00390625 </v>
    <v>       0.00781250 </v>
    <v>       0.01562500 </v>
    <v>       0.01562500 </v>
    <v>       0.01562500 </v>
    <v>       0.00781250 </v>
    <v>       0.00781250 </v>
    <v>       0.01562500 </v>
    <v>       0.01562500 </v>
    <v>       0.01562500 </v>
    <v>       0.00781250 </v>
    <v>       0.00781250 </v>
    <v>       0.01562500 </v>
    <v>       0.01562500 </v>
    <v>       0.01562500 </v>
    <v>       0.00781250 </v>
    <v>       0.00390625 </v>
    <v>       0.00781250 </v>
    <v>       0.00781250 </v>
    <v>       0.00781250 </v>
    <v>       0.00390625 </v>
    <v>       0.00390625 </v>
    <v>       0.00781250 </v>
    <v>       0.00781250 </v>
    <v>       0.00781250 </v>
    <v>       0.00390625 </v>
    <v>       0.00781250 </v>
    <v>       0.01562500 </v>
    <v>       0.01562500 </v>
    <v>       0.01562500 </v>
    <v>       0.00781250 </v>
    <v>       0.00390625 </v>
    <v>       0.00781250 </v>
    <v>       0.00781250 </v>
    <v>       0.00781250 </v>
    <v>       0.00390625 </v>
    <v>       0.00195312 </v>
    <v>       0.00390625 </v>
    <v>       0.00390625 </v>
    <v>       0.00390625 </v>
    <v>       0.00195312 </v>
   </varray>
  </kpoints>
  <scstep>
   <time name="total">   75.58   75.58</time>
   <energy>
    <i name="e_fr_energy">   -393.00361188 </i>
    <i name="e_wo_entrp">   -393.00361188 </i>
    <i name="e_0_energy">   -393.00361188 </i>
   </energy>
  </scstep>
  <scstep>
   <time name="total">   54.64   54.65</time>
   <energy>
    <i name="e_fr_energy">   -327.07521607 </i>
    <i name="e_wo_entrp">   -327.07521607 </i>
    <i name="e_0_energy">   -327.07521607 </i>
   </energy>
  </scstep>
  <scstep>
   <time name="total">   55.86   55.87</time>
   <energy>
    <i name="e_fr_energy">   -325.99211187 </i>
    <i name="e_wo_entrp">   -325.99211187 </i>
    <i name="e_0_energy">   -325.99211187 </i>
   </energy>
  </scstep>
  <scstep>
   <time name="total">   56.00   56.00</time>
   <energy>
    <i name="e_fr_energy">   -326.99480083 </i>
    <i name="e_wo_entrp">   -326.99480083 </i>
    <i name="e_0_energy">   -326.99480083 </i>
   </energy>
  </scstep>
  <scstep>
   <time name="total">   56.32   56.32</time>
   <energy>
    <i name="e_fr_energy">   -327.33315927 </i>
    <i name="e_wo_entrp">   -327.33315927 </i>
    <i name="e_0_energy">   -327.33315927 </i>
   </energy>
  </scstep>
  <scstep>
   <time name="total">   56.62   56.63</time>
   <energy>
    <i name="e_fr_energy">   -327.30073285 </i>
    <i name="e_wo_entrp">   -327.30073285 </i>
    <i name="e_0_energy">   -327.30073285 </i>
   </energy>
  </scstep>
  <scstep>
   <time name="total">   57.25   57.26</time>
   <energy>
    <i name="e_fr_energy">   -327.28134359 </i>
    <i name="e_wo_entrp">   -327.28134359 </i>
    <i name="e_0_energy">   -327.28134359 </i>
   </energy>
  </scstep>
  <scstep>
   <time name="total">   57.82   57.82</time>
   <energy>
    <i name="e_fr_energy">   -327.27998422 </i>
    <i name="e_wo_entrp">   -327.27998422 </i>
    <i name="e_0_energy">   -327.27998422 </i>
   </energy>
  </scstep>
  <scstep>
   <time name="total">   58.34   58.35</time>
   <energy>
    <i name="e_fr_energy">   -327.27926158 </i>
    <i name="e_wo_entrp">   -327.27926158 </i>
    <i name="e_0_energy">   -327.27926158 </i>
   </energy>
  </scstep>
  <scstep>
   <time name="total">   58.65   58.66</time>
   <energy>
    <i name="e_fr_energy">   -327.27935645 </i>
    <i name="e_wo_entrp">   -327.27935645 </i>
    <i name="e_0_energy">   -327.27935645 </i>
   </energy>
  </scstep>
  <scstep>
   <time name="total">   58.68   58.68</time>
   <energy>
    <i name="e_fr_energy">   -327.27934626 </i>
    <i name="e_wo_entrp">   -327.27934626 </i>
    <i name="e_0_energy">   -327.27934626 </i>
   </energy>
  </scstep>
  <scstep>
   <time name="total">   58.89   58.89</time>
   <energy>
    <i name="e_fr_energy">   -327.27937746 </i>
    <i name="e_wo_entrp">   -327.27937746 </i>
    <i name="e_0_energy">   -327.27937746 </i>
   </energy>
  </scstep>
  <kpoints>
   <generation param="Gamma">
    <v type="int" name="divisions">       8        8        8 </v>
    <v name="usershift">      0.00000000       0.00000000       0.00000000 </v>
    <v name="genvec1">      0.12500000       0.00000000       0.00000000 </v>
    <v name="genvec2">      0.00000000       0.12500000       0.00000000 </v>
    <v name="genvec3">      0.00000000       0.00000000       0.12500000 </v>
    <v name="shift">      0.00000000       0.00000000       0.00000000 </v>
   </generation>
   <varray name="kpointlist" >
    <v>       0.00000000       0.00000000       0.00000000 </v>
    <v>       0.12500000       0.00000000       0.00000000 </v>
    <v>       0.25000000       0.00000000       0.00000000 </v>
    <v>       0.37500000       0.00000000       0.00000000 </v>
    <v>       0.50000000       0.00000000       0.00000000 </v>
    <v>       0.12500000       0.12500000       0.00000000 </v>
    <v>       0.25000000       0.12500000       0.00000000 </v>
    <v>       0.37500000       0.12500000       0.00000000 </v>
    <v>       0.50000000       0.12500000       0.00000000 </v>
    <v>       0.25000000       0.25000000       0.00000000 </v>
    <v>       0.37500000       0.25000000       0.00000000 </v>
    <v>       0.50000000       0.25000000       0.00000000 </v>
    <v>       0.37500000       0.37500000       0.00000000 </v>
    <v>       0.50000000       0.37500000       0.00000000 </v>
    <v>       0.50000000       0.50000000       0.00000000 </v>
    <v>       0.12500000       0.12500000       0.12500000 </v>
    <v>       0.25000000       0.12500000       0.12500000 </v>
    <v>       0.37500000       0.12500000       0.12500000 </v>
    <v>       0.50000000       0.12500000       0.12500000 </v>
    <v>       0.25000000       0.25000000       0.12500000 </v>
    <v>       0.37500000       0.25000000       0.12500000 </v>
    <v>       0.50000000       0.25000000       0.12500000 </v>
    <v>       0.37500000       0.37500000       0.12500000 </v>
    <v>       0.50000000       0.37500000       0.12500000 </v>
    <v>       0.50000000       0.50000000       0.12500000 </v>
    <v>       0.25000000       0.25000000       0.25000000 </v>
    <v>       0.37500000       0.25000000       0.25000000 </v>
    <v>       0.50000000       0.25000000       0.25000000 </v>
    <v>       0.37500000       0.37500000       0.25000000 </v>
    <v>       0.50000000       0.37500000       0.25000000 </v>
    <v>       0.50000000       0.50000000       0.25000000 </v>
    <v>       0.37500000       0.37500000       0.37500000 </v>
    <v>       0.50000000       0.37500000       0.37500000 </v>
    <v>       0.50000000       0.50000000       0.37500000 </v>
    <v>       0.50000000       0.50000000       0.50000000 </v>
   </varray>
   <varray name="weights" >
    <v>       0.00195312 </v>
    <v>       0.01171875 </v>
    <v>       0.01171875 </v>
    <v>       0.01171875 </v>
    <v>       0.00585938 </v>
    <v>       0.02343750 </v>
    <v>       0.04687500 </v>
    <v>       0.04687500 </v>
    <v>       0.02343750 </v>
    <v>       0.02343750 </v>
    <v>       0.04687500 </v>
    <v>       0.02343750 </v>
    <v>       0.02343750 </v>
    <v>       0.02343750 </v>
    <v>       0.00585938 </v>
    <v>       0.01562500 </v>
    <v>       0.04687500 </v>
    <v>       0.04687500 </v>
    <v>       0.02343750 </v>
    <v>       0.04687500 </v>
    <v>       0.09375000 </v>
    <v>       0.04687500 </v>
    <v>       0.04687500 </v>
    <v>       0.04687500 </v>
    <v>       0.01171875 </v>
    <v>       0.01562500 </v>
    <v>       0.04687500 </v>
    <v>       0.02343750 </v>
    <v>       0.04687500 </v>
    <v>       0.04687500 </v>
    <v>       0.01171875 </v>
    <v>       0.01562500 </v>
    <v>       0.02343750 </v>
    <v>       0.01171875 </v>
    <v>       0.00195312 </v>
   </varray>
  </kpoints>
  <dynmat>
   <varray name="hessian" >
    <v>      -5.02764667      -0.00000000      -0.00000000       0.01801142       0.00000000       0.00000000       0.00878697       0.00000000       0.00000000       0.01550398       0.00000000      -0.00000000       0.00878697      -0.00000000       0.00000000       0.01550398       0.00000000       0.00000000      -0.05118874       0.00000000       0.00000000       0.00557147      -0.00000000      -0.00000000      -0.01460653      -0.00833018       0.00520658       0.00935956      -0.01291869      -0.02268854       1.03895461      -0.44288496      -0.44288496      -0.00593007      -0.00833018      -0.00833018       0.03104594      -0.02268854      -0.02268854      -0.00293189      -0.00248468      -0.00248468      -0.01460653       0.00520658      -0.00833018       0.00935956      -0.02268854      -0.01291869      -0.13495407       0.07634784      -0.07634784      -0.00731734       0.00424636      -0.00424636      -0.13495407       0.07634784       0.07634784      -0.00731734       0.00424636       0.00424636      -0.13495407      -0.07634784      -0.07634784      -0.00731734      -0.00424636      -0.00424636      -0.13495407      -0.07634784       0.07634784      -0.00731734      -0.00424636       0.00424636       1.03895461       0.44288496       0.44288496      -0.00593007       0.00833018       0.00833018      -0.01460653       0.00833018      -0.00520658       0.00935956       0.01291869       0.02268854      -0.01460653      -0.00520658       0.00833018       0.00935956       0.02268854       0.01291869       0.03104594       0.02268854       0.02268854      -0.00293189       0.00248468       0.00248468       0.16346648      -0.07634784       0.17171942       0.16346648      -0.07634784      -0.17171942       0.00818072      -0.00424636      -0.00570761       0.00818072      -0.00424636       0.00570761       0.16346648       0.07634784      -0.17171942       0.16346648       0.07634784       0.17171942       0.00818072       0.00424636       0.00570761       0.00818072       0.00424636      -0.00570761      -0.01460653       0.00833018       0.00520658       0.00935956       0.01291869      -0.02268854       1.03895461       0.44288496      -0.44288496      -0.00593007       0.00833018      -0.00833018       0.03104594       0.02268854      -0.02268854      -0.00293189       0.00248468      -0.00248468      -0.01460653      -0.00520658      -0.00833018       0.00935956       0.02268854      -0.01291869       0.16346648      -0.17171942       0.07634784       0.16346648       0.17171942       0.07634784       0.16346648       0.17171942      -0.07634784       0.16346648      -0.17171942      -0.07634784       0.00818072       0.00570761       0.00424636       0.00818072      -0.00570761       0.00424636       0.00818072      -0.00570761      -0.00424636       0.00818072       0.00570761      -0.00424636       1.03895461      -0.44288496       0.44288496      -0.00593007      -0.00833018       0.00833018      -0.01460653      -0.00833018      -0.00520658       0.00935956      -0.01291869       0.02268854      -0.01460653       0.00520658       0.00833018       0.00935956      -0.02268854       0.01291869       0.03104594      -0.02268854       0.02268854      -0.00293189      -0.00248468       0.00248468 </v>
    <v>      -0.00000000      -5.02764667      -0.00000000       0.00000000       0.00878697       0.00000000       0.00000000       0.01801142       0.00000000       0.00000000       0.01550398      -0.00000000      -0.00000000       0.00878697       0.00000000       0.00000000      -0.05118874       0.00000000       0.00000000       0.01550398       0.00000000      -0.00000000       0.00557147      -0.00000000      -0.00833018      -0.00593007       0.00833018      -0.01291869       0.00935956       0.02268854      -0.44288496       1.03895461       0.44288496      -0.00833018      -0.01460653      -0.00520658      -0.02268854       0.00935956       0.01291869      -0.00248468      -0.00293189       0.00248468       0.00520658      -0.01460653       0.00833018      -0.02268854       0.03104594       0.02268854      -0.07634784       0.16346648      -0.17171942      -0.00424636       0.00818072       0.00570761      -0.07634784       0.16346648       0.17171942      -0.00424636       0.00818072      -0.00570761       0.07634784       0.16346648       0.17171942       0.00424636       0.00818072      -0.00570761       0.07634784       0.16346648      -0.17171942       0.00424636       0.00818072       0.00570761       0.44288496       1.03895461       0.44288496       0.00833018      -0.01460653      -0.00520658       0.00833018      -0.00593007       0.00833018       0.01291869       0.00935956       0.02268854      -0.00520658      -0.01460653       0.00833018       0.02268854       0.03104594       0.02268854       0.02268854       0.00935956       0.01291869       0.00248468      -0.00293189       0.00248468       0.07634784      -0.13495407       0.07634784       0.07634784      -0.13495407      -0.07634784       0.00424636      -0.00731734       0.00424636       0.00424636      -0.00731734      -0.00424636      -0.07634784      -0.13495407       0.07634784      -0.07634784      -0.13495407      -0.07634784      -0.00424636      -0.00731734       0.00424636      -0.00424636      -0.00731734      -0.00424636       0.00833018      -0.00593007      -0.00833018       0.01291869       0.00935956      -0.02268854       0.44288496       1.03895461      -0.44288496       0.00833018      -0.01460653       0.00520658       0.02268854       0.00935956      -0.01291869       0.00248468      -0.00293189      -0.00248468      -0.00520658      -0.01460653      -0.00833018       0.02268854       0.03104594      -0.02268854      -0.17171942       0.16346648      -0.07634784       0.17171942       0.16346648       0.07634784       0.17171942       0.16346648      -0.07634784      -0.17171942       0.16346648       0.07634784       0.00570761       0.00818072      -0.00424636      -0.00570761       0.00818072       0.00424636      -0.00570761       0.00818072      -0.00424636       0.00570761       0.00818072       0.00424636      -0.44288496       1.03895461      -0.44288496      -0.00833018      -0.01460653       0.00520658      -0.00833018      -0.00593007      -0.00833018      -0.01291869       0.00935956      -0.02268854       0.00520658      -0.01460653      -0.00833018      -0.02268854       0.03104594      -0.02268854      -0.02268854       0.00935956      -0.01291869      -0.00248468      -0.00293189      -0.00248468 </v>
    <v>      -0.00000000      -0.00000000      -5.02764667       0.00000000       0.00000000       0.00878697       0.00000000       0.00000000       0.00878697      -0.00000000      -0.00000000      -0.05118874       0.00000000       0.00000000       0.01801142       0.00000000       0.00000000       0.01550398       0.00000000       0.00000000       0.01550398      -0.00000000      -0.00000000       0.00557147       0.00520658       0.00833018      -0.01460653      -0.02268854       0.02268854       0.03104594      -0.44288496       0.44288496       1.03895461      -0.00833018      -0.00520658      -0.01460653      -0.02268854       0.01291869       0.00935956      -0.00248468       0.00248468      -0.00293189      -0.00833018       0.00833018      -0.00593007      -0.01291869       0.02268854       0.00935956       0.07634784      -0.17171942       0.16346648       0.00424636       0.00570761       0.00818072      -0.07634784       0.17171942       0.16346648      -0.00424636      -0.00570761       0.00818072       0.07634784       0.17171942       0.16346648       0.00424636      -0.00570761       0.00818072      -0.07634784      -0.17171942       0.16346648      -0.00424636       0.00570761       0.00818072       0.44288496       0.44288496       1.03895461       0.00833018      -0.00520658      -0.01460653      -0.00520658       0.00833018      -0.01460653       0.02268854       0.02268854       0.03104594       0.00833018       0.00833018      -0.00593007       0.01291869       0.02268854       0.00935956       0.02268854       0.01291869       0.00935956       0.00248468       0.00248468      -0.00293189       0.17171942      -0.07634784       0.16346648      -0.17171942       0.07634784       0.16346648      -0.00570761      -0.00424636       0.00818072       0.00570761       0.00424636       0.00818072      -0.17171942      -0.07634784       0.16346648       0.17171942       0.07634784       0.16346648       0.00570761      -0.00424636       0.00818072      -0.00570761       0.00424636       0.00818072       0.00520658      -0.00833018      -0.01460653      -0.02268854      -0.02268854       0.03104594      -0.44288496      -0.44288496       1.03895461      -0.00833018       0.00520658      -0.01460653      -0.02268854      -0.01291869       0.00935956      -0.00248468      -0.00248468      -0.00293189      -0.00833018      -0.00833018      -0.00593007      -0.01291869      -0.02268854       0.00935956      -0.07634784       0.07634784      -0.13495407      -0.07634784      -0.07634784      -0.13495407       0.07634784       0.07634784      -0.13495407       0.07634784      -0.07634784      -0.13495407      -0.00424636       0.00424636      -0.00731734      -0.00424636      -0.00424636      -0.00731734       0.00424636       0.00424636      -0.00731734       0.00424636      -0.00424636      -0.00731734       0.44288496      -0.44288496       1.03895461       0.00833018       0.00520658      -0.01460653      -0.00520658      -0.00833018      -0.01460653       0.02268854      -0.02268854       0.03104594       0.00833018      -0.00833018      -0.00593007       0.01291869      -0.02268854       0.00935956       0.02268854      -0.01291869       0.00935956       0.00248468      -0.00248468      -0.00293189 </v>
    <v>       0.01801142       0.00000000       0.00000000      -5.02764667      -0.00000000      -0.00000000       0.01550398       0.00000000      -0.00000000       0.00878697       0.00000000       0.00000000       0.01550398       0.00000000       0.00000000       0.00878697      -0.00000000       0.00000000       0.00557147      -0.00000000      -0.00000000      -0.05118874       0.00000000       0.00000000       0.00935956      -0.01291869      -0.02268854      -0.01460653      -0.00833018       0.00520658      -0.00593007      -0.00833018      -0.00833018       1.03895461      -0.44288496      -0.44288496      -0.00293189      -0.00248468      -0.00248468       0.03104594      -0.02268854      -0.02268854       0.00935956      -0.02268854      -0.01291869      -0.01460653       0.00520658      -0.00833018      -0.00731734       0.00424636      -0.00424636      -0.13495407       0.07634784      -0.07634784      -0.00731734       0.00424636       0.00424636      -0.13495407       0.07634784       0.07634784      -0.00731734      -0.00424636      -0.00424636      -0.13495407      -0.07634784      -0.07634784      -0.00731734      -0.00424636       0.00424636      -0.13495407      -0.07634784       0.07634784      -0.00593007       0.00833018       0.00833018       1.03895461       0.44288496       0.44288496       0.00935956       0.01291869       0.02268854      -0.01460653       0.00833018      -0.00520658       0.00935956       0.02268854       0.01291869      -0.01460653      -0.00520658       0.00833018      -0.00293189       0.00248468       0.00248468       0.03104594       0.02268854       0.02268854       0.16346648      -0.07634784      -0.17171942       0.16346648      -0.07634784       0.17171942       0.00818072      -0.00424636       0.00570761       0.00818072      -0.00424636      -0.00570761       0.16346648       0.07634784       0.17171942       0.16346648       0.07634784      -0.17171942       0.00818072       0.00424636      -0.00570761       0.00818072       0.00424636       0.00570761       0.00935956       0.01291869      -0.02268854      -0.01460653       0.00833018       0.00520658      -0.00593007       0.00833018      -0.00833018       1.03895461       0.44288496      -0.44288496      -0.00293189       0.00248468      -0.00248468       0.03104594       0.02268854      -0.02268854       0.00935956       0.02268854      -0.01291869      -0.01460653      -0.00520658      -0.00833018       0.16346648       0.17171942       0.07634784       0.16346648      -0.17171942       0.07634784       0.16346648      -0.17171942      -0.07634784       0.16346648       0.17171942      -0.07634784       0.00818072      -0.00570761       0.00424636       0.00818072       0.00570761       0.00424636       0.00818072       0.00570761      -0.00424636       0.00818072      -0.00570761      -0.00424636      -0.00593007      -0.00833018       0.00833018       1.03895461      -0.44288496       0.44288496       0.00935956      -0.01291869       0.02268854      -0.01460653      -0.00833018      -0.00520658       0.00935956      -0.02268854       0.01291869      -0.01460653       0.00520658       0.00833018      -0.00293189      -0.00248468       0.00248468       0.03104594      -0.02268854       0.02268854 </v>
    <v>       0.00000000       0.00878697       0.00000000      -0.00000000      -5.02764667      -0.00000000       0.00000000       0.01550398      -0.00000000       0.00000000       0.01801142       0.00000000       0.00000000      -0.05118874       0.00000000      -0.00000000       0.00878697       0.00000000      -0.00000000       0.00557147      -0.00000000       0.00000000       0.01550398       0.00000000      -0.01291869       0.00935956       0.02268854      -0.00833018      -0.00593007       0.00833018      -0.00833018      -0.01460653      -0.00520658      -0.44288496       1.03895461       0.44288496      -0.00248468      -0.00293189       0.00248468      -0.02268854       0.00935956       0.01291869      -0.02268854       0.03104594       0.02268854       0.00520658      -0.01460653       0.00833018      -0.00424636       0.00818072       0.00570761      -0.07634784       0.16346648      -0.17171942      -0.00424636       0.00818072      -0.00570761      -0.07634784       0.16346648       0.17171942       0.00424636       0.00818072      -0.00570761       0.07634784       0.16346648       0.17171942       0.00424636       0.00818072       0.00570761       0.07634784       0.16346648      -0.17171942       0.00833018      -0.01460653      -0.00520658       0.44288496       1.03895461       0.44288496       0.01291869       0.00935956       0.02268854       0.00833018      -0.00593007       0.00833018       0.02268854       0.03104594       0.02268854      -0.00520658      -0.01460653       0.00833018       0.00248468      -0.00293189       0.00248468       0.02268854       0.00935956       0.01291869       0.07634784      -0.13495407      -0.07634784       0.07634784      -0.13495407       0.07634784       0.00424636      -0.00731734      -0.00424636       0.00424636      -0.00731734       0.00424636      -0.07634784      -0.13495407      -0.07634784      -0.07634784      -0.13495407       0.07634784      -0.00424636      -0.00731734      -0.00424636      -0.00424636      -0.00731734       0.00424636       0.01291869       0.00935956      -0.02268854       0.00833018      -0.00593007      -0.00833018       0.00833018      -0.01460653       0.00520658       0.44288496       1.03895461      -0.44288496       0.00248468      -0.00293189      -0.00248468       0.02268854       0.00935956      -0.01291869       0.02268854       0.03104594      -0.02268854      -0.00520658      -0.01460653      -0.00833018       0.17171942       0.16346648       0.07634784      -0.17171942       0.16346648      -0.07634784      -0.17171942       0.16346648       0.07634784       0.17171942       0.16346648      -0.07634784      -0.00570761       0.00818072       0.00424636       0.00570761       0.00818072      -0.00424636       0.00570761       0.00818072       0.00424636      -0.00570761       0.00818072      -0.00424636      -0.00833018      -0.01460653       0.00520658      -0.44288496       1.03895461      -0.44288496      -0.01291869       0.00935956      -0.02268854      -0.00833018      -0.00593007      -0.00833018      -0.02268854       0.03104594      -0.02268854       0.00520658      -0.01460653      -0.00833018      -0.00248468      -0.00293189      -0.00248468      -0.02268854       0.00935956      -0.01291869 </v>
    <v>       0.00000000       0.00000000       0.00878697      -0.00000000      -0.00000000      -5.02764667      -0.00000000      -0.00000000      -0.05118874       0.00000000       0.00000000       0.00878697       0.00000000       0.00000000       0.01550398       0.00000000       0.00000000       0.01801142      -0.00000000      -0.00000000       0.00557147       0.00000000       0.00000000       0.01550398      -0.02268854       0.02268854       0.03104594       0.00520658       0.00833018      -0.01460653      -0.00833018      -0.00520658      -0.01460653      -0.44288496       0.44288496       1.03895461      -0.00248468       0.00248468      -0.00293189      -0.02268854       0.01291869       0.00935956      -0.01291869       0.02268854       0.00935956      -0.00833018       0.00833018      -0.00593007       0.00424636       0.00570761       0.00818072       0.07634784      -0.17171942       0.16346648      -0.00424636      -0.00570761       0.00818072      -0.07634784       0.17171942       0.16346648       0.00424636      -0.00570761       0.00818072       0.07634784       0.17171942       0.16346648      -0.00424636       0.00570761       0.00818072      -0.07634784      -0.17171942       0.16346648       0.00833018      -0.00520658      -0.01460653       0.44288496       0.44288496       1.03895461       0.02268854       0.02268854       0.03104594      -0.00520658       0.00833018      -0.01460653       0.01291869       0.02268854       0.00935956       0.00833018       0.00833018      -0.00593007       0.00248468       0.00248468      -0.00293189       0.02268854       0.01291869       0.00935956      -0.17171942       0.07634784       0.16346648       0.17171942      -0.07634784       0.16346648       0.00570761       0.00424636       0.00818072      -0.00570761      -0.00424636       0.00818072       0.17171942       0.07634784       0.16346648      -0.17171942      -0.07634784       0.16346648      -0.00570761       0.00424636       0.00818072       0.00570761      -0.00424636       0.00818072      -0.02268854      -0.02268854       0.03104594       0.00520658      -0.00833018      -0.01460653      -0.00833018       0.00520658      -0.01460653      -0.44288496      -0.44288496       1.03895461      -0.00248468      -0.00248468      -0.00293189      -0.02268854      -0.01291869       0.00935956      -0.01291869      -0.02268854       0.00935956      -0.00833018      -0.00833018      -0.00593007      -0.07634784      -0.07634784      -0.13495407      -0.07634784       0.07634784      -0.13495407       0.07634784      -0.07634784      -0.13495407       0.07634784       0.07634784      -0.13495407      -0.00424636      -0.00424636      -0.00731734      -0.00424636       0.00424636      -0.00731734       0.00424636      -0.00424636      -0.00731734       0.00424636       0.00424636      -0.00731734       0.00833018       0.00520658      -0.01460653       0.44288496      -0.44288496       1.03895461       0.02268854      -0.02268854       0.03104594      -0.00520658      -0.00833018      -0.01460653       0.01291869      -0.02268854       0.00935956       0.00833018      -0.00833018      -0.00593007       0.00248468      -0.00248468      -0.00293189       0.02268854      -0.01291869       0.00935956 </v>
[...]
      </set>
     </set>
    </set>
   </array>
  </eigenvalues>
  <separator name="orbital magnetization" >
   <v name="MAGDIPOLOUT">      0.00000000      0.00000000      0.00000000</v>
  </separator>
  <dos>
   <i name="efermi">     12.36957004 </i>
   <total>
    <array>
     <dimension dim="1">gridpoints</dimension>
     <dimension dim="2">spin</dimension>
     <field>energy</field>
     <field>total</field>
     <field>integrated</field>
     <set>
      <set comment="spin 1">
       <r>   -13.3698     0.0000     0.0000 </r>
       <r>   -13.2359     0.0000     0.0000 </r>
       <r>   -13.1019     0.0000     0.0000 </r>
       <r>   -12.9679     0.0000     0.0000 </r>
       <r>   -12.8339     0.0000     0.0000 </r>
       <r>   -12.7000     0.0000     0.0000 </r>
       <r>   -12.5660     0.0000     0.0000 </r>
       <r>   -12.4320     0.0000     0.0000 </r>
       <r>   -12.2981     0.0000     0.0000 </r>
       <r>   -12.1641     0.0000     0.0000 </r>
       <r>   -12.0301     0.0000     0.0000 </r>
       <r>   -11.8961     0.0000     0.0000 </r>
       <r>   -11.7622     0.0000     0.0000 </r>
       <r>   -11.6282     0.0009     0.0001 </r>
       <r>   -11.4942     0.2194     0.0295 </r>
       <r>   -11.3603     0.9776     0.1605 </r>
       <r>   -11.2263     1.4645     0.3567 </r>
       <r>   -11.0923     2.0677     0.6337 </r>
       <r>   -10.9583     2.2150     0.9305 </r>
       <r>   -10.8244     2.4094     1.2533 </r>
       <r>   -10.6904     3.0352     1.6599 </r>
       <r>   -10.5564     2.2477     1.9610 </r>
       <r>   -10.4224     3.7610     2.4649 </r>
       <r>   -10.2885     3.2898     2.9056 </r>
       <r>   -10.1545     3.5325     3.3789 </r>
       <r>   -10.0205     3.7275     3.8782 </r>
       <r>    -9.8866     4.2517     4.4479 </r>
       <r>    -9.7526     4.1961     5.0100 </r>
       <r>    -9.6186     3.0734     5.4218 </r>
       <r>    -9.4846     5.1531     6.1121 </r>
       <r>    -9.3507     5.3596     6.8302 </r>
       <r>    -9.2167     4.0171     7.3684 </r>
       <r>    -9.0827     4.8696     8.0208 </r>
       <r>    -8.9488     4.7297     8.6544 </r>
       <r>    -8.8148     6.0548     9.4656 </r>
       <r>    -8.6808     4.1855    10.0263 </r>
       <r>    -8.5468     6.5399    10.9025 </r>
       <r>    -8.4129     4.7339    11.5367 </r>
       <r>    -8.2789     5.5258    12.2770 </r>
       <r>    -8.1449     6.2061    13.1084 </r>
       <r>    -8.0109     7.0064    14.0471 </r>
       <r>    -7.8770     5.7822    14.8217 </r>
       <r>    -7.7430     4.2333    15.3889 </r>
       <r>    -7.6090     7.2355    16.3582 </r>
       <r>    -7.4751     6.8095    17.2705 </r>
       <r>    -7.3411     7.1588    18.2296 </r>
       <r>    -7.2071     6.9624    19.1624 </r>
       <r>    -7.0731     5.8755    19.9495 </r>
       <r>    -6.9392     7.8211    20.9973 </r>
       <r>    -6.8052     5.9460    21.7939 </r>
       <r>    -6.6712     7.1712    22.7547 </r>
       <r>    -6.5373     7.6752    23.7829 </r>
       <r>    -6.4033     8.3359    24.8997 </r>
       <r>    -6.2693     7.7780    25.9418 </r>
       <r>    -6.1353     7.6698    26.9693 </r>
       <r>    -6.0014     6.3553    27.8208 </r>
       <r>    -5.8674     7.5904    28.8376 </r>
       <r>    -5.7334    10.0943    30.1900 </r>
       <r>    -5.5995     9.4696    31.4587 </r>
       <r>    -5.4655     6.7324    32.3606 </r>
       <r>    -5.3315     8.4981    33.4991 </r>
       <r>    -5.1975    10.1603    34.8603 </r>
       <r>    -5.0636     6.7500    35.7646 </r>
       <r>    -4.9296    11.9078    37.3600 </r>
       <r>    -4.7956     9.4491    38.6259 </r>
       <r>    -4.6616     9.9362    39.9570 </r>
       <r>    -4.5277    11.7215    41.5274 </r>
       <r>    -4.3937    10.3532    42.9144 </r>
       <r>    -4.2597     9.8750    44.2374 </r>
       <r>    -4.1258     7.8474    45.2887 </r>
       <r>    -3.9918     7.6576    46.3147 </r>
       <r>    -3.8578    11.8603    47.9036 </r>
       <r>    -3.7238     8.2410    49.0077 </r>
       <r>    -3.5899    10.2051    50.3749 </r>
       <r>    -3.4559     6.7240    51.2757 </r>
       <r>    -3.3219     8.3541    52.3949 </r>
       <r>    -3.1880     8.5903    53.5458 </r>
       <r>    -3.0540     6.0967    54.3626 </r>
       <r>    -2.9200     6.7444    55.2661 </r>
       <r>    -2.7860    10.9731    56.7362 </r>
       <r>    -2.6521    10.1437    58.0952 </r>
       <r>    -2.5181     7.0005    59.0331 </r>
       <r>    -2.3841    10.8714    60.4896 </r>
       <r>    -2.2501     7.6048    61.5084 </r>
       <r>    -2.1162    12.4268    63.1732 </r>
       <r>    -1.9822     7.5401    64.1834 </r>
       <r>    -1.8482     7.1915    65.1469 </r>
       <r>    -1.7143     8.9737    66.3491 </r>
       <r>    -1.5803    13.4689    68.1535 </r>
       <r>    -1.4463     9.3077    69.4005 </r>
       <r>    -1.3123     8.8267    70.5831 </r>
       <r>    -1.1784     9.8170    71.8983 </r>
       <r>    -1.0444     8.5284    73.0408 </r>
       <r>    -0.9104     9.9379    74.3722 </r>
       <r>    -0.7765    10.0687    75.7212 </r>
       <r>    -0.6425    10.9950    77.1942 </r>
       <r>    -0.5085    15.8407    79.3164 </r>
       <r>    -0.3745    20.4531    82.0565 </r>
       <r>    -0.2406    17.8375    84.4463 </r>
       <r>    -0.1066    14.1209    86.3381 </r>
       <r>     0.0274     8.1475    87.4296 </r>
       <r>     0.1614    11.6210    88.9865 </r>
       <r>     0.2953     7.8123    90.0331 </r>
       <r>     0.4293    10.5824    91.4509 </r>
       <r>     0.5633    15.2060    93.4881 </r>
       <r>     0.6972    13.3788    95.2805 </r>
       <r>     0.8312     6.5746    96.1613 </r>
       <r>     0.9652     7.0406    97.1045 </r>
       <r>     1.0992     8.9566    98.3045 </r>
       <r>     1.2331    10.1457    99.6637 </r>
       <r>     1.3671     7.0755   100.6116 </r>
       <r>     1.5011     9.9187   101.9405 </r>
       <r>     1.6350    14.6477   103.9028 </r>
       <r>     1.7690    16.8283   106.1574 </r>
       <r>     1.9030    10.9480   107.6241 </r>
       <r>     2.0370    13.6633   109.4546 </r>
       <r>     2.1709    14.7583   111.4318 </r>
       <r>     2.3049    10.4037   112.8256 </r>
       <r>     2.4389    11.0380   114.3044 </r>
       <r>     2.5729    20.8022   117.0913 </r>
       <r>     2.7068    16.0613   119.2431 </r>
       <r>     2.8408    16.1067   121.4010 </r>
       <r>     2.9748     9.8221   122.7168 </r>
       <r>     3.1087    12.3877   124.3765 </r>
       <r>     3.2427    17.1068   126.6683 </r>
       <r>     3.3767    17.2302   128.9767 </r>
       <r>     3.5107    13.6627   130.8071 </r>
       <r>     3.6446    15.2665   132.8524 </r>
       <r>     3.7786    20.2408   135.5641 </r>
       <r>     3.9126    12.3495   137.2185 </r>
       <r>     4.0465    15.3190   139.2709 </r>
       <r>     4.1805    20.0526   141.9574 </r>
       <r>     4.3145    14.4905   143.8987 </r>
       <r>     4.4485    21.0789   146.7227 </r>
       <r>     4.5824    20.5760   149.4793 </r>
       <r>     4.7164    18.0033   151.8912 </r>
       <r>     4.8504    19.5156   154.5058 </r>
       <r>     4.9844    19.3672   157.1004 </r>
       <r>     5.1183    29.0780   160.9961 </r>
       <r>     5.2523    23.9768   164.2083 </r>
       <r>     5.3863    17.5920   166.5652 </r>
       <r>     5.5202    19.9149   169.2332 </r>
       <r>     5.6542    23.2983   172.3545 </r>
       <r>     5.7882    27.5781   176.0492 </r>
       <r>     5.9222    17.6597   178.4151 </r>
       <r>     6.0561    16.8705   180.6753 </r>
       <r>     6.1901    22.2532   183.6566 </r>
       <r>     6.3241    20.9301   186.4607 </r>
       <r>     6.4580    25.5192   189.8795 </r>
       <r>     6.5920    17.0088   192.1582 </r>
       <r>     6.7260    19.4817   194.7682 </r>
       <r>     6.8600    19.4201   197.3700 </r>
       <r>     6.9939    21.1572   200.2045 </r>
       <r>     7.1279    18.9779   202.7470 </r>
       <r>     7.2619    19.9936   205.4256 </r>
       <r>     7.3959    16.8302   207.6804 </r>
       <r>     7.5298    20.5248   210.4301 </r>
       <r>     7.6638    22.3693   213.4270 </r>
       <r>     7.7978    14.9993   215.4365 </r>
       <r>     7.9317    18.9692   217.9778 </r>
       <r>     8.0657    16.0263   220.1249 </r>
       <r>     8.1997    18.2704   222.5726 </r>
       <r>     8.3337    23.9956   225.7874 </r>
       <r>     8.4676    14.5527   227.7370 </r>
       <r>     8.6016    16.3693   229.9300 </r>
       <r>     8.7356    15.2553   231.9738 </r>
       <r>     8.8695    18.3349   234.4302 </r>
       <r>     9.0035    21.1577   237.2647 </r>
       <r>     9.1375     8.9437   238.4629 </r>
       <r>     9.2715     9.7100   239.7638 </r>
       <r>     9.4054    14.8894   241.7586 </r>
       <r>     9.5394     9.8946   243.0842 </r>
       <r>     9.6734    10.1251   244.4407 </r>
       <r>     9.8074     6.6071   245.3258 </r>
       <r>     9.9413     8.8427   246.5105 </r>
       <r>    10.0753     9.5333   247.7877 </r>
       <r>    10.2093     7.0656   248.7343 </r>
       <r>    10.3432     6.2870   249.5766 </r>
       <r>    10.4772     4.9865   250.2447 </r>
       <r>    10.6112     6.0121   251.0501 </r>
       <r>    10.7452     6.8302   251.9652 </r>
       <r>    10.8791     5.0188   252.6375 </r>
       <r>    11.0131     3.6175   253.1222 </r>
       <r>    11.1471     3.5358   253.5959 </r>
       <r>    11.2810     4.9365   254.2573 </r>
       <r>    11.4150     3.1283   254.6764 </r>
       <r>    11.5490     2.8324   255.0558 </r>
       <r>    11.6830     2.3651   255.3727 </r>
       <r>    11.8169     1.9709   255.6367 </r>
       <r>    11.9509     1.9640   255.8999 </r>
       <r>    12.0849     0.6222   255.9832 </r>
       <r>    12.2189     0.1251   256.0000 </r>
       <r>    12.3528     0.0002   256.0000 </r>
       <r>    12.4868     0.0000   256.0000 </r>
       <r>    12.6208     0.0000   256.0000 </r>
       <r>    12.7547     0.0000   256.0000 </r>
       <r>    12.8887     0.0000   256.0000 </r>
       <r>    13.0227     0.0000   256.0000 </r>
       <r>    13.1567     0.0000   256.0000 </r>
       <r>    13.2906     0.0000   256.0000 </r>
       <r>    13.4246     0.0000   256.0000 </r>
       <r>    13.5586     0.0000   256.0000 </r>
       <r>    13.6925     0.0000   256.0000 </r>
       <r>    13.8265     0.0000   256.0000 </r>
       <r>    13.9605     0.0000   256.0000 </r>
       <r>    14.0945     0.0000   256.0000 </r>
       <r>    14.2284     0.0000   256.0000 </r>
       <r>    14.3624     0.0000   256.0000 </r>
       <r>    14.4964     0.0000   256.0000 </r>
       <r>    14.6304     0.0000   256.0000 </r>
       <r>    14.7643     0.0000   256.0000 </r>
       <r>    14.8983     0.0000   256.0000 </r>
       <r>    15.0323     0.0000   256.0000 </r>
       <r>    15.1662     0.0000   256.0000 </r>
       <r>    15.3002     0.0000   256.0000 </r>
       <r>    15.4342     0.0000   256.0000 </r>
       <r>    15.5682     0.0000   256.0000 </r>
       <r>    15.7021     0.0000   256.0000 </r>
       <r>    15.8361     0.0000   256.0000 </r>
       <r>    15.9701     0.0000   256.0000 </r>
       <r>    16.1040     0.0000   256.0000 </r>
       <r>    16.2380     0.0000   256.0000 </r>
       <r>    16.3720     0.0000   256.0000 </r>
       <r>    16.5060     0.0151   256.0020 </r>
       <r>    16.6399     0.4860   256.0671 </r>
       <r>    16.7739     1.5920   256.2804 </r>
       <r>    16.9079     3.3984   256.7357 </r>
       <r>    17.0419     3.6145   257.2200 </r>
       <r>    17.1758     2.9248   257.6118 </r>
       <r>    17.3098     5.4777   258.3457 </r>
       <r>    17.4438    10.4725   259.7487 </r>
       <r>    17.5777     6.5551   260.6269 </r>
       <r>    17.7117     6.0910   261.4429 </r>
       <r>    17.8457     8.4603   262.5764 </r>
       <r>    17.9797    10.5458   263.9892 </r>
       <r>    18.1136    14.2019   265.8919 </r>
       <r>    18.2476    12.1708   267.5224 </r>
       <r>    18.3816    12.6404   269.2159 </r>
       <r>    18.5155    11.9209   270.8130 </r>
       <r>    18.6495    13.0345   272.5592 </r>
       <r>    18.7835    13.5383   274.3730 </r>
       <r>    18.9175    16.4854   276.5816 </r>
       <r>    19.0514    15.3906   278.6435 </r>
       <r>    19.1854    17.1259   280.9379 </r>
       <r>    19.3194    15.9849   283.0794 </r>
       <r>    19.4533    17.7445   285.4567 </r>
       <r>    19.5873    15.2843   287.5043 </r>
       <r>    19.7213    14.9406   289.5060 </r>
       <r>    19.8553    23.7947   292.6938 </r>
       <r>    19.9892    17.6842   295.0630 </r>
       <r>    20.1232    19.0188   297.6110 </r>
       <r>    20.2572    24.8176   300.9359 </r>
       <r>    20.3912    17.6621   303.3021 </r>
       <r>    20.5251    24.1237   306.5340 </r>
       <r>    20.6591    24.5253   309.8197 </r>
       <r>    20.7931    33.3568   314.2886 </r>
       <r>    20.9270    26.1693   317.7945 </r>
       <r>    21.0610    26.8670   321.3940 </r>
       <r>    21.1950    26.6411   324.9631 </r>
       <r>    21.3290    26.2722   328.4829 </r>
       <r>    21.4629    19.6006   331.1088 </r>
       <r>    21.5969    18.9581   333.6487 </r>
       <r>    21.7309    23.5202   336.7997 </r>
       <r>    21.8648    29.2137   340.7135 </r>
       <r>    21.9988    21.5020   343.5942 </r>
       <r>    22.1328    21.7309   346.5055 </r>
       <r>    22.2668    23.7104   349.6821 </r>
       <r>    22.4007    13.6938   351.5167 </r>
       <r>    22.5347    21.9912   354.4629 </r>
       <r>    22.6687    22.0233   357.4134 </r>
       <r>    22.8027    32.7014   361.7945 </r>
       <r>    22.9366    35.4089   366.5383 </r>
       <r>    23.0706    17.2506   368.8494 </r>
       <r>    23.2046    22.5875   371.8755 </r>
       <r>    23.3385    17.1788   374.1769 </r>
       <r>    23.4725    19.6471   376.8091 </r>
       <r>    23.6065    16.6016   379.0333 </r>
       <r>    23.7405    11.4892   380.5725 </r>
       <r>    23.8744     9.4489   381.8384 </r>
       <r>    24.0084     5.1010   382.5218 </r>
       <r>    24.1424     3.4707   382.9868 </r>
       <r>    24.2763     2.1361   383.2729 </r>
       <r>    24.4103     3.0782   383.6853 </r>
       <r>    24.5443     0.4923   383.7513 </r>
       <r>    24.6783     0.4734   383.8147 </r>
       <r>    24.8122     0.6647   383.9038 </r>
       <r>    24.9462     0.1131   383.9189 </r>
       <r>    25.0802     0.5912   383.9981 </r>
       <r>    25.2142     0.0140   384.0000 </r>
       <r>    25.3481     0.0000   384.0000 </r>
       <r>    25.4821     0.0000   384.0000 </r>
       <r>    25.6161     0.0000   384.0000 </r>
       <r>    25.7500     0.0000   384.0000 </r>
       <r>    25.8840     0.0000   384.0000 </r>
       <r>    26.0180     0.0000   384.0000 </r>
       <r>    26.1520     0.0000   384.0000 </r>
       <r>    26.2859     0.0000   384.0000 </r>
       <r>    26.4199     0.0000   384.0000 </r>
       <r>    26.5539     0.0000   384.0000 </r>
       <r>    26.6878     0.0000   384.0000 </r>
       <r>    26.8218     0.0000   384.0000 </r>
      </set>
     </set>
    </array>
   </total>
  </dos>
 </calculation>
 <structure name="finalpos" >
  <crystal>
   <varray name="basis" >
    <v>       6.78063800       0.00000000       0.00000000 </v>
    <v>       0.00000000       6.78063800       0.00000000 </v>
    <v>       0.00000000       0.00000000       6.78063800 </v>
   </varray>
   <i name="volume">    311.75374380 </i>
   <varray name="rec_basis" >
    <v>       0.14747875       0.00000000       0.00000000 </v>
    <v>       0.00000000       0.14747875       0.00000000 </v>
    <v>       0.00000000       0.00000000       0.14747875 </v>
   </varray>
  </crystal>
  <varray name="positions" >
   <v>       0.12500000       0.37500000       0.12500000 </v>
   <v>       0.62500000       0.37500000       0.12500000 </v>
   <v>       0.12500000       0.87500000       0.12500000 </v>
   <v>       0.62500000       0.87500000       0.12500000 </v>
   <v>       0.12500000       0.37500000       0.62500000 </v>
   <v>       0.62500000       0.37500000       0.62500000 </v>
   <v>       0.12500000       0.87500000       0.62500000 </v>
   <v>       0.62500000       0.87500000       0.62500000 </v>
   <v>       0.00000000       0.00000000       0.25000000 </v>
   <v>       0.50000000       0.00000000       0.25000000 </v>
   <v>       0.00000000       0.50000000       0.25000000 </v>
   <v>       0.50000000       0.50000000       0.25000000 </v>
   <v>       0.00000000       0.00000000       0.75000000 </v>
   <v>       0.50000000       0.00000000       0.75000000 </v>
   <v>       0.00000000       0.50000000       0.75000000 </v>
   <v>       0.50000000       0.50000000       0.75000000 </v>
   <v>       0.12500000       0.12500000       0.37500000 </v>
   <v>       0.62500000       0.12500000       0.37500000 </v>
   <v>       0.12500000       0.62500000       0.37500000 </v>
   <v>       0.62500000       0.62500000       0.37500000 </v>
   <v>       0.12500000       0.12500000       0.87500000 </v>
   <v>       0.62500000       0.12500000       0.87500000 </v>
   <v>       0.12500000       0.62500000       0.87500000 </v>
   <v>       0.62500000       0.62500000       0.87500000 </v>
   <v>       0.00000000       0.25000000       0.00000000 </v>
   <v>       0.50000000       0.25000000       0.00000000 </v>
   <v>       0.00000000       0.75000000       0.00000000 </v>
   <v>       0.50000000       0.75000000       0.00000000 </v>
   <v>       0.00000000       0.25000000       0.50000000 </v>
   <v>       0.50000000       0.25000000       0.50000000 </v>
   <v>       0.00000000       0.75000000       0.50000000 </v>
   <v>       0.50000000       0.75000000       0.50000000 </v>
   <v>       0.37500000       0.37500000       0.37500000 </v>
   <v>       0.87500000       0.37500000       0.37500000 </v>
   <v>       0.37500000       0.87500000       0.37500000 </v>
   <v>       0.87500000       0.87500000       0.37500000 </v>
   <v>       0.37500000       0.37500000       0.87500000 </v>
   <v>       0.87500000       0.37500000       0.87500000 </v>
   <v>       0.37500000       0.87500000       0.87500000 </v>
   <v>       0.87500000       0.87500000       0.87500000 </v>
   <v>       0.25000000       0.00000000       0.00000000 </v>
   <v>       0.75000000       0.00000000       0.00000000 </v>
   <v>       0.25000000       0.50000000       0.00000000 </v>
   <v>       0.75000000       0.50000000       0.00000000 </v>
   <v>       0.25000000       0.00000000       0.50000000 </v>
   <v>       0.75000000       0.00000000       0.50000000 </v>
   <v>       0.25000000       0.50000000       0.50000000 </v>
   <v>       0.75000000       0.50000000       0.50000000 </v>
   <v>       0.37500000       0.12500000       0.12500000 </v>
   <v>       0.87500000       0.12500000       0.12500000 </v>
   <v>       0.37500000       0.62500000       0.12500000 </v>
   <v>       0.87500000       0.62500000       0.12500000 </v>
   <v>       0.37500000       0.12500000       0.62500000 </v>
   <v>       0.87500000       0.12500000       0.62500000 </v>
   <v>       0.37500000       0.62500000       0.62500000 </v>
   <v>       0.87500000       0.62500000       0.62500000 </v>
   <v>       0.25000000       0.25000000       0.25000000 </v>
   <v>       0.75000000       0.25000000       0.25000000 </v>
   <v>       0.25000000       0.75000000       0.25000000 </v>
   <v>       0.75000000       0.75000000       0.25000000 </v>
   <v>       0.25000000       0.25000000       0.75000000 </v>
   <v>       0.75000000       0.25000000       0.75000000 </v>
   <v>       0.25000000       0.75000000       0.75000000 </v>
   <v>       0.75000000       0.75000000       0.75000000 </v>
  </varray>
 </structure>
</modeling>
