   8   8   0   0
  0.5780014E+01  0.3589999E-09  0.3589999E-09  0.3589999E-09  0.2000000E-16
  1.000000000000000E-004
  CAR 
 unknown system                          
     23.04800572    -13.40256116  301      9.57648371      1.00000000
    -13.403  0.0000E+00  0.0000E+00
    -13.281  0.0000E+00  0.0000E+00
    -13.160  0.0000E+00  0.0000E+00
    -13.038  0.0000E+00  0.0000E+00
    -12.917  0.0000E+00  0.0000E+00
    -12.795  0.0000E+00  0.0000E+00
    -12.674  0.0000E+00  0.0000E+00
    -12.552  0.0000E+00  0.0000E+00
    -12.431  0.0000E+00  0.0000E+00
    -12.309  0.0000E+00  0.0000E+00
    -12.188  0.0000E+00  0.0000E+00
    -12.066  0.0000E+00  0.0000E+00
    -11.945  0.0000E+00  0.0000E+00
    -11.823  0.0000E+00  0.0000E+00
    -11.702  0.3604E-01  0.5308E-03
    -11.580  0.1563E+00  0.1515E-01
    -11.459  0.2443E+00  0.3955E-01
    -11.337  0.2768E+00  0.7085E-01
    -11.216  0.3252E+00  0.1074E+00
    -11.094  0.3647E+00  0.1499E+00
    -10.973  0.3948E+00  0.1959E+00
    -10.851  0.4270E+00  0.2457E+00
    -10.730  0.4660E+00  0.3000E+00
    -10.608  0.4884E+00  0.3581E+00
    -10.487  0.5123E+00  0.4189E+00
    -10.365  0.5391E+00  0.4827E+00
    -10.244  0.5679E+00  0.5499E+00
    -10.122  0.5947E+00  0.6207E+00
    -10.001  0.6154E+00  0.6941E+00
     -9.879  0.6381E+00  0.7702E+00
     -9.758  0.6638E+00  0.8493E+00
     -9.636  0.6915E+00  0.9316E+00
     -9.515  0.7216E+00  0.1017E+01
     -9.393  0.7306E+00  0.1106E+01
     -9.271  0.7410E+00  0.1195E+01
     -9.150  0.7608E+00  0.1287E+01
     -9.028  0.7788E+00  0.1380E+01
     -8.907  0.8004E+00  0.1476E+01
     -8.785  0.8245E+00  0.1575E+01
     -8.664  0.8462E+00  0.1676E+01
     -8.542  0.8632E+00  0.1780E+01
     -8.421  0.8851E+00  0.1886E+01
     -8.299  0.9052E+00  0.1995E+01
     -8.178  0.9240E+00  0.2106E+01
     -8.056  0.9415E+00  0.2219E+01
     -7.935  0.9589E+00  0.2335E+01
     -7.813  0.1038E+01  0.2456E+01
     -7.692  0.1094E+01  0.2586E+01
     -7.570  0.1116E+01  0.2721E+01
     -7.449  0.1102E+01  0.2856E+01
     -7.327  0.1049E+01  0.2987E+01
     -7.206  0.1057E+01  0.3115E+01
     -7.084  0.1090E+01  0.3245E+01
     -6.963  0.1105E+01  0.3379E+01
     -6.841  0.1141E+01  0.3515E+01
     -6.720  0.1204E+01  0.3657E+01
     -6.598  0.1202E+01  0.3802E+01
     -6.477  0.1301E+01  0.3954E+01
     -6.355  0.1370E+01  0.4116E+01
     -6.234  0.1439E+01  0.4284E+01
     -6.112  0.1510E+01  0.4472E+01
     -5.991  0.1537E+01  0.4657E+01
     -5.869  0.1499E+01  0.4840E+01
     -5.748  0.1449E+01  0.5021E+01
     -5.626  0.1436E+01  0.5196E+01
     -5.505  0.1468E+01  0.5375E+01
     -5.383  0.1414E+01  0.5552E+01
     -5.262  0.1417E+01  0.5723E+01
     -5.140  0.1324E+01  0.5888E+01
     -5.019  0.1242E+01  0.6044E+01
     -4.897  0.1239E+01  0.6194E+01
     -4.776  0.1239E+01  0.6344E+01
     -4.654  0.1155E+01  0.6490E+01
     -4.533  0.1105E+01  0.6627E+01
     -4.411  0.1118E+01  0.6761E+01
     -4.290  0.1099E+01  0.6898E+01
     -4.168  0.1027E+01  0.7026E+01
     -4.047  0.1024E+01  0.7151E+01
     -3.925  0.9836E+00  0.7273E+01
     -3.804  0.9441E+00  0.7392E+01
     -3.682  0.8667E+00  0.7502E+01
     -3.561  0.8940E+00  0.7608E+01
     -3.439  0.9820E+00  0.7727E+01
     -3.318  0.1021E+01  0.7845E+01
     -3.196  0.9840E+00  0.7974E+01
     -3.075  0.8893E+00  0.8088E+01
     -2.953  0.9221E+00  0.8195E+01
     -2.832  0.9680E+00  0.8308E+01
     -2.710  0.8662E+00  0.8416E+01
     -2.589  0.9668E+00  0.8527E+01
     -2.467  0.1129E+01  0.8653E+01
     -2.346  0.1344E+01  0.8802E+01
     -2.224  0.1596E+01  0.8981E+01
     -2.103  0.2033E+01  0.9199E+01
     -1.981  0.2311E+01  0.9465E+01
     -1.860  0.2564E+01  0.9759E+01
     -1.738  0.2876E+01  0.1010E+02
     -1.617  0.2378E+01  0.1042E+02
     -1.495  0.2074E+01  0.1069E+02
     -1.374  0.1752E+01  0.1092E+02
     -1.252  0.1627E+01  0.1112E+02
     -1.131  0.1530E+01  0.1131E+02
     -1.009  0.1460E+01  0.1150E+02
     -0.888  0.1408E+01  0.1167E+02
     -0.766  0.1358E+01  0.1184E+02
     -0.645  0.1324E+01  0.1200E+02
     -0.523  0.1290E+01  0.1216E+02
     -0.402  0.1221E+01  0.1231E+02
     -0.280  0.1133E+01  0.1246E+02
     -0.159  0.1105E+01  0.1259E+02
     -0.037  0.1084E+01  0.1273E+02
      0.084  0.1063E+01  0.1286E+02
      0.206  0.1005E+01  0.1298E+02
      0.327  0.1035E+01  0.1311E+02
      0.449  0.1262E+01  0.1324E+02
      0.570  0.1559E+01  0.1342E+02
      0.692  0.1831E+01  0.1362E+02
      0.813  0.2164E+01  0.1386E+02
      0.935  0.2297E+01  0.1414E+02
      1.056  0.2133E+01  0.1441E+02
      1.178  0.2198E+01  0.1468E+02
      1.299  0.2274E+01  0.1495E+02
      1.421  0.2214E+01  0.1522E+02
      1.542  0.1817E+01  0.1547E+02
      1.664  0.1482E+01  0.1567E+02
      1.785  0.1488E+01  0.1584E+02
      1.907  0.1872E+01  0.1605E+02
      2.028  0.2190E+01  0.1629E+02
      2.150  0.2447E+01  0.1658E+02
      2.271  0.2341E+01  0.1687E+02
      2.393  0.2300E+01  0.1716E+02
      2.514  0.2326E+01  0.1744E+02
      2.636  0.2400E+01  0.1772E+02
      2.757  0.2632E+01  0.1802E+02
      2.879  0.2979E+01  0.1836E+02
      3.000  0.3190E+01  0.1874E+02
      3.122  0.2561E+01  0.1909E+02
      3.243  0.2917E+01  0.1940E+02
      3.365  0.2618E+01  0.1973E+02
      3.486  0.2579E+01  0.2005E+02
      3.608  0.3176E+01  0.2039E+02
      3.729  0.3564E+01  0.2080E+02
      3.851  0.3762E+01  0.2127E+02
      3.972  0.3331E+01  0.2169E+02
      4.094  0.3052E+01  0.2207E+02
      4.215  0.2701E+01  0.2243E+02
      4.337  0.2824E+01  0.2276E+02
      4.458  0.2831E+01  0.2310E+02
      4.580  0.3048E+01  0.2346E+02
      4.701  0.2900E+01  0.2382E+02
      4.823  0.2922E+01  0.2418E+02
      4.944  0.2975E+01  0.2454E+02
      5.066  0.3011E+01  0.2490E+02
      5.187  0.3072E+01  0.2527E+02
      5.309  0.2994E+01  0.2564E+02
      5.430  0.2638E+01  0.2599E+02
      5.552  0.2401E+01  0.2630E+02
      5.673  0.2501E+01  0.2659E+02
      5.795  0.2571E+01  0.2690E+02
      5.916  0.2786E+01  0.2722E+02
      6.038  0.2808E+01  0.2756E+02
      6.159  0.2750E+01  0.2791E+02
      6.281  0.2713E+01  0.2825E+02
      6.402  0.2626E+01  0.2857E+02
      6.524  0.2375E+01  0.2888E+02
      6.645  0.2280E+01  0.2915E+02
      6.767  0.2360E+01  0.2943E+02
      6.888  0.2197E+01  0.2974E+02
      7.010  0.1828E+01  0.2998E+02
      7.131  0.1648E+01  0.3019E+02
      7.253  0.1483E+01  0.3038E+02
      7.374  0.1366E+01  0.3055E+02
      7.496  0.1294E+01  0.3071E+02
      7.617  0.1192E+01  0.3086E+02
      7.739  0.1083E+01  0.3100E+02
      7.860  0.9817E+00  0.3113E+02
      7.982  0.9052E+00  0.3124E+02
      8.103  0.8541E+00  0.3135E+02
      8.225  0.8177E+00  0.3145E+02
      8.346  0.7178E+00  0.3154E+02
      8.468  0.6460E+00  0.3162E+02
      8.589  0.5826E+00  0.3170E+02
      8.711  0.5420E+00  0.3177E+02
      8.832  0.4418E+00  0.3183E+02
      8.954  0.3650E+00  0.3188E+02
      9.075  0.3830E+00  0.3192E+02
      9.197  0.2343E+00  0.3196E+02
      9.318  0.1307E+00  0.3199E+02
      9.440  0.2740E-01  0.3200E+02
      9.561  0.0000E+00  0.3200E+02
      9.683  0.0000E+00  0.3200E+02
      9.804  0.0000E+00  0.3200E+02
      9.926  0.0000E+00  0.3200E+02
     10.047  0.0000E+00  0.3200E+02
     10.169  0.0000E+00  0.3200E+02
     10.290  0.0000E+00  0.3200E+02
     10.412  0.0000E+00  0.3200E+02
     10.533  0.0000E+00  0.3200E+02
     10.655  0.0000E+00  0.3200E+02
     10.776  0.0000E+00  0.3200E+02
     10.898  0.0000E+00  0.3200E+02
     11.019  0.0000E+00  0.3200E+02
     11.141  0.0000E+00  0.3200E+02
     11.262  0.0000E+00  0.3200E+02
     11.384  0.0000E+00  0.3200E+02
     11.505  0.0000E+00  0.3200E+02
     11.627  0.0000E+00  0.3200E+02
     11.748  0.0000E+00  0.3200E+02
     11.870  0.0000E+00  0.3200E+02
     11.991  0.0000E+00  0.3200E+02
     12.113  0.0000E+00  0.3200E+02
     12.234  0.0000E+00  0.3200E+02
     12.356  0.0000E+00  0.3200E+02
     12.477  0.0000E+00  0.3200E+02
     12.599  0.0000E+00  0.3200E+02
     12.720  0.0000E+00  0.3200E+02
     12.842  0.0000E+00  0.3200E+02
     12.963  0.0000E+00  0.3200E+02
     13.085  0.0000E+00  0.3200E+02
     13.206  0.0000E+00  0.3200E+02
     13.328  0.0000E+00  0.3200E+02
     13.449  0.0000E+00  0.3200E+02
     13.571  0.1131E-01  0.3200E+02
     13.692  0.1572E+00  0.3201E+02
     13.814  0.4653E+00  0.3205E+02
     13.935  0.5836E+00  0.3212E+02
     14.057  0.6610E+00  0.3220E+02
     14.178  0.6872E+00  0.3228E+02
     14.300  0.8308E+00  0.3237E+02
     14.421  0.9520E+00  0.3248E+02
     14.543  0.1058E+01  0.3260E+02
     14.664  0.1229E+01  0.3274E+02
     14.786  0.1475E+01  0.3290E+02
     14.907  0.1541E+01  0.3309E+02
     15.029  0.1600E+01  0.3328E+02
     15.150  0.1577E+01  0.3347E+02
     15.272  0.1643E+01  0.3367E+02
     15.393  0.1807E+01  0.3388E+02
     15.515  0.1970E+01  0.3411E+02
     15.636  0.2123E+01  0.3436E+02
     15.758  0.2220E+01  0.3462E+02
     15.879  0.2139E+01  0.3489E+02
     16.001  0.2156E+01  0.3515E+02
     16.122  0.2161E+01  0.3541E+02
     16.244  0.2258E+01  0.3568E+02
     16.365  0.2363E+01  0.3596E+02
     16.487  0.2580E+01  0.3626E+02
     16.608  0.2691E+01  0.3658E+02
     16.730  0.2860E+01  0.3691E+02
     16.851  0.3101E+01  0.3728E+02
     16.973  0.3251E+01  0.3767E+02
     17.094  0.3283E+01  0.3806E+02
     17.216  0.3667E+01  0.3848E+02
     17.337  0.4060E+01  0.3895E+02
     17.459  0.4119E+01  0.3945E+02
     17.580  0.4636E+01  0.3997E+02
     17.702  0.4404E+01  0.4054E+02
     17.823  0.3591E+01  0.4101E+02
     17.945  0.3525E+01  0.4144E+02
     18.066  0.3228E+01  0.4185E+02
     18.188  0.3325E+01  0.4224E+02
     18.309  0.3504E+01  0.4266E+02
     18.431  0.3488E+01  0.4309E+02
     18.552  0.3490E+01  0.4352E+02
     18.674  0.3176E+01  0.4392E+02
     18.795  0.3129E+01  0.4431E+02
     18.917  0.2897E+01  0.4467E+02
     19.038  0.2792E+01  0.4502E+02
     19.160  0.2716E+01  0.4535E+02
     19.281  0.2776E+01  0.4568E+02
     19.403  0.2789E+01  0.4602E+02
     19.524  0.2798E+01  0.4636E+02
     19.646  0.2821E+01  0.4670E+02
     19.767  0.2562E+01  0.4702E+02
     19.889  0.2246E+01  0.4731E+02
     20.010  0.1813E+01  0.4756E+02
     20.132  0.1140E+01  0.4774E+02
     20.253  0.6048E+00  0.4785E+02
     20.375  0.3613E+00  0.4791E+02
     20.496  0.2460E+00  0.4794E+02
     20.618  0.1620E+00  0.4797E+02
     20.739  0.9392E-01  0.4798E+02
     20.861  0.4839E-01  0.4799E+02
     20.982  0.3004E-01  0.4800E+02
     21.104  0.1860E-01  0.4800E+02
     21.225  0.6190E-02  0.4800E+02
     21.347  0.4398E-03  0.4800E+02
     21.468  0.0000E+00  0.4800E+02
     21.590  0.0000E+00  0.4800E+02
     21.711  0.0000E+00  0.4800E+02
     21.833  0.0000E+00  0.4800E+02
     21.954  0.0000E+00  0.4800E+02
     22.076  0.0000E+00  0.4800E+02
     22.197  0.0000E+00  0.4800E+02
     22.319  0.0000E+00  0.4800E+02
     22.440  0.0000E+00  0.4800E+02
     22.562  0.0000E+00  0.4800E+02
     22.684  0.0000E+00  0.4800E+02
     22.805  0.0000E+00  0.4800E+02
     22.927  0.0000E+00  0.4800E+02
     23.048  0.0000E+00  0.4800E+02
