       N       E                     dE             d eps       ncg     rms          rms(c)
DAV:   1     0.577106977619E+02    0.57711E+02   -0.14416E+04  9080   0.105E+03
DAV:   2    -0.707867318432E+02   -0.12850E+03   -0.12188E+03 12472   0.221E+02
DAV:   3    -0.750029634938E+02   -0.42162E+01   -0.41968E+01 11872   0.374E+01
DAV:   4    -0.750451009950E+02   -0.42138E-01   -0.42098E-01 11352   0.411E+00
DAV:   5    -0.750459657928E+02   -0.86480E-03   -0.86440E-03 11864   0.533E-01    0.931E+00
DAV:   6    -0.732420060241E+02    0.18040E+01   -0.12011E+00 10344   0.622E+00    0.512E+00
DAV:   7    -0.726330997062E+02    0.60891E+00   -0.13672E+00 10696   0.683E+00    0.694E-01
DAV:   8    -0.726404516590E+02   -0.73520E-02   -0.28715E-02 11456   0.989E-01    0.779E-02
DAV:   9    -0.726406751694E+02   -0.22351E-03   -0.44044E-04 11016   0.141E-01    0.291E-02
DAV:  10    -0.726407321093E+02   -0.56940E-04   -0.46809E-05 11328   0.514E-02    0.279E-03
DAV:  11    -0.726407331196E+02   -0.10103E-05   -0.11064E-06  8536   0.763E-03    0.709E-04
DAV:  12    -0.726407330337E+02    0.85971E-07   -0.98422E-08  8200   0.221E-03
   1 F= -.72640733E+02 E0= -.72640733E+02  d E =0.000000E+00
