 vasp.5.4.4.18Apr17-6-g9f103f2a35 (build Mar 12 2022 03:36:41) complex          
  
 executed on IFC19.0.3.199_CrayMP date 2022.11.30  12:21:43
 running on   16 total cores
 distrk:  each k-point on   16 cores,    1 groups
 distr:  one band on NCORES_PER_BAND=   4 cores,    4 groups


--------------------------------------------------------------------------------------------------------


 INCAR:
 POTCAR:   PAW_PBE C 08Apr2002                    
 POTCAR:   PAW_PBE C 08Apr2002                    
   VRHFIN =C: s2p2                                                              
   LEXCH  = PE                                                                  
   EATOM  =   147.1560 eV,   10.8157 Ry                                         
                                                                                
   TITEL  = PAW_PBE C 08Apr2002                                                 
   LULTRA =        F    use ultrasoft PP ?                                      
   IUNSCR =        0    unscreen: 0-lin 1-nonlin 2-no                           
   RPACOR =     .000    partial core radius                                     
   POMASS =   12.011; ZVAL   =    4.000    mass and valenz                      
   RCORE  =    1.500    outmost cutoff radius                                   
   RWIGS  =    1.630; RWIGS  =     .863    wigner-seitz radius (au A)           
   ENMAX  =  400.000; ENMIN  =  300.000 eV                                      
   ICORE  =        2    local potential                                         
   LCOR   =        T    correct aug charges                                     
   LPAW   =        T    paw PP                                                  
   EAUG   =  644.873                                                            
   DEXC   =     .000                                                            
   RMAX   =    2.266    core radius for proj-oper                               
   RAUG   =    1.300    factor for augmentation sphere                          
   RDEP   =    1.501    radius for radial grids                                 
   RDEPT  =    1.300    core radius for aug-charge                              
   QCUT   =   -5.516; QGAM   =   11.032    optimization parameters              
                                                                                
   Description                                                                  
     l     E      TYP  RCUT    TYP  RCUT                                        
     0   .000     23  1.200                                                     
     0   .000     23  1.200                                                     
     1   .000     23  1.500                                                     
     1  2.500     23  1.500                                                     
     2   .000      7  1.500                                                     
  local pseudopotential read in
  atomic valenz-charges read in
  non local Contribution for L=           0  read in
    real space projection operators read in
  non local Contribution for L=           0  read in
    real space projection operators read in
  non local Contribution for L=           1  read in
    real space projection operators read in
  non local Contribution for L=           1  read in
    real space projection operators read in
    PAW grid and wavefunctions read in
 
   number of l-projection  operators is LMAX  =           4
   number of lm-projection operators is LMMAX =           8
 
 PAW_PBE C 08Apr2002                    :
 energy of atom  1       EATOM= -147.1560
 kinetic energy error for atom=    0.0288 (will be added to EATOM!!)
 
 
 POSCAR: C8                                      
  positions in direct lattice
  No initial velocities read in
 exchange correlation table for  LEXCH =        8
   RHO(1)=    0.500       N(1)  =     2000
   RHO(2)=  100.500       N(2)  =     4000
 


--------------------------------------------------------------------------------------------------------


 ion  position               nearest neighbor table
   1  0.250  0.750  0.250-   2 1.47   4 1.47   6 1.47   8 1.47
   2  0.000  0.000  0.500-   1 1.47   3 1.47   5 1.47   7 1.47
   3  0.250  0.250  0.750-   2 1.47   4 1.47   6 1.47   8 1.47
   4  0.000  0.500  0.000-   1 1.47   3 1.47   5 1.47   7 1.47
   5  0.750  0.750  0.750-   2 1.47   4 1.47   6 1.47   8 1.47
   6  0.500  0.000  0.000-   1 1.47   3 1.47   5 1.47   7 1.47
   7  0.750  0.250  0.250-   2 1.47   4 1.47   6 1.47   8 1.47
   8  0.500  0.500  0.500-   1 1.47   3 1.47   5 1.47   7 1.47
 
  LATTYP: Found a simple cubic cell.
 ALAT       =     3.3903190000
  
  Lattice vectors:
  
 A1 = (   3.3903190000,   0.0000000000,   0.0000000000)
 A2 = (   0.0000000000,   3.3903190000,   0.0000000000)
 A3 = (   0.0000000000,   0.0000000000,   3.3903190000)


Analysis of symmetry for initial positions (statically):
=====================================================================
 Subroutine PRICEL returns following result:
 
  LATTYP: Found a face centered cubic cell.
 ALAT       =     3.3903190000
  
  Lattice vectors:
  
 A1 = (   1.6951595000,   1.6951595000,   0.0000000000)
 A2 = (   1.6951595000,   0.0000000000,  -1.6951595000)
 A3 = (   0.0000000000,   1.6951595000,  -1.6951595000)
 
   4 primitive cells build up your supercell.
 

 Routine SETGRP: Setting up the symmetry group for a 
 simple cubic supercell.


 Subroutine GETGRP returns: Found 48 space group operations
 (whereof 24 operations were pure point group operations)
 out of a pool of 48 trial point group operations.


The static configuration has the point symmetry T_d .
 The point group associated with its full space group is O_h .


Analysis of symmetry for dynamics (positions and initial velocities):
=====================================================================
 Subroutine PRICEL returns following result:
 
  LATTYP: Found a face centered cubic cell.
 ALAT       =     3.3903190000
  
  Lattice vectors:
  
 A1 = (   1.6951595000,   1.6951595000,   0.0000000000)
 A2 = (   1.6951595000,   0.0000000000,  -1.6951595000)
 A3 = (   0.0000000000,   1.6951595000,  -1.6951595000)
 
   4 primitive cells build up your supercell.
 

 Routine SETGRP: Setting up the symmetry group for a 
 simple cubic supercell.


 Subroutine GETGRP returns: Found 48 space group operations
 (whereof 24 operations were pure point group operations)
 out of a pool of 48 trial point group operations.


The dynamic configuration has the point symmetry T_d .
 The point group associated with its full space group is O_h .


 Subroutine INISYM returns: Found 48 space group operations
 (whereof 24 operations are pure point group operations),
 and found     4 'primitive' translations

 
 
 KPOINTS: kpt_density=1000                        

Automatic generation of k-mesh.
Space group operators:
 irot       det(A)        alpha          n_x          n_y          n_z        tau_x        tau_y        tau_z
    1     1.000000     0.000001     1.000000     0.000000     0.000000     0.000000     0.000000     0.000000
    2     1.000000   120.000000    -0.577350    -0.577350    -0.577350     0.000000     0.000000     0.000000
    3     1.000000   120.000000     0.577350     0.577350     0.577350     0.000000     0.000000     0.000000
    4    -1.000000    90.000000     0.000000     0.000000    -1.000000     0.000000     0.000000     0.000000
    5    -1.000000   180.000000     0.000000     0.707107     0.707107     0.000000     0.000000     0.000000
    6    -1.000000    90.000000     0.000000     1.000000     0.000000     0.000000     0.000000     0.000000
    7     1.000000   180.000000     0.000000     0.000000     1.000000     0.000000     0.000000     0.000000
    8     1.000000   120.000000    -0.577350     0.577350     0.577350     0.000000     0.000000     0.000000
    9     1.000000   120.000000    -0.577350     0.577350    -0.577350     0.000000     0.000000     0.000000
   10    -1.000000    90.000000     0.000000     0.000000     1.000000     0.000000     0.000000     0.000000
   11    -1.000000    90.000000    -1.000000     0.000000     0.000000     0.000000     0.000000     0.000000
   12    -1.000000   180.000000     0.707107     0.000000     0.707107     0.000000     0.000000     0.000000
   13     1.000000   120.000000     0.577350    -0.577350     0.577350     0.000000     0.000000     0.000000
   14     1.000000   120.000000    -0.577350    -0.577350     0.577350     0.000000     0.000000     0.000000
   15     1.000000   180.000000     1.000000     0.000000     0.000000     0.000000     0.000000     0.000000
   16    -1.000000    90.000000     0.000000    -1.000000     0.000000     0.000000     0.000000     0.000000
   17    -1.000000   180.000000     0.707107     0.707107     0.000000     0.000000     0.000000     0.000000
   18    -1.000000    90.000000     1.000000     0.000000     0.000000     0.000000     0.000000     0.000000
   19     1.000000   120.000000     0.577350    -0.577350    -0.577350     0.000000     0.000000     0.000000
   20     1.000000   180.000000     0.000000     1.000000     0.000000     0.000000     0.000000     0.000000
   21     1.000000   120.000000     0.577350     0.577350    -0.577350     0.000000     0.000000     0.000000
   22    -1.000000   180.000000     0.000000    -0.707107     0.707107     0.000000     0.000000     0.000000
   23    -1.000000   180.000000     0.707107    -0.707107     0.000000     0.000000     0.000000     0.000000
   24    -1.000000   180.000000     0.707107     0.000000    -0.707107     0.000000     0.000000     0.000000
   25    -1.000000     0.000001     1.000000     0.000000     0.000000     0.750000     0.750000    -0.750000
   26    -1.000000   120.000000    -0.577350    -0.577350    -0.577350     0.750000     0.750000    -0.750000
   27    -1.000000   120.000000     0.577350     0.577350     0.577350     0.750000     0.750000    -0.750000
   28     1.000000    90.000000     0.000000     0.000000    -1.000000     0.750000     0.750000    -0.750000
   29     1.000000   180.000000     0.000000     0.707107     0.707107     0.750000     0.750000    -0.750000
   30     1.000000    90.000000     0.000000     1.000000     0.000000     0.750000     0.750000    -0.750000
   31    -1.000000   180.000000     0.000000     0.000000     1.000000     0.750000     0.750000    -0.750000
   32    -1.000000   120.000000    -0.577350     0.577350     0.577350     0.750000     0.750000    -0.750000
   33    -1.000000   120.000000    -0.577350     0.577350    -0.577350     0.750000     0.750000    -0.750000
   34     1.000000    90.000000     0.000000     0.000000     1.000000     0.750000     0.750000    -0.750000
   35     1.000000    90.000000    -1.000000     0.000000     0.000000     0.750000     0.750000    -0.750000
   36     1.000000   180.000000     0.707107     0.000000     0.707107     0.750000     0.750000    -0.750000
   37    -1.000000   120.000000     0.577350    -0.577350     0.577350     0.750000     0.750000    -0.750000
   38    -1.000000   120.000000    -0.577350    -0.577350     0.577350     0.750000     0.750000    -0.750000
   39    -1.000000   180.000000     1.000000     0.000000     0.000000     0.750000     0.750000    -0.750000
   40     1.000000    90.000000     0.000000    -1.000000     0.000000     0.750000     0.750000    -0.750000
   41     1.000000   180.000000     0.707107     0.707107     0.000000     0.750000     0.750000    -0.750000
   42     1.000000    90.000000     1.000000     0.000000     0.000000     0.750000     0.750000    -0.750000
   43    -1.000000   120.000000     0.577350    -0.577350    -0.577350     0.750000     0.750000    -0.750000
   44    -1.000000   180.000000     0.000000     1.000000     0.000000     0.750000     0.750000    -0.750000
   45    -1.000000   120.000000     0.577350     0.577350    -0.577350     0.750000     0.750000    -0.750000
   46     1.000000   180.000000     0.000000    -0.707107     0.707107     0.750000     0.750000    -0.750000
   47     1.000000   180.000000     0.707107    -0.707107     0.000000     0.750000     0.750000    -0.750000
   48     1.000000   180.000000     0.707107     0.000000    -0.707107     0.750000     0.750000    -0.750000
 
 Subroutine IBZKPT returns following result:
 ===========================================
 
 Found     84 irreducible k-points:
 
 Following reciprocal coordinates:
            Coordinates               Weight
  0.000000  0.000000  0.000000      1.000000
  0.083333  0.000000  0.000000      6.000000
  0.166667  0.000000  0.000000      6.000000
  0.250000  0.000000  0.000000      6.000000
  0.333333  0.000000  0.000000      6.000000
  0.416667  0.000000  0.000000      6.000000
  0.500000  0.000000  0.000000      3.000000
  0.083333  0.083333  0.000000     12.000000
  0.166667  0.083333  0.000000     24.000000
  0.250000  0.083333  0.000000     24.000000
  0.333333  0.083333  0.000000     24.000000
  0.416667  0.083333  0.000000     24.000000
  0.500000  0.083333  0.000000     12.000000
  0.166667  0.166667  0.000000     12.000000
  0.250000  0.166667  0.000000     24.000000
  0.333333  0.166667  0.000000     24.000000
  0.416667  0.166667  0.000000     24.000000
  0.500000  0.166667  0.000000     12.000000
  0.250000  0.250000  0.000000     12.000000
  0.333333  0.250000  0.000000     24.000000
  0.416667  0.250000  0.000000     24.000000
  0.500000  0.250000  0.000000     12.000000
  0.333333  0.333333  0.000000     12.000000
  0.416667  0.333333  0.000000     24.000000
  0.500000  0.333333  0.000000     12.000000
  0.416667  0.416667  0.000000     12.000000
  0.500000  0.416667  0.000000     12.000000
  0.500000  0.500000  0.000000      3.000000
  0.083333  0.083333  0.083333      8.000000
  0.166667  0.083333  0.083333     24.000000
  0.250000  0.083333  0.083333     24.000000
  0.333333  0.083333  0.083333     24.000000
  0.416667  0.083333  0.083333     24.000000
  0.500000  0.083333  0.083333     12.000000
  0.166667  0.166667  0.083333     24.000000
  0.250000  0.166667  0.083333     48.000000
  0.333333  0.166667  0.083333     48.000000
  0.416667  0.166667  0.083333     48.000000
  0.500000  0.166667  0.083333     24.000000
  0.250000  0.250000  0.083333     24.000000
  0.333333  0.250000  0.083333     48.000000
  0.416667  0.250000  0.083333     48.000000
  0.500000  0.250000  0.083333     24.000000
  0.333333  0.333333  0.083333     24.000000
  0.416667  0.333333  0.083333     48.000000
  0.500000  0.333333  0.083333     24.000000
  0.416667  0.416667  0.083333     24.000000
  0.500000  0.416667  0.083333     24.000000
  0.500000  0.500000  0.083333      6.000000
  0.166667  0.166667  0.166667      8.000000
  0.250000  0.166667  0.166667     24.000000
  0.333333  0.166667  0.166667     24.000000
  0.416667  0.166667  0.166667     24.000000
  0.500000  0.166667  0.166667     12.000000
  0.250000  0.250000  0.166667     24.000000
  0.333333  0.250000  0.166667     48.000000
  0.416667  0.250000  0.166667     48.000000
  0.500000  0.250000  0.166667     24.000000
  0.333333  0.333333  0.166667     24.000000
  0.416667  0.333333  0.166667     48.000000
  0.500000  0.333333  0.166667     24.000000
  0.416667  0.416667  0.166667     24.000000
  0.500000  0.416667  0.166667     24.000000
  0.500000  0.500000  0.166667      6.000000
  0.250000  0.250000  0.250000      8.000000
  0.333333  0.250000  0.250000     24.000000
  0.416667  0.250000  0.250000     24.000000
  0.500000  0.250000  0.250000     12.000000
  0.333333  0.333333  0.250000     24.000000
  0.416667  0.333333  0.250000     48.000000
  0.500000  0.333333  0.250000     24.000000
  0.416667  0.416667  0.250000     24.000000
  0.500000  0.416667  0.250000     24.000000
  0.500000  0.500000  0.250000      6.000000
  0.333333  0.333333  0.333333      8.000000
  0.416667  0.333333  0.333333     24.000000
  0.500000  0.333333  0.333333     12.000000
  0.416667  0.416667  0.333333     24.000000
  0.500000  0.416667  0.333333     24.000000
  0.500000  0.500000  0.333333      6.000000
  0.416667  0.416667  0.416667      8.000000
  0.500000  0.416667  0.416667     12.000000
  0.500000  0.500000  0.416667      6.000000
  0.500000  0.500000  0.500000      1.000000
 
 Following cartesian coordinates:
            Coordinates               Weight
  0.000000  0.000000  0.000000      1.000000
  0.024580  0.000000  0.000000      6.000000
  0.049160  0.000000  0.000000      6.000000
  0.073739  0.000000  0.000000      6.000000
  0.098319  0.000000  0.000000      6.000000
  0.122899  0.000000  0.000000      6.000000
  0.147479  0.000000  0.000000      3.000000
  0.024580  0.024580  0.000000     12.000000
  0.049160  0.024580  0.000000     24.000000
  0.073739  0.024580  0.000000     24.000000
  0.098319  0.024580  0.000000     24.000000
  0.122899  0.024580  0.000000     24.000000
  0.147479  0.024580  0.000000     12.000000
  0.049160  0.049160  0.000000     12.000000
  0.073739  0.049160  0.000000     24.000000
  0.098319  0.049160  0.000000     24.000000
  0.122899  0.049160  0.000000     24.000000
  0.147479  0.049160  0.000000     12.000000
  0.073739  0.073739  0.000000     12.000000
  0.098319  0.073739  0.000000     24.000000
  0.122899  0.073739  0.000000     24.000000
  0.147479  0.073739  0.000000     12.000000
  0.098319  0.098319  0.000000     12.000000
  0.122899  0.098319  0.000000     24.000000
  0.147479  0.098319  0.000000     12.000000
  0.122899  0.122899  0.000000     12.000000
  0.147479  0.122899  0.000000     12.000000
  0.147479  0.147479  0.000000      3.000000
  0.024580  0.024580  0.024580      8.000000
  0.049160  0.024580  0.024580     24.000000
  0.073739  0.024580  0.024580     24.000000
  0.098319  0.024580  0.024580     24.000000
  0.122899  0.024580  0.024580     24.000000
  0.147479  0.024580  0.024580     12.000000
  0.049160  0.049160  0.024580     24.000000
  0.073739  0.049160  0.024580     48.000000
  0.098319  0.049160  0.024580     48.000000
  0.122899  0.049160  0.024580     48.000000
  0.147479  0.049160  0.024580     24.000000
  0.073739  0.073739  0.024580     24.000000
  0.098319  0.073739  0.024580     48.000000
  0.122899  0.073739  0.024580     48.000000
  0.147479  0.073739  0.024580     24.000000
  0.098319  0.098319  0.024580     24.000000
  0.122899  0.098319  0.024580     48.000000
  0.147479  0.098319  0.024580     24.000000
  0.122899  0.122899  0.024580     24.000000
  0.147479  0.122899  0.024580     24.000000
  0.147479  0.147479  0.024580      6.000000
  0.049160  0.049160  0.049160      8.000000
  0.073739  0.049160  0.049160     24.000000
  0.098319  0.049160  0.049160     24.000000
  0.122899  0.049160  0.049160     24.000000
  0.147479  0.049160  0.049160     12.000000
  0.073739  0.073739  0.049160     24.000000
  0.098319  0.073739  0.049160     48.000000
  0.122899  0.073739  0.049160     48.000000
  0.147479  0.073739  0.049160     24.000000
  0.098319  0.098319  0.049160     24.000000
  0.122899  0.098319  0.049160     48.000000
  0.147479  0.098319  0.049160     24.000000
  0.122899  0.122899  0.049160     24.000000
  0.147479  0.122899  0.049160     24.000000
  0.147479  0.147479  0.049160      6.000000
  0.073739  0.073739  0.073739      8.000000
  0.098319  0.073739  0.073739     24.000000
  0.122899  0.073739  0.073739     24.000000
  0.147479  0.073739  0.073739     12.000000
  0.098319  0.098319  0.073739     24.000000
  0.122899  0.098319  0.073739     48.000000
  0.147479  0.098319  0.073739     24.000000
  0.122899  0.122899  0.073739     24.000000
  0.147479  0.122899  0.073739     24.000000
  0.147479  0.147479  0.073739      6.000000
  0.098319  0.098319  0.098319      8.000000
  0.122899  0.098319  0.098319     24.000000
  0.147479  0.098319  0.098319     12.000000
  0.122899  0.122899  0.098319     24.000000
  0.147479  0.122899  0.098319     24.000000
  0.147479  0.147479  0.098319      6.000000
  0.122899  0.122899  0.122899      8.000000
  0.147479  0.122899  0.122899     12.000000
  0.147479  0.147479  0.122899      6.000000
  0.147479  0.147479  0.147479      1.000000
 
 TETIRR: Found    854 inequivalent tetrahedra from    10368


--------------------------------------------------------------------------------------------------------




 Dimension of arrays:
   k-points           NKPTS =     84   k-points in BZ     NKDIM =     84   number of bands    NBANDS=     24
   number of dos      NEDOS =    301   number of ions     NIONS =      8
   non local maximal  LDIM  =      4   non local SUM 2l+1 LMDIM =      8
   total plane-waves  NPLWV =  13824
   max r-space proj   IRMAX =      1   max aug-charges    IRDMAX=   4385
   dimension x,y,z NGX =    24 NGY =   24 NGZ =   24
   dimension x,y,z NGXF=    48 NGYF=   48 NGZF=   48
   support grid    NGXF=    48 NGYF=   48 NGZF=   48
   ions per type =               8
   NGX,Y,Z   is equivalent  to a cutoff of  11.77, 11.77, 11.77 a.u.
   NGXF,Y,Z  is equivalent  to a cutoff of  23.54, 23.54, 23.54 a.u.

 SYSTEM =  unknown system                          
 POSCAR =  C8                                      

 Startparameter for this run:
   NWRITE =      2    write-flag & timer
   PREC   = accura    normal or accurate (medium, high low for compatibility)
   ISTART =      0    job   : 0-new  1-cont  2-samecut
   ICHARG =      2    charge: 1-file 2-atom 10-const
   ISPIN  =      1    spin polarized calculation?
   LNONCOLLINEAR =      F non collinear calculations
   LSORBIT =      F    spin-orbit coupling
   INIWAV =      1    electr: 0-lowe 1-rand  2-diag
   LASPH  =      F    aspherical Exc in radial PAW
   METAGGA=      F    non-selfconsistent MetaGGA calc.

 Electronic Relaxation 1
   ENCUT  =  400.0 eV  29.40 Ry    5.42 a.u.   5.53  5.53  5.53*2*pi/ulx,y,z
   ENINI  =  400.0     initial cutoff
   ENAUG  =  644.9 eV  augmentation charge cutoff
   NELM   =     60;   NELMIN=  2; NELMDL= -5     # of ELM steps 
   EDIFF  = 0.1E-05   stopping-criterion for ELM
   LREAL  =      F    real-space projection
   NLSPLINE    = F    spline interpolate recip. space projectors
   LCOMPAT=      F    compatible to vasp.4.4
   GGA_COMPAT  = T    GGA compatible to vasp.4.4-vasp.4.6
   LMAXPAW     = -100 max onsite density
   LMAXMIX     =    2 max onsite mixed and CHGCAR
   VOSKOWN=      0    Vosko Wilk Nusair interpolation
   ROPT   =    0.00000
 Ionic relaxation
   EDIFFG = 0.1E-04   stopping-criterion for IOM
   NSW    =      0    number of steps for IOM
   NBLOCK =      1;   KBLOCK =      1    inner block; outer block 
   IBRION =     -1    ionic relax: 0-MD 1-quasi-New 2-CG
   NFREE  =      0    steps in history (QN), initial steepest desc. (CG)
   ISIF   =      2    stress and relaxation
   IWAVPR =     10    prediction:  0-non 1-charg 2-wave 3-comb
   ISYM   =      2    0-nonsym 1-usesym 2-fastsym
   LCORR  =      T    Harris-Foulkes like correction to forces

   POTIM  = 0.0200    time-step for ionic-motion
   TEIN   =    0.0    initial temperature
   TEBEG  =    0.0;   TEEND  =   0.0 temperature during run
   SMASS  =  -3.00    Nose mass-parameter (am)
   estimated Nose-frequenzy (Omega)   =  0.10E-29 period in steps =****** mass=  -0.263E-27a.u.
   SCALEE = 1.0000    scale energy and forces
   NPACO  =    256;   APACO  = 16.0  distance and # of slots for P.C.
   PSTRESS=    0.0 pullay stress

  Mass of Ions in am
   POMASS =  12.01
  Ionic Valenz
   ZVAL   =   4.00
  Atomic Wigner-Seitz radii
   RWIGS  =  -1.00
  virtual crystal weights 
   VCA    =   1.00
   NELECT =      32.0000    total number of electrons
   NUPDOWN=      -1.0000    fix difference up-down

 DOS related values:
   EMIN   =  10.00;   EMAX   =-10.00  energy-range for DOS
   EFERMI =   0.00
   ISMEAR =    -5;   SIGMA  =   0.06  broadening in eV -4-tet -1-fermi 0-gaus

 Electronic relaxation 2 (details)
   IALGO  =     38    algorithm
   LDIAG  =      T    sub-space diagonalisation (order eigenvalues)
   LSUBROT=      F    optimize rotation matrix (better conditioning)
   TURBO    =      0    0=normal 1=particle mesh
   IRESTART =      0    0=no restart 2=restart with 2 vectors
   NREBOOT  =      0    no. of reboots
   NMIN     =      0    reboot dimension
   EREF     =   0.00    reference energy to select bands
   IMIX   =      4    mixing-type and parameters
     AMIX     =   0.40;   BMIX     =  1.00
     AMIX_MAG =   1.60;   BMIX_MAG =  1.00
     AMIN     =   0.10
     WC   =   100.;   INIMIX=   1;  MIXPRE=   1;  MAXMIX= -45

 Intra band minimization:
   WEIMIN = 0.0000     energy-eigenvalue tresh-hold
   EBREAK =  0.10E-07  absolut break condition
   DEPER  =   0.30     relativ break condition  

   TIME   =   0.40     timestep for ELM

  volume/ion in A,a.u.               =       4.87        32.87
  Fermi-wavevector in a.u.,A,eV,Ry     =   1.533031  2.897008 31.976194  2.350184
  Thomas-Fermi vector in A             =   2.640155
 
 Write flags
   LWAVE        =      F    write WAVECAR
   LDOWNSAMPLE  =      F    k-point downsampling of WAVECAR
   LCHARG       =      F    write CHGCAR
   LVTOT        =      F    write LOCPOT, total local potential
   LVHAR        =      F    write LOCPOT, Hartree potential only
   LELF         =      F    write electronic localiz. function (ELF)
   LORBIT       =      0    0 simple, 1 ext, 2 COOP (PROOUT), +10 PAW based schemes


 Dipole corrections
   LMONO  =      F    monopole corrections only (constant potential shift)
   LDIPOL =      F    correct potential (dipole corrections)
   IDIPOL =      0    1-x, 2-y, 3-z, 4-all directions 
   EPSILON=  1.0000000 bulk dielectric constant

 Exchange correlation treatment:
   GGA     =    --    GGA type
   LEXCH   =     8    internal setting for exchange type
   VOSKOWN=      0    Vosko Wilk Nusair interpolation
   LHFCALC =     F    Hartree Fock is set to
   LHFONE  =     F    Hartree Fock one center treatment
   AEXX    =    0.0000 exact exchange contribution

 Linear response parameters
   LEPSILON=     F    determine dielectric tensor
   LRPA    =     F    only Hartree local field effects (RPA)
   LNABLA  =     F    use nabla operator in PAW spheres
   LVEL    =     F    velocity operator in full k-point grid
   LINTERFAST=   F  fast interpolation
   KINTER  =     0    interpolate to denser k-point grid
   CSHIFT  =0.1000    complex shift for real part using Kramers Kronig
   OMEGAMAX=  -1.0    maximum frequency
   DEG_THRESHOLD= 0.2000000E-02 threshold for treating states as degnerate
   RTIME   =   -0.100 relaxation time in fs
  (WPLASMAI=    0.000 imaginary part of plasma frequency in eV, 0.658/RTIME)
   DFIELD  = 0.0000000 0.0000000 0.0000000 field for delta impulse in time
 
 Orbital magnetization related:
   ORBITALMAG=     F  switch on orbital magnetization
   LCHIMAG   =     F  perturbation theory with respect to B field
   DQ        =  0.001000  dq finite difference perturbation B field
   LLRAUG    =     F  two centre corrections for induced B field



--------------------------------------------------------------------------------------------------------


 Static calculation
 charge density and potential will be updated during run
 non-spin polarized calculation
 Variant of blocked Davidson
 Davidson routine will perform the subspace rotation
 perform sub-space diagonalisation
    after iterative eigenvector-optimisation
 modified Broyden-mixing scheme, WC =      100.0
 initial mixing is a Kerker type mixing with AMIX =  0.4000 and BMIX =      1.0000
 Hartree-type preconditioning will be used
 using additional bands            8
 reciprocal scheme for non local part
 calculate Harris-corrections to forces 
   (improved forces if not selfconsistent)
 use gradient corrections 
 use of overlap-Matrix (Vanderbilt PP)
 Fermi weights with tetrahedron method with Bloechl corrections


--------------------------------------------------------------------------------------------------------


  energy-cutoff  :      400.00
  volume of cell :       38.97
      direct lattice vectors                 reciprocal lattice vectors
     3.390319000  0.000000000  0.000000000     0.294957495  0.000000000  0.000000000
     0.000000000  3.390319000  0.000000000     0.000000000  0.294957495  0.000000000
     0.000000000  0.000000000  3.390319000     0.000000000  0.000000000  0.294957495

  length of vectors
     3.390319000  3.390319000  3.390319000     0.294957495  0.294957495  0.294957495


 
 k-points in units of 2pi/SCALE and weight: kpt_density=1000                        
   0.00000000  0.00000000  0.00000000       0.001
   0.02457979  0.00000000  0.00000000       0.003
   0.04915958  0.00000000  0.00000000       0.003
   0.07373937  0.00000000  0.00000000       0.003
   0.09831917  0.00000000  0.00000000       0.003
   0.12289896  0.00000000  0.00000000       0.003
   0.14747875  0.00000000  0.00000000       0.002
   0.02457979  0.02457979  0.00000000       0.007
   0.04915958  0.02457979  0.00000000       0.014
   0.07373937  0.02457979  0.00000000       0.014
   0.09831917  0.02457979  0.00000000       0.014
   0.12289896  0.02457979  0.00000000       0.014
   0.14747875  0.02457979  0.00000000       0.007
   0.04915958  0.04915958  0.00000000       0.007
   0.07373937  0.04915958  0.00000000       0.014
   0.09831917  0.04915958  0.00000000       0.014
   0.12289896  0.04915958  0.00000000       0.014
   0.14747875  0.04915958  0.00000000       0.007
   0.07373937  0.07373937  0.00000000       0.007
   0.09831917  0.07373937  0.00000000       0.014
   0.12289896  0.07373937  0.00000000       0.014
   0.14747875  0.07373937  0.00000000       0.007
   0.09831917  0.09831917  0.00000000       0.007
   0.12289896  0.09831917  0.00000000       0.014
   0.14747875  0.09831917  0.00000000       0.007
   0.12289896  0.12289896  0.00000000       0.007
   0.14747875  0.12289896  0.00000000       0.007
   0.14747875  0.14747875  0.00000000       0.002
   0.02457979  0.02457979  0.02457979       0.005
   0.04915958  0.02457979  0.02457979       0.014
   0.07373937  0.02457979  0.02457979       0.014
   0.09831917  0.02457979  0.02457979       0.014
   0.12289896  0.02457979  0.02457979       0.014
   0.14747875  0.02457979  0.02457979       0.007
   0.04915958  0.04915958  0.02457979       0.014
   0.07373937  0.04915958  0.02457979       0.028
   0.09831917  0.04915958  0.02457979       0.028
   0.12289896  0.04915958  0.02457979       0.028
   0.14747875  0.04915958  0.02457979       0.014
   0.07373937  0.07373937  0.02457979       0.014
   0.09831917  0.07373937  0.02457979       0.028
   0.12289896  0.07373937  0.02457979       0.028
   0.14747875  0.07373937  0.02457979       0.014
   0.09831917  0.09831917  0.02457979       0.014
   0.12289896  0.09831917  0.02457979       0.028
   0.14747875  0.09831917  0.02457979       0.014
   0.12289896  0.12289896  0.02457979       0.014
   0.14747875  0.12289896  0.02457979       0.014
   0.14747875  0.14747875  0.02457979       0.003
   0.04915958  0.04915958  0.04915958       0.005
   0.07373937  0.04915958  0.04915958       0.014
   0.09831917  0.04915958  0.04915958       0.014
   0.12289896  0.04915958  0.04915958       0.014
   0.14747875  0.04915958  0.04915958       0.007
   0.07373937  0.07373937  0.04915958       0.014
   0.09831917  0.07373937  0.04915958       0.028
   0.12289896  0.07373937  0.04915958       0.028
   0.14747875  0.07373937  0.04915958       0.014
   0.09831917  0.09831917  0.04915958       0.014
   0.12289896  0.09831917  0.04915958       0.028
   0.14747875  0.09831917  0.04915958       0.014
   0.12289896  0.12289896  0.04915958       0.014
   0.14747875  0.12289896  0.04915958       0.014
   0.14747875  0.14747875  0.04915958       0.003
   0.07373937  0.07373937  0.07373937       0.005
   0.09831917  0.07373937  0.07373937       0.014
   0.12289896  0.07373937  0.07373937       0.014
   0.14747875  0.07373937  0.07373937       0.007
   0.09831917  0.09831917  0.07373937       0.014
   0.12289896  0.09831917  0.07373937       0.028
   0.14747875  0.09831917  0.07373937       0.014
   0.12289896  0.12289896  0.07373937       0.014
   0.14747875  0.12289896  0.07373937       0.014
   0.14747875  0.14747875  0.07373937       0.003
   0.09831917  0.09831917  0.09831917       0.005
   0.12289896  0.09831917  0.09831917       0.014
   0.14747875  0.09831917  0.09831917       0.007
   0.12289896  0.12289896  0.09831917       0.014
   0.14747875  0.12289896  0.09831917       0.014
   0.14747875  0.14747875  0.09831917       0.003
   0.12289896  0.12289896  0.12289896       0.005
   0.14747875  0.12289896  0.12289896       0.007
   0.14747875  0.14747875  0.12289896       0.003
   0.14747875  0.14747875  0.14747875       0.001
 
 k-points in reciprocal lattice and weights: kpt_density=1000                        
   0.00000000  0.00000000  0.00000000       0.001
   0.08333333  0.00000000  0.00000000       0.003
   0.16666667  0.00000000  0.00000000       0.003
   0.25000000  0.00000000  0.00000000       0.003
   0.33333333  0.00000000  0.00000000       0.003
   0.41666667  0.00000000  0.00000000       0.003
   0.50000000  0.00000000  0.00000000       0.002
   0.08333333  0.08333333  0.00000000       0.007
   0.16666667  0.08333333  0.00000000       0.014
   0.25000000  0.08333333  0.00000000       0.014
   0.33333333  0.08333333  0.00000000       0.014
   0.41666667  0.08333333  0.00000000       0.014
   0.50000000  0.08333333  0.00000000       0.007
   0.16666667  0.16666667  0.00000000       0.007
   0.25000000  0.16666667  0.00000000       0.014
   0.33333333  0.16666667  0.00000000       0.014
   0.41666667  0.16666667  0.00000000       0.014
   0.50000000  0.16666667  0.00000000       0.007
   0.25000000  0.25000000  0.00000000       0.007
   0.33333333  0.25000000  0.00000000       0.014
   0.41666667  0.25000000  0.00000000       0.014
   0.50000000  0.25000000  0.00000000       0.007
   0.33333333  0.33333333  0.00000000       0.007
   0.41666667  0.33333333  0.00000000       0.014
   0.50000000  0.33333333  0.00000000       0.007
   0.41666667  0.41666667  0.00000000       0.007
   0.50000000  0.41666667  0.00000000       0.007
   0.50000000  0.50000000  0.00000000       0.002
   0.08333333  0.08333333  0.08333333       0.005
   0.16666667  0.08333333  0.08333333       0.014
   0.25000000  0.08333333  0.08333333       0.014
   0.33333333  0.08333333  0.08333333       0.014
   0.41666667  0.08333333  0.08333333       0.014
   0.50000000  0.08333333  0.08333333       0.007
   0.16666667  0.16666667  0.08333333       0.014
   0.25000000  0.16666667  0.08333333       0.028
   0.33333333  0.16666667  0.08333333       0.028
   0.41666667  0.16666667  0.08333333       0.028
   0.50000000  0.16666667  0.08333333       0.014
   0.25000000  0.25000000  0.08333333       0.014
   0.33333333  0.25000000  0.08333333       0.028
   0.41666667  0.25000000  0.08333333       0.028
   0.50000000  0.25000000  0.08333333       0.014
   0.33333333  0.33333333  0.08333333       0.014
   0.41666667  0.33333333  0.08333333       0.028
   0.50000000  0.33333333  0.08333333       0.014
   0.41666667  0.41666667  0.08333333       0.014
   0.50000000  0.41666667  0.08333333       0.014
   0.50000000  0.50000000  0.08333333       0.003
   0.16666667  0.16666667  0.16666667       0.005
   0.25000000  0.16666667  0.16666667       0.014
   0.33333333  0.16666667  0.16666667       0.014
   0.41666667  0.16666667  0.16666667       0.014
   0.50000000  0.16666667  0.16666667       0.007
   0.25000000  0.25000000  0.16666667       0.014
   0.33333333  0.25000000  0.16666667       0.028
   0.41666667  0.25000000  0.16666667       0.028
   0.50000000  0.25000000  0.16666667       0.014
   0.33333333  0.33333333  0.16666667       0.014
   0.41666667  0.33333333  0.16666667       0.028
   0.50000000  0.33333333  0.16666667       0.014
   0.41666667  0.41666667  0.16666667       0.014
   0.50000000  0.41666667  0.16666667       0.014
   0.50000000  0.50000000  0.16666667       0.003
   0.25000000  0.25000000  0.25000000       0.005
   0.33333333  0.25000000  0.25000000       0.014
   0.41666667  0.25000000  0.25000000       0.014
   0.50000000  0.25000000  0.25000000       0.007
   0.33333333  0.33333333  0.25000000       0.014
   0.41666667  0.33333333  0.25000000       0.028
   0.50000000  0.33333333  0.25000000       0.014
   0.41666667  0.41666667  0.25000000       0.014
   0.50000000  0.41666667  0.25000000       0.014
   0.50000000  0.50000000  0.25000000       0.003
   0.33333333  0.33333333  0.33333333       0.005
   0.41666667  0.33333333  0.33333333       0.014
   0.50000000  0.33333333  0.33333333       0.007
   0.41666667  0.41666667  0.33333333       0.014
   0.50000000  0.41666667  0.33333333       0.014
   0.50000000  0.50000000  0.33333333       0.003
   0.41666667  0.41666667  0.41666667       0.005
   0.50000000  0.41666667  0.41666667       0.007
   0.50000000  0.50000000  0.41666667       0.003
   0.50000000  0.50000000  0.50000000       0.001
 
 position of ions in fractional coordinates (direct lattice) 
   0.25000000  0.75000000  0.25000000
   0.00000000  0.00000000  0.50000000
   0.25000000  0.25000000  0.75000000
   0.00000000  0.50000000  0.00000000
   0.75000000  0.75000000  0.75000000
   0.50000000  0.00000000  0.00000000
   0.75000000  0.25000000  0.25000000
   0.50000000  0.50000000  0.50000000
 
 position of ions in cartesian coordinates  (Angst):
   0.84757975  2.54273925  0.84757975
   0.00000000  0.00000000  1.69515950
   0.84757975  0.84757975  2.54273925
   0.00000000  1.69515950  0.00000000
   2.54273925  2.54273925  2.54273925
   1.69515950  0.00000000  0.00000000
   2.54273925  0.84757975  0.84757975
   1.69515950  1.69515950  1.69515950
 


--------------------------------------------------------------------------------------------------------


 k-point  1 :   0.0000 0.0000 0.0000  plane waves:     739
 k-point  2 :   0.0833 0.0000 0.0000  plane waves:     731
 k-point  3 :   0.1667 0.0000 0.0000  plane waves:     719
 k-point  4 :   0.2500 0.0000 0.0000  plane waves:     719
 k-point  5 :   0.3333 0.0000 0.0000  plane waves:     711
 k-point  6 :   0.4167 0.0000 0.0000  plane waves:     699
 k-point  7 :   0.5000 0.0000 0.0000  plane waves:     708
 k-point  8 :   0.0833 0.0833 0.0000  plane waves:     727
 k-point  9 :   0.1667 0.0833 0.0000  plane waves:     715
 k-point 10 :   0.2500 0.0833 0.0000  plane waves:     707
 k-point 11 :   0.3333 0.0833 0.0000  plane waves:     707
 k-point 12 :   0.4167 0.0833 0.0000  plane waves:     710
 k-point 13 :   0.5000 0.0833 0.0000  plane waves:     706
 k-point 14 :   0.1667 0.1667 0.0000  plane waves:     704
 k-point 15 :   0.2500 0.1667 0.0000  plane waves:     707
 k-point 16 :   0.3333 0.1667 0.0000  plane waves:     711
 k-point 17 :   0.4167 0.1667 0.0000  plane waves:     711
 k-point 18 :   0.5000 0.1667 0.0000  plane waves:     702
 k-point 19 :   0.2500 0.2500 0.0000  plane waves:     708
 k-point 20 :   0.3333 0.2500 0.0000  plane waves:     715
 k-point 21 :   0.4167 0.2500 0.0000  plane waves:     710
 k-point 22 :   0.5000 0.2500 0.0000  plane waves:     712
 k-point 23 :   0.3333 0.3333 0.0000  plane waves:     714
 k-point 24 :   0.4167 0.3333 0.0000  plane waves:     710
 k-point 25 :   0.5000 0.3333 0.0000  plane waves:     704
 k-point 26 :   0.4167 0.4167 0.0000  plane waves:     708
 k-point 27 :   0.5000 0.4167 0.0000  plane waves:     700
 k-point 28 :   0.5000 0.5000 0.0000  plane waves:     720
 k-point 29 :   0.0833 0.0833 0.0833  plane waves:     721
 k-point 30 :   0.1667 0.0833 0.0833  plane waves:     715
 k-point 31 :   0.2500 0.0833 0.0833  plane waves:     708
 k-point 32 :   0.3333 0.0833 0.0833  plane waves:     709
 k-point 33 :   0.4167 0.0833 0.0833  plane waves:     711
 k-point 34 :   0.5000 0.0833 0.0833  plane waves:     710
 k-point 35 :   0.1667 0.1667 0.0833  plane waves:     714
 k-point 36 :   0.2500 0.1667 0.0833  plane waves:     705
 k-point 37 :   0.3333 0.1667 0.0833  plane waves:     711
 k-point 38 :   0.4167 0.1667 0.0833  plane waves:     713
 k-point 39 :   0.5000 0.1667 0.0833  plane waves:     710
 k-point 40 :   0.2500 0.2500 0.0833  plane waves:     709
 k-point 41 :   0.3333 0.2500 0.0833  plane waves:     714
 k-point 42 :   0.4167 0.2500 0.0833  plane waves:     705
 k-point 43 :   0.5000 0.2500 0.0833  plane waves:     708
 k-point 44 :   0.3333 0.3333 0.0833  plane waves:     715
 k-point 45 :   0.4167 0.3333 0.0833  plane waves:     707
 k-point 46 :   0.5000 0.3333 0.0833  plane waves:     710
 k-point 47 :   0.4167 0.4167 0.0833  plane waves:     709
 k-point 48 :   0.5000 0.4167 0.0833  plane waves:     702
 k-point 49 :   0.5000 0.5000 0.0833  plane waves:     704
 k-point 50 :   0.1667 0.1667 0.1667  plane waves:     706
 k-point 51 :   0.2500 0.1667 0.1667  plane waves:     710
 k-point 52 :   0.3333 0.1667 0.1667  plane waves:     717
 k-point 53 :   0.4167 0.1667 0.1667  plane waves:     715
 k-point 54 :   0.5000 0.1667 0.1667  plane waves:     716
 k-point 55 :   0.2500 0.2500 0.1667  plane waves:     711
 k-point 56 :   0.3333 0.2500 0.1667  plane waves:     711
 k-point 57 :   0.4167 0.2500 0.1667  plane waves:     704
 k-point 58 :   0.5000 0.2500 0.1667  plane waves:     708
 k-point 59 :   0.3333 0.3333 0.1667  plane waves:     704
 k-point 60 :   0.4167 0.3333 0.1667  plane waves:     706
 k-point 61 :   0.5000 0.3333 0.1667  plane waves:     702
 k-point 62 :   0.4167 0.4167 0.1667  plane waves:     707
 k-point 63 :   0.5000 0.4167 0.1667  plane waves:     706
 k-point 64 :   0.5000 0.5000 0.1667  plane waves:     716
 k-point 65 :   0.2500 0.2500 0.2500  plane waves:     702
 k-point 66 :   0.3333 0.2500 0.2500  plane waves:     708
 k-point 67 :   0.4167 0.2500 0.2500  plane waves:     706
 k-point 68 :   0.5000 0.2500 0.2500  plane waves:     706
 k-point 69 :   0.3333 0.3333 0.2500  plane waves:     709
 k-point 70 :   0.4167 0.3333 0.2500  plane waves:     708
 k-point 71 :   0.5000 0.3333 0.2500  plane waves:     698
 k-point 72 :   0.4167 0.4167 0.2500  plane waves:     702
 k-point 73 :   0.5000 0.4167 0.2500  plane waves:     700
 k-point 74 :   0.5000 0.5000 0.2500  plane waves:     708
 k-point 75 :   0.3333 0.3333 0.3333  plane waves:     705
 k-point 76 :   0.4167 0.3333 0.3333  plane waves:     703
 k-point 77 :   0.5000 0.3333 0.3333  plane waves:     696
 k-point 78 :   0.4167 0.4167 0.3333  plane waves:     691
 k-point 79 :   0.5000 0.4167 0.3333  plane waves:     692
 k-point 80 :   0.5000 0.5000 0.3333  plane waves:     688
 k-point 81 :   0.4167 0.4167 0.4167  plane waves:     696
 k-point 82 :   0.5000 0.4167 0.4167  plane waves:     686
 k-point 83 :   0.5000 0.5000 0.4167  plane waves:     688
 k-point 84 :   0.5000 0.5000 0.5000  plane waves:     672

 maximum and minimum number of plane-waves per node :       196      158

 maximum number of plane-waves:       739
 maximum index in each direction: 
   IXMAX=    5   IYMAX=    5   IZMAX=    5
   IXMIN=   -6   IYMIN=   -6   IZMIN=   -5


 parallel 3D FFT for wavefunctions:
    minimum data exchange during FFTs selected (reduces bandwidth)
 parallel 3D FFT for charge:
    minimum data exchange during FFTs selected (reduces bandwidth)


 total amount of memory used by VASP MPI-rank0    33455. kBytes
=======================================================================

   base      :      30000. kBytes
   nonl-proj :       1012. kBytes
   fftplans  :        344. kBytes
   grid      :        481. kBytes
   one-center:          6. kBytes
   wavefun   :       1612. kBytes
 
     INWAV:  cpu time    0.0004: real time    0.0006
 Broyden mixing: mesh for mixing (old mesh)
   NGX = 11   NGY = 11   NGZ = 11
  (NGX  = 48   NGY  = 48   NGZ  = 48)
  gives a total of   1331 points

 initial charge density was supplied:
 charge density of overlapping atoms calculated
 number of electron      32.0000000 magnetization 
 keeping initial charge density in first step


--------------------------------------------------------------------------------------------------------


 Maximum index for augmentation-charges          301 (set IRDMAX)


--------------------------------------------------------------------------------------------------------


 First call to EWALD:  gamma=   0.523
 Maximum number of real-space cells 3x 3x 3
 Maximum number of reciprocal cells 3x 3x 3

    FEWALD:  cpu time    0.0053: real time    0.0053


--------------------------------------- Iteration      1(   1)  ---------------------------------------


    POTLOK:  cpu time    0.0256: real time    0.0306
    SETDIJ:  cpu time    0.0067: real time    0.0067
     EDDAV:  cpu time    4.1877: real time    4.2002
 BZINTS: Fermi energy: 20.907366; 32.000000 electrons
         Band energy: 164.741425;  BLOECHL correction: -0.171630
       DOS:  cpu time    0.1679: real time    0.1680
    --------------------------------------------
      LOOP:  cpu time    4.3880: real time    4.4055

 eigenvalue-minimisations  :  4040
 total energy-change (2. order) : 0.6276126E+02  (-0.1478788E+04)
 number of electron      32.0000000 magnetization 
 augmentation part       32.0000000 magnetization 

 Free energy of the ion-electron system (eV)
  ---------------------------------------------------
  alpha Z        PSCENC =       133.81665753
  Ewald energy   TEWEN  =     -1464.28697114
  -Hartree energ DENC   =       -57.78173430
  -exchange      EXHF   =         0.00000000
  -V(xc)+E(xc)   XCENC  =       118.45792861
  PAW double counting   =       302.65154477     -311.85538214
  entropy T*S    EENTRO =         0.00000000
  eigenvalues    EBANDS =       164.74142517
  atomic energy  EATOM  =      1177.01779097
  Solvation  Ediel_sol  =         0.00000000
  ---------------------------------------------------
  free energy    TOTEN  =        62.76125947 eV

  energy without entropy =       62.76125947  energy(sigma->0) =       62.76125947


--------------------------------------------------------------------------------------------------------




--------------------------------------- Iteration      1(   2)  ---------------------------------------


     EDDAV:  cpu time    5.2062: real time    5.2072
 BZINTS: Fermi energy: 11.289606; 32.000000 electrons
         Band energy:  31.090839;  BLOECHL correction:  0.000000
       DOS:  cpu time    0.0503: real time    0.0503
    --------------------------------------------
      LOOP:  cpu time    5.2565: real time    5.2575

 eigenvalue-minimisations  :  5520
 total energy-change (2. order) :-0.1336506E+03  (-0.1273795E+03)
 number of electron      32.0000000 magnetization 
 augmentation part       32.0000000 magnetization 

 Free energy of the ion-electron system (eV)
  ---------------------------------------------------
  alpha Z        PSCENC =       133.81665753
  Ewald energy   TEWEN  =     -1464.28697114
  -Hartree energ DENC   =       -57.78173430
  -exchange      EXHF   =         0.00000000
  -V(xc)+E(xc)   XCENC  =       118.45792861
  PAW double counting   =       302.65154477     -311.85538214
  entropy T*S    EENTRO =         0.00000000
  eigenvalues    EBANDS =        31.09083881
  atomic energy  EATOM  =      1177.01779097
  Solvation  Ediel_sol  =         0.00000000
  ---------------------------------------------------
  free energy    TOTEN  =       -70.88932689 eV

  energy without entropy =      -70.88932689  energy(sigma->0) =      -70.88932689


--------------------------------------------------------------------------------------------------------




--------------------------------------- Iteration      1(   3)  ---------------------------------------


     EDDAV:  cpu time    5.0423: real time    5.0463
 BZINTS: Fermi energy: 10.470702; 32.000000 electrons
         Band energy:  27.043369;  BLOECHL correction:  0.000000
       DOS:  cpu time    0.0411: real time    0.0411
    --------------------------------------------
      LOOP:  cpu time    5.0834: real time    5.0874

 eigenvalue-minimisations  :  5216
 total energy-change (2. order) :-0.4047470E+01  (-0.4029512E+01)
 number of electron      32.0000000 magnetization 
 augmentation part       32.0000000 magnetization 

 Free energy of the ion-electron system (eV)
  ---------------------------------------------------
  alpha Z        PSCENC =       133.81665753
  Ewald energy   TEWEN  =     -1464.28697114
  -Hartree energ DENC   =       -57.78173430
  -exchange      EXHF   =         0.00000000
  -V(xc)+E(xc)   XCENC  =       118.45792861
  PAW double counting   =       302.65154477     -311.85538214
  entropy T*S    EENTRO =         0.00000000
  eigenvalues    EBANDS =        27.04336867
  atomic energy  EATOM  =      1177.01779097
  Solvation  Ediel_sol  =         0.00000000
  ---------------------------------------------------
  free energy    TOTEN  =       -74.93679703 eV

  energy without entropy =      -74.93679703  energy(sigma->0) =      -74.93679703


--------------------------------------------------------------------------------------------------------




--------------------------------------- Iteration      1(   4)  ---------------------------------------


     EDDAV:  cpu time    4.9008: real time    4.9015
 BZINTS: Fermi energy: 10.371162; 32.000000 electrons
         Band energy:  27.010717;  BLOECHL correction:  0.000000
       DOS:  cpu time    0.0366: real time    0.0366
    --------------------------------------------
      LOOP:  cpu time    4.9374: real time    4.9381

 eigenvalue-minimisations  :  5048
 total energy-change (2. order) :-0.3265210E-01  (-0.3262362E-01)
 number of electron      32.0000000 magnetization 
 augmentation part       32.0000000 magnetization 

 Free energy of the ion-electron system (eV)
  ---------------------------------------------------
  alpha Z        PSCENC =       133.81665753
  Ewald energy   TEWEN  =     -1464.28697114
  -Hartree energ DENC   =       -57.78173430
  -exchange      EXHF   =         0.00000000
  -V(xc)+E(xc)   XCENC  =       118.45792861
  PAW double counting   =       302.65154477     -311.85538214
  entropy T*S    EENTRO =         0.00000000
  eigenvalues    EBANDS =        27.01071657
  atomic energy  EATOM  =      1177.01779097
  Solvation  Ediel_sol  =         0.00000000
  ---------------------------------------------------
  free energy    TOTEN  =       -74.96944913 eV

  energy without entropy =      -74.96944913  energy(sigma->0) =      -74.96944913


--------------------------------------------------------------------------------------------------------




--------------------------------------- Iteration      1(   5)  ---------------------------------------


     EDDAV:  cpu time    4.9984: real time    4.9994
 BZINTS: Fermi energy: 10.453699; 32.000000 electrons
         Band energy:  27.010234;  BLOECHL correction:  0.000000
       DOS:  cpu time    0.0367: real time    0.0367
    CHARGE:  cpu time    0.1306: real time    0.1306
    MIXING:  cpu time    0.0016: real time    0.0016
    --------------------------------------------
      LOOP:  cpu time    5.1674: real time    5.1684

 eigenvalue-minimisations  :  5144
 total energy-change (2. order) :-0.4824282E-03  (-0.4822842E-03)
 number of electron      31.9999989 magnetization 
 augmentation part        0.9177905 magnetization 

 Broyden mixing:
  rms(total) = 0.11399E+01    rms(broyden)= 0.11397E+01
  rms(prec ) = 0.27778E+01
  weight for this iteration     100.00

 Free energy of the ion-electron system (eV)
  ---------------------------------------------------
  alpha Z        PSCENC =       133.81665753
  Ewald energy   TEWEN  =     -1464.28697114
  -Hartree energ DENC   =       -57.78173430
  -exchange      EXHF   =         0.00000000
  -V(xc)+E(xc)   XCENC  =       118.45792861
  PAW double counting   =       302.65154477     -311.85538214
  entropy T*S    EENTRO =         0.00000000
  eigenvalues    EBANDS =        27.01023414
  atomic energy  EATOM  =      1177.01779097
  Solvation  Ediel_sol  =         0.00000000
  ---------------------------------------------------
  free energy    TOTEN  =       -74.96993156 eV

  energy without entropy =      -74.96993156  energy(sigma->0) =      -74.96993156


--------------------------------------------------------------------------------------------------------




--------------------------------------- Iteration      1(   6)  ---------------------------------------


    POTLOK:  cpu time    0.0278: real time    0.0284
    SETDIJ:  cpu time    0.0059: real time    0.0059
     EDDAV:  cpu time    4.5897: real time    4.5900
 BZINTS: Fermi energy: 11.241050; 32.000000 electrons
         Band energy:  46.123034;  BLOECHL correction:  0.000000
       DOS:  cpu time    0.0364: real time    0.0364
    CHARGE:  cpu time    0.1356: real time    0.1356
    MIXING:  cpu time    0.0022: real time    0.0022
    --------------------------------------------
      LOOP:  cpu time    4.7976: real time    4.7984

 eigenvalue-minimisations  :  4400
 total energy-change (2. order) : 0.2913573E+01  (-0.1870367E+00)
 number of electron      31.9999989 magnetization 
 augmentation part        0.8943169 magnetization 

 Broyden mixing:
  rms(total) = 0.61141E+00    rms(broyden)= 0.61140E+00
  rms(prec ) = 0.14775E+01
  weight for this iteration     100.00

 eigenvalues of (default mixing * dielectric matrix)
  average eigenvalue GAMMA=   2.1214
  2.1214

 Free energy of the ion-electron system (eV)
  ---------------------------------------------------
  alpha Z        PSCENC =       133.81665753
  Ewald energy   TEWEN  =     -1464.28697114
  -Hartree energ DENC   =       -74.83067772
  -exchange      EXHF   =         0.00000000
  -V(xc)+E(xc)   XCENC  =       120.07801721
  PAW double counting   =       425.89985662     -435.87406638
  entropy T*S    EENTRO =         0.00000000
  eigenvalues    EBANDS =        46.12303409
  atomic energy  EATOM  =      1177.01779097
  Solvation  Ediel_sol  =         0.00000000
  ---------------------------------------------------
  free energy    TOTEN  =       -72.05635881 eV

  energy without entropy =      -72.05635881  energy(sigma->0) =      -72.05635881


--------------------------------------------------------------------------------------------------------




--------------------------------------- Iteration      1(   7)  ---------------------------------------


    POTLOK:  cpu time    0.0226: real time    0.0230
    SETDIJ:  cpu time    0.0059: real time    0.0059
     EDDAV:  cpu time    4.9964: real time    4.9970
 BZINTS: Fermi energy: 12.209449; 32.000000 electrons
         Band energy:  67.597333;  BLOECHL correction:  0.000000
       DOS:  cpu time    0.0417: real time    0.0417
    CHARGE:  cpu time    0.1270: real time    0.1270
    MIXING:  cpu time    0.0020: real time    0.0020
    --------------------------------------------
      LOOP:  cpu time    5.1956: real time    5.1966

 eigenvalue-minimisations  :  4568
 total energy-change (2. order) : 0.9776459E+00  (-0.2032004E+00)
 number of electron      31.9999989 magnetization 
 augmentation part        0.8689031 magnetization 

 Broyden mixing:
  rms(total) = 0.73248E-01    rms(broyden)= 0.72926E-01
  rms(prec ) = 0.12816E+00
  weight for this iteration     100.00

 eigenvalues of (default mixing * dielectric matrix)
  average eigenvalue GAMMA=   2.2675
  2.0003  2.5348

 Free energy of the ion-electron system (eV)
  ---------------------------------------------------
  alpha Z        PSCENC =       133.81665753
  Ewald energy   TEWEN  =     -1464.28697114
  -Hartree energ DENC   =       -96.67273601
  -exchange      EXHF   =         0.00000000
  -V(xc)+E(xc)   XCENC  =       122.16336243
  PAW double counting   =       598.81205809     -609.52620817
  entropy T*S    EENTRO =         0.00000000
  eigenvalues    EBANDS =        67.59733336
  atomic energy  EATOM  =      1177.01779097
  Solvation  Ediel_sol  =         0.00000000
  ---------------------------------------------------
  free energy    TOTEN  =       -71.07871294 eV

  energy without entropy =      -71.07871294  energy(sigma->0) =      -71.07871294


--------------------------------------------------------------------------------------------------------




--------------------------------------- Iteration      1(   8)  ---------------------------------------


    POTLOK:  cpu time    0.0204: real time    0.0208
    SETDIJ:  cpu time    0.0062: real time    0.0061
     EDDAV:  cpu time    4.9596: real time    4.9599
 BZINTS: Fermi energy: 12.212556; 32.000000 electrons
         Band energy:  68.039853;  BLOECHL correction:  0.000000
       DOS:  cpu time    0.0422: real time    0.3733
    CHARGE:  cpu time    0.1301: real time    0.1301
    MIXING:  cpu time    0.0023: real time    0.0023
    --------------------------------------------
      LOOP:  cpu time    5.1607: real time    5.4925

 eigenvalue-minimisations  :  5016
 total energy-change (2. order) :-0.9231742E-02  (-0.3643749E-02)
 number of electron      31.9999989 magnetization 
 augmentation part        0.8686615 magnetization 

 Broyden mixing:
  rms(total) = 0.92418E-02    rms(broyden)= 0.91322E-02
  rms(prec ) = 0.16320E-01
  weight for this iteration     100.00

 eigenvalues of (default mixing * dielectric matrix)
  average eigenvalue GAMMA=   2.0954
  1.4273  2.7067  2.1522

 Free energy of the ion-electron system (eV)
  ---------------------------------------------------
  alpha Z        PSCENC =       133.81665753
  Ewald energy   TEWEN  =     -1464.28697114
  -Hartree energ DENC   =       -97.32735568
  -exchange      EXHF   =         0.00000000
  -V(xc)+E(xc)   XCENC  =       122.23198858
  PAW double counting   =       617.63256496     -628.21247332
  entropy T*S    EENTRO =         0.00000000
  eigenvalues    EBANDS =        68.03985341
  atomic energy  EATOM  =      1177.01779097
  Solvation  Ediel_sol  =         0.00000000
  ---------------------------------------------------
  free energy    TOTEN  =       -71.08794468 eV

  energy without entropy =      -71.08794468  energy(sigma->0) =      -71.08794468


--------------------------------------------------------------------------------------------------------




--------------------------------------- Iteration      1(   9)  ---------------------------------------


    POTLOK:  cpu time    0.0219: real time    0.0224
    SETDIJ:  cpu time    0.0061: real time    0.0061
     EDDAV:  cpu time    4.6802: real time    4.6804
 BZINTS: Fermi energy: 12.186202; 32.000000 electrons
         Band energy:  67.919704;  BLOECHL correction:  0.000000
       DOS:  cpu time    0.0374: real time    0.0374
    CHARGE:  cpu time    0.1360: real time    0.1360
    MIXING:  cpu time    0.0021: real time    0.0021
    --------------------------------------------
      LOOP:  cpu time    4.8837: real time    4.8844

 eigenvalue-minimisations  :  4768
 total energy-change (2. order) :-0.1866469E-03  (-0.4290768E-04)
 number of electron      31.9999989 magnetization 
 augmentation part        0.8686875 magnetization 

 Broyden mixing:
  rms(total) = 0.30037E-02    rms(broyden)= 0.29948E-02
  rms(prec ) = 0.51524E-02
  weight for this iteration     100.00

 eigenvalues of (default mixing * dielectric matrix)
  average eigenvalue GAMMA=   2.0233
  0.9699  2.7249  2.4051  1.9932

 Free energy of the ion-electron system (eV)
  ---------------------------------------------------
  alpha Z        PSCENC =       133.81665753
  Ewald energy   TEWEN  =     -1464.28697114
  -Hartree energ DENC   =       -97.21636834
  -exchange      EXHF   =         0.00000000
  -V(xc)+E(xc)   XCENC  =       122.22157648
  PAW double counting   =       617.23408285     -627.79460398
  entropy T*S    EENTRO =         0.00000000
  eigenvalues    EBANDS =        67.91970431
  atomic energy  EATOM  =      1177.01779097
  Solvation  Ediel_sol  =         0.00000000
  ---------------------------------------------------
  free energy    TOTEN  =       -71.08813132 eV

  energy without entropy =      -71.08813132  energy(sigma->0) =      -71.08813132


--------------------------------------------------------------------------------------------------------




--------------------------------------- Iteration      1(  10)  ---------------------------------------


    POTLOK:  cpu time    0.0222: real time    0.0227
    SETDIJ:  cpu time    0.0060: real time    0.0060
     EDDAV:  cpu time    4.7163: real time    4.7169
 BZINTS: Fermi energy: 12.172135; 32.000000 electrons
         Band energy:  67.946548;  BLOECHL correction:  0.000000
       DOS:  cpu time    0.0368: real time    0.0368
    CHARGE:  cpu time    0.1225: real time    0.1225
    MIXING:  cpu time    0.0026: real time    0.0026
    --------------------------------------------
      LOOP:  cpu time    4.9064: real time    4.9075

 eigenvalue-minimisations  :  5024
 total energy-change (2. order) :-0.4279074E-04  (-0.3105738E-05)
 number of electron      31.9999989 magnetization 
 augmentation part        0.8686713 magnetization 

 Broyden mixing:
  rms(total) = 0.30051E-03    rms(broyden)= 0.29609E-03
  rms(prec ) = 0.72175E-03
  weight for this iteration     100.00

 eigenvalues of (default mixing * dielectric matrix)
  average eigenvalue GAMMA=   1.9389
  2.8916  2.5547  2.0573  0.9951  1.1960

 Free energy of the ion-electron system (eV)
  ---------------------------------------------------
  alpha Z        PSCENC =       133.81665753
  Ewald energy   TEWEN  =     -1464.28697114
  -Hartree energ DENC   =       -97.24447035
  -exchange      EXHF   =         0.00000000
  -V(xc)+E(xc)   XCENC  =       122.22378679
  PAW double counting   =       616.33017631     -626.89169260
  entropy T*S    EENTRO =         0.00000000
  eigenvalues    EBANDS =        67.94654838
  atomic energy  EATOM  =      1177.01779097
  Solvation  Ediel_sol  =         0.00000000
  ---------------------------------------------------
  free energy    TOTEN  =       -71.08817412 eV

  energy without entropy =      -71.08817412  energy(sigma->0) =      -71.08817412


--------------------------------------------------------------------------------------------------------




--------------------------------------- Iteration      1(  11)  ---------------------------------------


    POTLOK:  cpu time    0.0206: real time    0.0212
    SETDIJ:  cpu time    0.0058: real time    0.0058
     EDDAV:  cpu time    3.9743: real time    3.9745
 BZINTS: Fermi energy: 12.165392; 32.000000 electrons
         Band energy:  67.959110;  BLOECHL correction:  0.000000
       DOS:  cpu time    0.0370: real time    0.0370
    --------------------------------------------
      LOOP:  cpu time    4.0376: real time    4.0384

 eigenvalue-minimisations  :  3632
 total energy-change (2. order) :-0.8406655E-06  (-0.9636238E-07)
 number of electron      31.9999989 magnetization 
 augmentation part        0.8686713 magnetization 

 Free energy of the ion-electron system (eV)
  ---------------------------------------------------
  alpha Z        PSCENC =       133.81665753
  Ewald energy   TEWEN  =     -1464.28697114
  -Hartree energ DENC   =       -97.25767644
  -exchange      EXHF   =         0.00000000
  -V(xc)+E(xc)   XCENC  =       122.22499659
  PAW double counting   =       616.32658399     -626.88866614
  entropy T*S    EENTRO =         0.00000000
  eigenvalues    EBANDS =        67.95910968
  atomic energy  EATOM  =      1177.01779097
  Solvation  Ediel_sol  =         0.00000000
  ---------------------------------------------------
  free energy    TOTEN  =       -71.08817496 eV

  energy without entropy =      -71.08817496  energy(sigma->0) =      -71.08817496


--------------------------------------------------------------------------------------------------------




 average (electrostatic) potential at core
  the test charge radii are     0.6991
  (the norm of the test charge is              1.0000)
       1 -43.1059       2 -43.1059       3 -43.1059       4 -43.1059       5 -43.1059
       6 -43.1059       7 -43.1059       8 -43.1059
 
 
 
 E-fermi :  12.1654     XC(G=0): -13.9983     alpha+bet :-20.6091


 k-point     1 :       0.0000    0.0000    0.0000
  band No.  band energies     occupation 
      1     -11.5429      2.00000
      2      -1.8279      2.00000
      3      -1.8279      2.00000
      4      -1.8279      2.00000
      5      -1.8279      2.00000
      6      -1.8279      2.00000
      7      -1.8279      2.00000
      8       4.8134      2.00000
      9       4.8134      2.00000
     10       4.8134      2.00000
     11       4.8134      2.00000
     12       4.8134      2.00000
     13       4.8134      2.00000
     14      12.0967      2.00000
     15      12.0967      2.00000
     16      12.0967      2.00000
     17      17.1620      0.00000
     18      17.1620      0.00000
     19      17.1620      0.00000
     20      17.1620      0.00000
     21      17.1620      0.00000
     22      17.1620      0.00000
     23      18.1234      0.00000
     24      18.1234      0.00000

 k-point     2 :       0.0833    0.0000    0.0000
  band No.  band energies     occupation 
      1     -11.4720      2.00000
      2      -3.2875      2.00000
      3      -1.7765      2.00000
      4      -1.7765      2.00000
      5      -1.7765      2.00000
      6      -1.7765      2.00000
      7      -0.2984      2.00000
      8       4.6502      2.00000
      9       4.6502      2.00000
     10       4.6502      2.00000
     11       4.6502      2.00000
     12       4.8844      2.00000
     13       4.8844      2.00000
     14      11.7796      2.00000
     15      11.7796      2.00000
     16      11.9402      2.00000
     17      16.8314      0.00000
     18      17.4575      0.00000
     19      17.4575      0.00000
     20      17.4575      0.00000
     21      17.4575      0.00000
     22      17.6535      0.00000
     23      18.0718      0.00000
     24      18.5069      0.00000

 k-point     3 :       0.1667    0.0000    0.0000
  band No.  band energies     occupation 
      1     -11.2592      2.00000
      2      -4.6579      2.00000
      3      -1.6272      2.00000
      4      -1.6272      2.00000
      5      -1.6272      2.00000
      6      -1.6272      2.00000
      7       1.2766      2.00000
      8       4.2120      2.00000
      9       4.2120      2.00000
     10       4.2120      2.00000
     11       4.2120      2.00000
     12       5.0987      2.00000
     13       5.0987      2.00000
     14      11.0093      2.00000
     15      11.0093      2.00000
     16      11.4843      2.00000
     17      16.6430      0.00000
     18      17.9256      0.00000
     19      18.2882      0.00000
     20      18.2882      0.00000
     21      18.2882      0.00000
     22      18.2882      0.00000
     23      18.3280      0.00000
     24      19.4751      0.00000

 k-point     4 :       0.2500    0.0000    0.0000
  band No.  band energies     occupation 
      1     -10.9054      2.00000
      2      -5.9256      2.00000
      3      -1.3954      2.00000
      4      -1.3954      2.00000
      5      -1.3954      2.00000
      6      -1.3954      2.00000
      7       2.8672      2.00000
      8       3.6237      2.00000
      9       3.6237      2.00000
     10       3.6237      2.00000
     11       3.6237      2.00000
     12       5.4505      2.00000
     13       5.4505      2.00000
     14      10.0548      2.00000
     15      10.0548      2.00000
     16      10.7625      2.00000
     17      16.5718      0.00000
     18      17.6997      0.00000
     19      19.2068      0.00000
     20      19.5260      0.00000
     21      19.5260      0.00000
     22      19.5260      0.00000
     23      19.5260      0.00000
     24      20.7482      0.00000

 k-point     5 :       0.3333    0.0000    0.0000
  band No.  band energies     occupation 
      1     -10.4114      2.00000
      2      -7.0784      2.00000
      3      -1.1170      2.00000
      4      -1.1170      2.00000
      5      -1.1170      2.00000
      6      -1.1170      2.00000
      7       3.0209      2.00000
      8       3.0209      2.00000
      9       3.0209      2.00000
     10       3.0209      2.00000
     11       4.4401      2.00000
     12       5.9402      2.00000
     13       5.9402      2.00000
     14       9.0747      2.00000
     15       9.0747      2.00000
     16       9.8147      2.00000
     17      16.6109      0.00000
     18      17.4423      0.00000
     19      20.3136      0.00000
     20      21.0162      0.00000
     21      21.0162      0.00000
     22      21.0162      0.00000
     23      21.0162      0.00000
     24      22.1739      0.00000

 k-point     6 :       0.4167    0.0000    0.0000
  band No.  band energies     occupation 
      1      -9.7789      2.00000
      2      -8.1086      2.00000
      3      -0.8649      2.00000
      4      -0.8649      2.00000
      5      -0.8649      2.00000
      6      -0.8649      2.00000
      7       2.5499      2.00000
      8       2.5499      2.00000
      9       2.5499      2.00000
     10       2.5499      2.00000
     11       5.9556      2.00000
     12       6.5579      2.00000
     13       6.5579      2.00000
     14       8.1423      2.00000
     15       8.1423      2.00000
     16       8.6807      2.00000
     17      16.7383      0.00000
     18      17.1819      0.00000
     19      21.6578      0.00000
     20      22.5452      0.00000
     21      22.5452      0.00000
     22      22.5452      0.00000
     23      22.5452      0.00000
     24      23.6674      0.00000

 k-point     7 :       0.5000    0.0000    0.0000
  band No.  band energies     occupation 
      1      -9.0103      2.00000
      2      -9.0103      2.00000
      3      -0.7566      2.00000
      4      -0.7566      2.00000
      5      -0.7566      2.00000
      6      -0.7566      2.00000
      7       2.3648      2.00000
      8       2.3648      2.00000
      9       2.3648      2.00000
     10       2.3648      2.00000
     11       7.2952      2.00000
     12       7.2952      2.00000
     13       7.2952      2.00000
     14       7.2952      2.00000
     15       7.3774      2.00000
     16       7.3774      2.00000
     17      16.9334      0.00000
     18      16.9334      0.00000
     19      23.2334      0.00000
     20      23.2334      0.00000
     21      23.4258      0.00000
     22      23.4258      0.00000
     23      23.4258      0.00000
     24      23.4258      0.00000

 k-point     8 :       0.0833    0.0833    0.0000
  band No.  band energies     occupation 
      1     -11.4010      2.00000
      2      -3.2291      2.00000
      3      -3.2291      2.00000
      4      -1.7506      2.00000
      5      -1.7032      2.00000
      6      -0.2596      2.00000
      7      -0.2596      2.00000
      8       4.0870      2.00000
      9       4.7096      2.00000
     10       4.7096      2.00000
     11       4.7375      2.00000
     12       4.7375      2.00000
     13       4.9377      2.00000
     14      11.3007      2.00000
     15      11.4775      2.00000
     16      12.0085      2.00000
     17      17.1333      0.00000
     18      17.1333      0.00000
     19      17.2737      0.00000
     20      17.9403      0.00000
     21      17.9403      0.00000
     22      18.1846      0.00000
     23      18.2728      0.00000
     24      18.6260      0.00000

 k-point     9 :       0.1667    0.0833    0.0000
  band No.  band energies     occupation 
      1     -11.1884      2.00000
      2      -4.5953      2.00000
      3      -3.0562      2.00000
      4      -1.6394      2.00000
      5      -1.5280      2.00000
      6      -0.1522      2.00000
      7       1.2920      2.00000
      8       3.3679      2.00000
      9       4.2404      2.00000
     10       4.3508      2.00000
     11       4.8970      2.00000
     12       4.9141      2.00000
     13       4.9792      2.00000
     14      10.4766      2.00000
     15      10.7331      2.00000
     16      11.7208      2.00000
     17      16.9497      0.00000
     18      17.6763      0.00000
     19      17.9808      0.00000
     20      18.2147      0.00000
     21      18.6038      0.00000
     22      18.7487      0.00000
     23      19.3388      0.00000
     24      19.4840      0.00000

 k-point    10 :       0.2500    0.0833    0.0000
  band No.  band energies     occupation 
      1     -10.8347      2.00000
      2      -5.8600      2.00000
      3      -2.7770      2.00000
      4      -1.4772      2.00000
      5      -1.2573      2.00000
      6      -0.0085      2.00000
      7       2.6328      2.00000
      8       2.8343      2.00000
      9       3.6002      2.00000
     10       3.8531      2.00000
     11       4.5858      2.00000
     12       5.2597      2.00000
     13       5.3842      2.00000
     14       9.5203      2.00000
     15       9.8025      2.00000
     16      11.0913      2.00000
     17      16.8845      0.00000
     18      18.0060      0.00000
     19      18.5972      0.00000
     20      19.2441      0.00000
     21      19.4694      0.00000
     22      19.9483      0.00000
     23      20.7406      0.00000
     24      20.7938      0.00000

 k-point    11 :       0.3333    0.0833    0.0000
  band No.  band energies     occupation 
      1     -10.3411      2.00000
      2      -7.0112      2.00000
      3      -2.4096      2.00000
      4      -1.3388      2.00000
      5      -0.9089      2.00000
      6       0.1016      2.00000
      7       2.0322      2.00000
      8       2.9124      2.00000
      9       3.4094      2.00000
     10       4.1252      2.00000
     11       4.2964      2.00000
     12       5.7415      2.00000
     13       5.9850      2.00000
     14       8.5360      2.00000
     15       8.8384      2.00000
     16      10.2063      2.00000
     17      16.9231      0.00000
     18      17.7543      0.00000
     19      19.8910      0.00000
     20      20.5591      0.00000
     21      20.7785      0.00000
     22      21.3602      0.00000
     23      22.1165      0.00000
     24      22.1612      0.00000

 k-point    12 :       0.4167    0.0833    0.0000
  band No.  band energies     occupation 
      1      -9.7090      2.00000
      2      -8.0402      2.00000
      3      -1.9908      2.00000
      4      -1.3514      2.00000
      5      -0.5187      2.00000
      6       0.0722      2.00000
      7       1.7374      2.00000
      8       2.2895      2.00000
      9       3.1927      2.00000
     10       3.6494      2.00000
     11       5.5667      2.00000
     12       6.3515      2.00000
     13       6.8479      2.00000
     14       7.5675      2.00000
     15       7.9183      2.00000
     16       9.1360      2.00000
     17      17.0501      0.00000
     18      17.4927      0.00000
     19      21.3670      0.00000
     20      21.8836      0.00000
     21      22.4378      0.00000
     22      22.6122      0.00000
     23      23.5099      0.00000
     24      23.6561      0.00000

 k-point    13 :       0.5000    0.0833    0.0000
  band No.  band energies     occupation 
      1      -8.9410      2.00000
      2      -8.9410      2.00000
      3      -1.5960      2.00000
      4      -1.5960      2.00000
      5      -0.1566      2.00000
      6      -0.1566      2.00000
      7       1.8505      2.00000
      8       1.8505      2.00000
      9       3.2953      2.00000
     10       3.2953      2.00000
     11       6.6096      2.00000
     12       6.6096      2.00000
     13       7.0822      2.00000
     14       7.0822      2.00000
     15       7.9624      2.00000
     16       7.9624      2.00000
     17      17.2477      0.00000
     18      17.2477      0.00000
     19      22.6417      0.00000
     20      22.6417      0.00000
     21      23.4255      0.00000
     22      23.4255      0.00000
     23      23.9070      0.00000
     24      23.9070      0.00000

 k-point    14 :       0.1667    0.1667    0.0000
  band No.  band energies     occupation 
      1     -10.9762      2.00000
      2      -4.4086      2.00000
      3      -4.4086      2.00000
      4      -1.5974      2.00000
      5      -1.3300      2.00000
      6       1.3189      2.00000
      7       1.3189      2.00000
      8       2.5018      2.00000
      9       4.4220      2.00000
     10       4.4220      2.00000
     11       4.6793      2.00000
     12       4.6793      2.00000
     13       5.3012      2.00000
     14       9.6025      2.00000
     15      10.0406      2.00000
     16      11.7310      2.00000
     17      17.6062      0.00000
     18      17.8089      0.00000
     19      17.8089      0.00000
     20      18.7188      0.00000
     21      19.3811      0.00000
     22      19.3811      0.00000
     23      19.7592      0.00000
     24      20.1624      0.00000

 k-point    15 :       0.2500    0.1667    0.0000
  band No.  band energies     occupation 
      1     -10.6231      2.00000
      2      -5.6646      2.00000
      3      -4.1027      2.00000
      4      -1.5761      2.00000
      5      -1.0325      2.00000
      6       1.2960      2.00000
      7       1.7679      2.00000
      8       2.7037      2.00000
      9       3.7468      2.00000
     10       4.3473      2.00000
     11       4.7482      2.00000
     12       5.2470      2.00000
     13       5.3788      2.00000
     14       8.6409      2.00000
     15       9.1551      2.00000
     16      11.3441      2.00000
     17      17.7489      0.00000
     18      18.1094      0.00000
     19      18.7525      0.00000
     20      19.0807      0.00000
     21      20.2061      0.00000
     22      20.5237      0.00000
     23      20.7688      0.00000
     24      20.9635      0.00000

 k-point    16 :       0.3333    0.1667    0.0000
  band No.  band energies     occupation 
      1     -10.1303      2.00000
      2      -6.8101      2.00000
      3      -3.6869      2.00000
      4      -1.7090      2.00000
      5      -0.6438      2.00000
      6       1.1312      2.00000
      7       1.3490      2.00000
      8       3.0118      2.00000
      9       3.8997      2.00000
     10       4.1620      2.00000
     11       5.1883      2.00000
     12       5.2110      2.00000
     13       6.1128      2.00000
     14       7.6697      2.00000
     15       8.2263      2.00000
     16      10.6141      2.00000
     17      17.7882      0.00000
     18      18.5688      0.00000
     19      19.1019      0.00000
     20      20.6338      0.00000
     21      21.2402      0.00000
     22      21.7957      0.00000
     23      21.9785      0.00000
     24      22.1425      0.00000

 k-point    17 :       0.4167    0.1667    0.0000
  band No.  band energies     occupation 
      1      -9.4996      2.00000
      2      -7.8352      2.00000
      3      -3.1804      2.00000
      4      -2.0858      2.00000
      5      -0.1826      2.00000
      6       0.7830      2.00000
      7       1.3614      2.00000
      8       2.3104      2.00000
      9       4.2215      2.00000
     10       4.8487      2.00000
     11       4.8977      2.00000
     12       5.8050      2.00000
     13       6.7238      2.00000
     14       7.2403      2.00000
     15       7.3334      2.00000
     16       9.6255      2.00000
     17      17.9134      0.00000
     18      18.3334      0.00000
     19      20.4199      0.00000
     20      22.3406      0.00000
     21      22.4846      0.00000
     22      22.5268      0.00000
     23      23.0942      0.00000
     24      23.6362      0.00000

 k-point    18 :       0.5000    0.1667    0.0000
  band No.  band energies     occupation 
      1      -8.7334      2.00000
      2      -8.7334      2.00000
      3      -2.6207      2.00000
      4      -2.6207      2.00000
      5       0.3143      2.00000
      6       0.3143      2.00000
      7       1.7276      2.00000
      8       1.7276      2.00000
      9       4.4884      2.00000
     10       4.4884      2.00000
     11       5.8099      2.00000
[...]

 k-point    72 :       0.4167    0.4167    0.2500
  band No.  band energies     occupation 
      1      -7.4350      2.00000
      2      -5.8467      2.00000
      3      -5.8467      2.00000
      4      -4.4704      2.00000
      5      -2.0363      2.00000
      6      -0.7098      2.00000
      7      -0.7098      2.00000
      8       0.8056      2.00000
      9       5.9473      2.00000
     10       6.7981      2.00000
     11       6.7981      2.00000
     12       7.9492      2.00000
     13       7.9882      2.00000
     14       8.1703      2.00000
     15       8.1703      2.00000
     16       9.4187      2.00000
     17      20.2291      0.00000
     18      20.7420      0.00000
     19      20.7420      0.00000
     20      21.2463      0.00000
     21      21.5145      0.00000
     22      22.3537      0.00000
     23      22.3537      0.00000
     24      23.2159      0.00000

 k-point    73 :       0.5000    0.4167    0.2500
  band No.  band energies     occupation 
      1      -6.6974      2.00000
      2      -6.6974      2.00000
      3      -5.1713      2.00000
      4      -5.1713      2.00000
      5      -1.4799      2.00000
      6      -1.4799      2.00000
      7      -0.0176      2.00000
      8      -0.0176      2.00000
      9       6.3912      2.00000
     10       6.3912      2.00000
     11       7.4165      2.00000
     12       7.4165      2.00000
     13       8.2061      2.00000
     14       8.2061      2.00000
     15       8.9461      2.00000
     16       8.9461      2.00000
     17      20.7664      0.00000
     18      20.7664      0.00000
     19      21.0594      0.00000
     20      21.0594      0.00000
     21      21.8739      0.00000
     22      21.8739      0.00000
     23      22.4963      0.00000
     24      22.4963      0.00000

 k-point    74 :       0.5000    0.5000    0.2500
  band No.  band energies     occupation 
      1      -5.9802      2.00000
      2      -5.9802      2.00000
      3      -5.9802      2.00000
      4      -5.9802      2.00000
      5      -0.8245      2.00000
      6      -0.8245      2.00000
      7      -0.8245      2.00000
      8      -0.8245      2.00000
      9       6.9196      2.00000
     10       6.9196      2.00000
     11       6.9196      2.00000
     12       6.9196      2.00000
     13       8.7448      2.00000
     14       8.7448      2.00000
     15       8.7448      2.00000
     16       8.7448      2.00000
     17      21.0216      0.00000
     18      21.0216      0.00000
     19      21.0216      0.00000
     20      21.0216      0.00000
     21      22.1129      0.00000
     22      22.1129      0.00000
     23      22.1129      0.00000
     24      22.1129      0.00000

 k-point    75 :       0.3333    0.3333    0.3333
  band No.  band energies     occupation 
      1      -8.1848      2.00000
      2      -5.0361      2.00000
      3      -5.0361      2.00000
      4      -5.0361      2.00000
      5      -1.3739      2.00000
      6      -1.3739      2.00000
      7      -1.3739      2.00000
      8       1.6375      2.00000
      9       6.5165      2.00000
     10       6.5165      2.00000
     11       6.5165      2.00000
     12       7.5054      2.00000
     13       7.5054      2.00000
     14       7.5054      2.00000
     15       9.4224      2.00000
     16       9.4224      2.00000
     17      19.7385      0.00000
     18      19.7385      0.00000
     19      19.7385      0.00000
     20      21.1247      0.00000
     21      21.1247      0.00000
     22      22.4929      0.00000
     23      23.9256      0.00000
     24      23.9256      0.00000

 k-point    76 :       0.4167    0.3333    0.3333
  band No.  band energies     occupation 
      1      -7.5709      2.00000
      2      -5.9773      2.00000
      3      -4.5896      2.00000
      4      -4.5896      2.00000
      5      -2.1779      2.00000
      6      -2.1779      2.00000
      7      -0.8366      2.00000
      8       0.6905      2.00000
      9       6.7474      2.00000
     10       6.7474      2.00000
     11       7.7501      2.00000
     12       7.7604      2.00000
     13       7.7604      2.00000
     14       7.9347      2.00000
     15       8.9254      2.00000
     16       9.3016      2.00000
     17      20.1337      0.00000
     18      20.3043      0.00000
     19      20.3043      0.00000
     20      20.8496      0.00000
     21      21.6082      0.00000
     22      22.8343      0.00000
     23      22.9678      0.00000
     24      22.9768      0.00000

 k-point    77 :       0.5000    0.3333    0.3333
  band No.  band energies     occupation 
      1      -6.8311      2.00000
      2      -6.8311      2.00000
      3      -4.3452      2.00000
      4      -4.3452      2.00000
      5      -2.5424      2.00000
      6      -2.5424      2.00000
      7      -0.1395      2.00000
      8      -0.1395      2.00000
      9       6.8269      2.00000
     10       6.8269      2.00000
     11       7.8443      2.00000
     12       7.8443      2.00000
     13       8.4180      2.00000
     14       8.4180      2.00000
     15       8.7162      2.00000
     16       8.7162      2.00000
     17      20.5228      0.00000
     18      20.5228      0.00000
     19      20.8049      0.00000
     20      20.8049      0.00000
     21      22.2570      0.00000
     22      22.2570      0.00000
     23      22.2835      0.00000
     24      22.2835      0.00000

 k-point    78 :       0.4167    0.4167    0.3333
  band No.  band energies     occupation 
      1      -6.9661      2.00000
      2      -5.4272      2.00000
      3      -5.4272      2.00000
      4      -4.4675      2.00000
      5      -2.6777      2.00000
      6      -1.7398      2.00000
      7      -1.7398      2.00000
      8      -0.2548      2.00000
      9       7.1896      2.00000
     10       7.7006      2.00000
     11       7.7006      2.00000
     12       8.1914      2.00000
     13       8.2866      2.00000
     14       8.2866      2.00000
     15       8.7097      2.00000
     16       9.2443      2.00000
     17      20.5144      0.00000
     18      20.6417      0.00000
     19      20.6417      0.00000
     20      21.1405      0.00000
     21      21.3826      0.00000
     22      22.2959      0.00000
     23      22.2959      0.00000
     24      22.6168      0.00000

 k-point    79 :       0.5000    0.4167    0.3333
  band No.  band energies     occupation 
      1      -6.2436      2.00000
      2      -6.2436      2.00000
      3      -4.8431      2.00000
      4      -4.8431      2.00000
      5      -2.4358      2.00000
      6      -2.4358      2.00000
      7      -1.0745      2.00000
      8      -1.0745      2.00000
      9       7.4952      2.00000
     10       7.4952      2.00000
     11       8.2793      2.00000
     12       8.2793      2.00000
     13       8.3914      2.00000
     14       8.3914      2.00000
     15       8.9001      2.00000
     16       8.9001      2.00000
     17      20.9119      0.00000
     18      20.9119      0.00000
     19      20.9569      0.00000
     20      20.9569      0.00000
     21      21.7429      0.00000
     22      21.7429      0.00000
     23      22.0079      0.00000
     24      22.0079      0.00000

 k-point    80 :       0.5000    0.5000    0.3333
  band No.  band energies     occupation 
      1      -5.5580      2.00000
      2      -5.5580      2.00000
      3      -5.5580      2.00000
      4      -5.5580      2.00000
      5      -1.8645      2.00000
      6      -1.8645      2.00000
      7      -1.8645      2.00000
      8      -1.8645      2.00000
      9       7.9414      2.00000
     10       7.9414      2.00000
     11       7.9414      2.00000
     12       7.9414      2.00000
     13       8.8157      2.00000
     14       8.8157      2.00000
     15       8.8157      2.00000
     16       8.8157      2.00000
     17      21.1423      0.00000
     18      21.1423      0.00000
     19      21.1423      0.00000
     20      21.1423      0.00000
     21      21.6444      0.00000
     22      21.6444      0.00000
     23      21.6444      0.00000
     24      21.6444      0.00000

 k-point    81 :       0.4167    0.4167    0.4167
  band No.  band energies     occupation 
      1      -6.3764      2.00000
      2      -4.9680      2.00000
      3      -4.9680      2.00000
      4      -4.9680      2.00000
      5      -2.5706      2.00000
      6      -2.5706      2.00000
      7      -2.5706      2.00000
      8      -1.1983      2.00000
      9       8.1938      2.00000
     10       8.1938      2.00000
     11       8.1938      2.00000
     12       8.4667      2.00000
     13       8.4667      2.00000
     14       8.4667      2.00000
     15       9.0174      2.00000
     16       9.0174      2.00000
     17      20.7986      0.00000
     18      20.7986      0.00000
     19      20.7986      0.00000
     20      21.2156      0.00000
     21      21.2156      0.00000
     22      21.9738      0.00000
     23      21.9738      0.00000
     24      21.9738      0.00000

 k-point    82 :       0.5000    0.4167    0.4167
  band No.  band energies     occupation 
      1      -5.6876      2.00000
      2      -5.6876      2.00000
      3      -4.7126      2.00000
      4      -4.7126      2.00000
      5      -2.9505      2.00000
      6      -2.9505      2.00000
      7      -1.9943      2.00000
      8      -1.9943      2.00000
      9       8.2807      2.00000
     10       8.2807      2.00000
     11       8.6201      2.00000
     12       8.6201      2.00000
     13       8.7528      2.00000
     14       8.7528      2.00000
     15       8.8403      2.00000
     16       8.8403      2.00000
     17      21.0355      0.00000
     18      21.0355      0.00000
     19      21.0430      0.00000
     20      21.0430      0.00000
     21      21.4960      0.00000
     22      21.4960      0.00000
     23      21.6325      0.00000
     24      21.6325      0.00000

 k-point    83 :       0.5000    0.5000    0.4167
  band No.  band energies     occupation 
      1      -5.0947      2.00000
      2      -5.0947      2.00000
      3      -5.0947      2.00000
      4      -5.0947      2.00000
      5      -2.7032      2.00000
      6      -2.7032      2.00000
      7      -2.7032      2.00000
      8      -2.7032      2.00000
      9       8.6344      2.00000
     10       8.6344      2.00000
     11       8.6344      2.00000
     12       8.6344      2.00000
     13       8.8660      2.00000
     14       8.8660      2.00000
     15       8.8660      2.00000
     16       8.8660      2.00000
     17      21.2006      0.00000
     18      21.2006      0.00000
     19      21.2006      0.00000
     20      21.2006      0.00000
     21      21.3248      0.00000
     22      21.3248      0.00000
     23      21.3248      0.00000
     24      21.3248      0.00000

 k-point    84 :       0.5000    0.5000    0.5000
  band No.  band energies     occupation 
      1      -4.8355      2.00000
      2      -4.8355      2.00000
      3      -4.8355      2.00000
      4      -4.8355      2.00000
      5      -3.0881      2.00000
      6      -3.0881      2.00000
      7      -3.0881      2.00000
      8      -3.0881      2.00000
      9       8.8867      2.00000
     10       8.8867      2.00000
     11       8.8867      2.00000
     12       8.8867      2.00000
     13       8.8867      2.00000
     14       8.8867      2.00000
     15       8.8867      2.00000
     16       8.8867      2.00000
     17      21.2127      0.00000
     18      21.2127      0.00000
     19      21.2127      0.00000
     20      21.2127      0.00000
     21      21.2127      0.00000
     22      21.2127      0.00000
     23      21.2127      0.00000
     24      21.2127      0.00000


--------------------------------------------------------------------------------------------------------


 soft charge-density along one line, spin component           1
         0         1         2         3         4         5         6         7         8         9
 total charge-density along one line
 
 pseudopotential strength for first ion, spin component:           1
  9.316  -0.009   0.000   0.000   0.000  -0.000  -0.000  -0.000
 -0.009  -0.002  -0.000  -0.000  -0.000  -0.000  -0.000  -0.000
  0.000  -0.000  -3.530  -0.000  -0.000  -0.015  -0.000  -0.000
  0.000  -0.000  -0.000  -3.530   0.000  -0.000  -0.015   0.000
  0.000  -0.000  -0.000   0.000  -3.530  -0.000   0.000  -0.015
 -0.000  -0.000  -0.015  -0.000  -0.000  -0.754  -0.000  -0.000
 -0.000  -0.000  -0.000  -0.015   0.000  -0.000  -0.754   0.000
 -0.000  -0.000  -0.000   0.000  -0.015  -0.000   0.000  -0.754
 total augmentation occupancy for first ion, spin component:           1
  1.452  -1.249  -0.000   0.000   0.000   0.000   0.000  -0.000
 -1.249   1.407  -0.000   0.000   0.000  -0.000   0.000   0.000
 -0.000  -0.000   1.196  -0.000  -0.000   0.214   0.000  -0.000
 -0.000  -0.000   0.000   1.196   0.000  -0.000   0.214  -0.000
  0.000  -0.000  -0.000  -0.000   1.196   0.000  -0.000   0.214
 -0.000   0.000   0.214  -0.000  -0.000   0.046   0.000  -0.000
  0.000   0.000   0.000   0.214   0.000   0.000   0.046  -0.000
  0.000   0.000  -0.000  -0.000   0.214   0.000  -0.000   0.046


------------------------ aborting loop because EDIFF is reached ----------------------------------------


    CHARGE:  cpu time    0.1290: real time    0.1290
    FORLOC:  cpu time    0.0020: real time    0.0020
    FORNL :  cpu time    0.1859: real time    0.1860
    STRESS:  cpu time    0.4434: real time    0.4436
    FORHAR:  cpu time    0.0057: real time    0.0057
    MIXING:  cpu time    0.0023: real time    0.0023
    OFIELD:  cpu time    0.0001: real time    0.0001

  FORCE on cell =-STRESS in cart. coord.  units (eV):
  Direction    XX          YY          ZZ          XY          YZ          ZX
  --------------------------------------------------------------------------------------
  Alpha Z   133.81666   133.81666   133.81666
  Ewald    -488.09649  -488.09649  -488.09649    -0.00000     0.00000    -0.00000
  Hartree    32.41871    32.41871    32.41871    -0.00000    -0.00000    -0.00000
  E(xc)    -124.07489  -124.07489  -124.07489    -0.00000     0.00000     0.00000
  Local     -36.15107   -36.15107   -36.15107    -0.00000    -0.00000     0.00000
  n-local   -34.28497   -34.99315   -35.16049     0.56805     0.65849     0.30163
  augment    -3.51506    -3.51506    -3.51506    -0.00000    -0.00000     0.00000
  Kinetic   528.64025   546.16451   550.23313    -4.82210    -6.57296    -3.30256
  Fock        0.00000     0.00000     0.00000     0.00000     0.00000     0.00000
  -------------------------------------------------------------------------------------
  Total      21.26429    21.26429    21.26429    -0.00000     0.00000    -0.00000
  in kB     874.25820   874.25820   874.25820    -0.00000     0.00000    -0.00000
  external pressure =      874.26 kB  Pullay stress =        0.00 kB


 VOLUME and BASIS-vectors are now :
 -----------------------------------------------------------------------------
  energy-cutoff  :      400.00
  volume of cell :       38.97
      direct lattice vectors                 reciprocal lattice vectors
     3.390319000  0.000000000  0.000000000     0.294957495  0.000000000  0.000000000
     0.000000000  3.390319000  0.000000000     0.000000000  0.294957495  0.000000000
     0.000000000  0.000000000  3.390319000     0.000000000  0.000000000  0.294957495

  length of vectors
     3.390319000  3.390319000  3.390319000     0.294957495  0.294957495  0.294957495


 FORCES acting on ions
    electron-ion (+dipol)            ewald-force                    non-local-force                 convergence-correction
 -----------------------------------------------------------------------------------------------
   0.838E-14 -.150E-12 0.375E-13   -.355E-13 0.000E+00 0.711E-14   0.128E-17 0.232E-16 -.282E-17   -.106E-13 -.551E-14 -.304E-14
   -.838E-14 -.254E-14 0.507E-13   -.160E-13 -.708E-14 -.242E-16   0.101E-16 -.148E-16 0.311E-17   0.234E-14 0.322E-14 -.189E-14
   0.838E-14 -.168E-12 0.554E-13   -.213E-13 0.711E-14 0.284E-13   0.283E-17 0.410E-16 -.176E-16   -.113E-13 -.630E-14 -.230E-14
   -.838E-14 0.218E-13 0.253E-13   -.582E-15 -.596E-17 0.209E-13   0.254E-17 -.145E-19 0.230E-16   0.625E-15 0.477E-14 -.460E-15
   0.335E-13 0.207E-12 0.411E-12   0.000E+00 0.000E+00 -.213E-13   0.644E-18 0.206E-16 0.162E-17   -.352E-14 -.526E-14 -.242E-14
   0.000E+00 -.558E-14 -.373E-12   0.213E-13 -.100E-13 -.288E-13   0.968E-17 -.278E-16 0.471E-17   -.505E-15 0.352E-14 -.156E-14
   0.251E-13 -.177E-12 0.260E-13   0.213E-13 0.711E-14 0.000E+00   -.921E-17 -.428E-17 -.309E-16   -.333E-14 -.371E-14 -.434E-14
   0.000E+00 0.371E-12 0.455E-13   0.427E-13 -.121E-15 -.716E-14   0.512E-17 -.287E-16 0.169E-16   0.318E-16 0.589E-14 -.332E-14
 -----------------------------------------------------------------------------------------------
   0.587E-13 0.956E-13 0.278E-12   0.119E-13 -.303E-14 -.845E-15   0.230E-16 0.914E-17 -.187E-17   -.262E-13 -.339E-14 -.193E-13
 
 
 POSITION                                       TOTAL-FORCE (eV/Angst)
 -----------------------------------------------------------------------------------
      0.84758      2.54274      0.84758         0.000000      0.000000     -0.000000
      0.00000      0.00000      1.69516        -0.000000      0.000000     -0.000000
      0.84758      0.84758      2.54274         0.000000     -0.000000      0.000000
      0.00000      1.69516      0.00000        -0.000000      0.000000     -0.000000
      2.54274      2.54274      2.54274        -0.000000     -0.000000      0.000000
      1.69516      0.00000      0.00000         0.000000     -0.000000     -0.000000
      2.54274      0.84758      0.84758         0.000000     -0.000000      0.000000
      1.69516      1.69516      1.69516        -0.000000      0.000000     -0.000000
 -----------------------------------------------------------------------------------
    total drift:                                0.000000      0.000000      0.000000


--------------------------------------------------------------------------------------------------------



  FREE ENERGIE OF THE ION-ELECTRON SYSTEM (eV)
  ---------------------------------------------------
  free  energy   TOTEN  =       -71.08817496 eV

  energy  without entropy=      -71.08817496  energy(sigma->0) =      -71.08817496
 


--------------------------------------------------------------------------------------------------------


    POTLOK:  cpu time    0.0278: real time    0.0278


--------------------------------------------------------------------------------------------------------


     LOOP+:  cpu time   54.6680: real time   55.0355
    4ORBIT:  cpu time    0.0000: real time    0.0000
 BZINTS: Fermi energy: 12.165392; 32.000000 electrons
         Band energy:  67.959110;  BLOECHL correction:  0.000000

 total amount of memory used by VASP MPI-rank0    33455. kBytes
=======================================================================

   base      :      30000. kBytes
   nonl-proj :       1012. kBytes
   fftplans  :        344. kBytes
   grid      :        481. kBytes
   one-center:          6. kBytes
   wavefun   :       1612. kBytes
 
  
  
 General timing and accounting informations for this job:
 ========================================================
  
                  Total CPU time used (sec):       56.974
                            User time (sec):       55.042
                          System time (sec):        1.933
                         Elapsed time (sec):       57.361
  
                   Maximum memory used (kb):      189604.
                   Average memory used (kb):           0.
  
                          Minor page faults:        36882
                          Major page faults:           36
                 Voluntary context switches:          785
