   8   8   0   0
  0.5780106E+01  0.3589999E-09  0.3589999E-09  0.3589999E-09  0.2000000E-16
  1.000000000000000E-004
  CAR 
 unknown system                          
     22.87325553    -13.39422104  301      9.59029224      1.00000000
    -13.394  0.0000E+00  0.0000E+00
    -13.273  0.0000E+00  0.0000E+00
    -13.152  0.0000E+00  0.0000E+00
    -13.032  0.0000E+00  0.0000E+00
    -12.911  0.0000E+00  0.0000E+00
    -12.790  0.0000E+00  0.0000E+00
    -12.669  0.0000E+00  0.0000E+00
    -12.548  0.0000E+00  0.0000E+00
    -12.427  0.0000E+00  0.0000E+00
    -12.306  0.0000E+00  0.0000E+00
    -12.185  0.0000E+00  0.0000E+00
    -12.064  0.0000E+00  0.0000E+00
    -11.944  0.0000E+00  0.0000E+00
    -11.823  0.0000E+00  0.0000E+00
    -11.702  0.3646E-01  0.5342E-03
    -11.581  0.1566E+00  0.1509E-01
    -11.460  0.2435E+00  0.3931E-01
    -11.339  0.2762E+00  0.7041E-01
    -11.218  0.3244E+00  0.1067E+00
    -11.097  0.3641E+00  0.1488E+00
    -10.976  0.3940E+00  0.1946E+00
    -10.855  0.4258E+00  0.2440E+00
    -10.735  0.4643E+00  0.2978E+00
    -10.614  0.4875E+00  0.3555E+00
    -10.493  0.5112E+00  0.4159E+00
    -10.372  0.5376E+00  0.4792E+00
    -10.251  0.5663E+00  0.5459E+00
    -10.130  0.5934E+00  0.6161E+00
    -10.009  0.6132E+00  0.6890E+00
     -9.888  0.6352E+00  0.7644E+00
     -9.767  0.6607E+00  0.8427E+00
     -9.647  0.6882E+00  0.9243E+00
     -9.526  0.7186E+00  0.1009E+01
     -9.405  0.7273E+00  0.1097E+01
     -9.284  0.7416E+00  0.1186E+01
     -9.163  0.7595E+00  0.1277E+01
     -9.042  0.7780E+00  0.1370E+01
     -8.921  0.7991E+00  0.1465E+01
     -8.800  0.8230E+00  0.1563E+01
     -8.679  0.8434E+00  0.1664E+01
     -8.559  0.8599E+00  0.1767E+01
     -8.438  0.8836E+00  0.1872E+01
     -8.317  0.9045E+00  0.1980E+01
     -8.196  0.9242E+00  0.2091E+01
     -8.075  0.9439E+00  0.2204E+01
     -7.954  0.9611E+00  0.2319E+01
     -7.833  0.1036E+01  0.2438E+01
     -7.712  0.1115E+01  0.2569E+01
     -7.591  0.1123E+01  0.2705E+01
     -7.471  0.1094E+01  0.2839E+01
     -7.350  0.1040E+01  0.2968E+01
     -7.229  0.1037E+01  0.3094E+01
     -7.108  0.1071E+01  0.3220E+01
     -6.987  0.1092E+01  0.3351E+01
     -6.866  0.1121E+01  0.3484E+01
     -6.745  0.1200E+01  0.3624E+01
     -6.624  0.1209E+01  0.3770E+01
     -6.503  0.1309E+01  0.3920E+01
     -6.383  0.1300E+01  0.4078E+01
     -6.262  0.1380E+01  0.4246E+01
     -6.141  0.1440E+01  0.4416E+01
     -6.020  0.1566E+01  0.4597E+01
     -5.899  0.1570E+01  0.4788E+01
     -5.778  0.1527E+01  0.4978E+01
     -5.657  0.1395E+01  0.5154E+01
     -5.536  0.1510E+01  0.5329E+01
     -5.415  0.1421E+01  0.5503E+01
     -5.294  0.1456E+01  0.5675E+01
     -5.174  0.1343E+01  0.5845E+01
     -5.053  0.1281E+01  0.6003E+01
     -4.932  0.1235E+01  0.6155E+01
     -4.811  0.1190E+01  0.6301E+01
     -4.690  0.1163E+01  0.6444E+01
     -4.569  0.1118E+01  0.6581E+01
     -4.448  0.1083E+01  0.6715E+01
     -4.327  0.1227E+01  0.6855E+01
     -4.206  0.1084E+01  0.6989E+01
     -4.086  0.1006E+01  0.7116E+01
     -3.965  0.9601E+00  0.7234E+01
     -3.844  0.9154E+00  0.7347E+01
     -3.723  0.8925E+00  0.7457E+01
     -3.602  0.8673E+00  0.7563E+01
     -3.481  0.1021E+01  0.7677E+01
     -3.360  0.9586E+00  0.7797E+01
     -3.239  0.1128E+01  0.7920E+01
     -3.118  0.9263E+00  0.8040E+01
     -2.998  0.9276E+00  0.8149E+01
     -2.877  0.9591E+00  0.8266E+01
     -2.756  0.9337E+00  0.8380E+01
     -2.635  0.9344E+00  0.8491E+01
     -2.514  0.1069E+01  0.8611E+01
     -2.393  0.1275E+01  0.8752E+01
     -2.272  0.1503E+01  0.8918E+01
     -2.151  0.1839E+01  0.9118E+01
     -2.030  0.2250E+01  0.9363E+01
     -1.910  0.2695E+01  0.9665E+01
     -1.789  0.2488E+01  0.9988E+01
     -1.668  0.2586E+01  0.1029E+02
     -1.547  0.2074E+01  0.1058E+02
     -1.426  0.1827E+01  0.1081E+02
     -1.305  0.1711E+01  0.1103E+02
     -1.184  0.1588E+01  0.1123E+02
     -1.063  0.1491E+01  0.1141E+02
     -0.942  0.1420E+01  0.1159E+02
     -0.821  0.1381E+01  0.1176E+02
     -0.701  0.1353E+01  0.1192E+02
     -0.580  0.1315E+01  0.1208E+02
     -0.459  0.1253E+01  0.1224E+02
     -0.338  0.1161E+01  0.1240E+02
     -0.217  0.1106E+01  0.1253E+02
     -0.096  0.1093E+01  0.1266E+02
      0.025  0.1083E+01  0.1280E+02
      0.146  0.1060E+01  0.1293E+02
      0.267  0.9974E+00  0.1305E+02
      0.387  0.1061E+01  0.1317E+02
      0.508  0.1407E+01  0.1332E+02
      0.629  0.1747E+01  0.1351E+02
      0.750  0.1972E+01  0.1374E+02
      0.871  0.2177E+01  0.1400E+02
      0.992  0.2230E+01  0.1427E+02
      1.113  0.2163E+01  0.1453E+02
      1.234  0.2215E+01  0.1480E+02
      1.355  0.2291E+01  0.1507E+02
      1.475  0.2112E+01  0.1534E+02
      1.596  0.1453E+01  0.1556E+02
      1.717  0.1437E+01  0.1573E+02
      1.838  0.1697E+01  0.1592E+02
      1.959  0.2025E+01  0.1615E+02
      2.080  0.2338E+01  0.1641E+02
      2.201  0.2440E+01  0.1671E+02
      2.322  0.2407E+01  0.1700E+02
      2.443  0.2265E+01  0.1728E+02
      2.563  0.2323E+01  0.1755E+02
      2.684  0.2522E+01  0.1784E+02
      2.805  0.2713E+01  0.1817E+02
      2.926  0.2847E+01  0.1850E+02
      3.047  0.3269E+01  0.1888E+02
      3.168  0.2373E+01  0.1920E+02
      3.289  0.2953E+01  0.1951E+02
      3.410  0.2745E+01  0.1985E+02
      3.531  0.2696E+01  0.2017E+02
      3.651  0.3342E+01  0.2053E+02
      3.772  0.3796E+01  0.2096E+02
      3.893  0.3600E+01  0.2142E+02
      4.014  0.3210E+01  0.2182E+02
      4.135  0.2958E+01  0.2220E+02
      4.256  0.2717E+01  0.2254E+02
      4.377  0.2892E+01  0.2288E+02
      4.498  0.2972E+01  0.2323E+02
      4.619  0.2811E+01  0.2358E+02
      4.740  0.2950E+01  0.2393E+02
      4.860  0.2958E+01  0.2429E+02
      4.981  0.3012E+01  0.2465E+02
      5.102  0.3087E+01  0.2502E+02
      5.223  0.3006E+01  0.2539E+02
      5.344  0.2956E+01  0.2575E+02
      5.465  0.2596E+01  0.2608E+02
      5.586  0.2393E+01  0.2637E+02
      5.707  0.2552E+01  0.2667E+02
      5.828  0.2596E+01  0.2698E+02
      5.948  0.2784E+01  0.2731E+02
      6.069  0.2895E+01  0.2766E+02
      6.190  0.2790E+01  0.2800E+02
      6.311  0.2595E+01  0.2832E+02
      6.432  0.2643E+01  0.2864E+02
      6.553  0.2613E+01  0.2895E+02
      6.674  0.2448E+01  0.2928E+02
      6.795  0.1899E+01  0.2952E+02
      6.916  0.2113E+01  0.2977E+02
      7.036  0.1868E+01  0.3002E+02
      7.157  0.1601E+01  0.3023E+02
      7.278  0.1457E+01  0.3041E+02
      7.399  0.1365E+01  0.3058E+02
      7.520  0.1269E+01  0.3074E+02
      7.641  0.1178E+01  0.3089E+02
      7.762  0.1052E+01  0.3102E+02
      7.883  0.9616E+00  0.3115E+02
      8.004  0.9002E+00  0.3126E+02
      8.124  0.8555E+00  0.3136E+02
      8.245  0.7956E+00  0.3146E+02
      8.366  0.7116E+00  0.3156E+02
      8.487  0.6318E+00  0.3164E+02
      8.608  0.5689E+00  0.3171E+02
      8.729  0.5425E+00  0.3178E+02
      8.850  0.4254E+00  0.3184E+02
      8.971  0.3588E+00  0.3188E+02
      9.092  0.3880E+00  0.3193E+02
      9.213  0.2180E+00  0.3197E+02
      9.333  0.1271E+00  0.3199E+02
      9.454  0.2088E-01  0.3200E+02
      9.575  0.0000E+00  0.3200E+02
      9.696  0.0000E+00  0.3200E+02
      9.817  0.0000E+00  0.3200E+02
      9.938  0.0000E+00  0.3200E+02
     10.059  0.0000E+00  0.3200E+02
     10.180  0.0000E+00  0.3200E+02
     10.301  0.0000E+00  0.3200E+02
     10.421  0.0000E+00  0.3200E+02
     10.542  0.0000E+00  0.3200E+02
     10.663  0.0000E+00  0.3200E+02
     10.784  0.0000E+00  0.3200E+02
     10.905  0.0000E+00  0.3200E+02
     11.026  0.0000E+00  0.3200E+02
     11.147  0.0000E+00  0.3200E+02
     11.268  0.0000E+00  0.3200E+02
     11.389  0.0000E+00  0.3200E+02
     11.509  0.0000E+00  0.3200E+02
     11.630  0.0000E+00  0.3200E+02
     11.751  0.0000E+00  0.3200E+02
     11.872  0.0000E+00  0.3200E+02
     11.993  0.0000E+00  0.3200E+02
     12.114  0.0000E+00  0.3200E+02
     12.235  0.0000E+00  0.3200E+02
     12.356  0.0000E+00  0.3200E+02
     12.477  0.0000E+00  0.3200E+02
     12.597  0.0000E+00  0.3200E+02
     12.718  0.0000E+00  0.3200E+02
     12.839  0.0000E+00  0.3200E+02
     12.960  0.0000E+00  0.3200E+02
     13.081  0.0000E+00  0.3200E+02
     13.202  0.0000E+00  0.3200E+02
     13.323  0.0000E+00  0.3200E+02
     13.444  0.0000E+00  0.3200E+02
     13.565  0.5674E-02  0.3200E+02
     13.685  0.1351E+00  0.3201E+02
     13.806  0.4060E+00  0.3204E+02
     13.927  0.6535E+00  0.3211E+02
     14.048  0.6522E+00  0.3218E+02
     14.169  0.6719E+00  0.3226E+02
     14.290  0.8047E+00  0.3235E+02
     14.411  0.9273E+00  0.3246E+02
     14.532  0.1072E+01  0.3258E+02
     14.653  0.1358E+01  0.3273E+02
     14.774  0.1550E+01  0.3291E+02
     14.894  0.1500E+01  0.3310E+02
     15.015  0.1482E+01  0.3328E+02
     15.136  0.1540E+01  0.3346E+02
     15.257  0.1564E+01  0.3364E+02
     15.378  0.1760E+01  0.3384E+02
     15.499  0.1965E+01  0.3407E+02
     15.620  0.2120E+01  0.3432E+02
     15.741  0.2153E+01  0.3458E+02
     15.862  0.2167E+01  0.3484E+02
     15.982  0.2197E+01  0.3511E+02
     16.103  0.2174E+01  0.3537E+02
     16.224  0.2272E+01  0.3564E+02
     16.345  0.2373E+01  0.3592E+02
     16.466  0.2539E+01  0.3622E+02
     16.587  0.2716E+01  0.3653E+02
     16.708  0.2874E+01  0.3687E+02
     16.829  0.3179E+01  0.3724E+02
     16.950  0.3231E+01  0.3763E+02
     17.070  0.3338E+01  0.3802E+02
     17.191  0.3706E+01  0.3844E+02
     17.312  0.4536E+01  0.3897E+02
     17.433  0.3699E+01  0.3949E+02
     17.554  0.3574E+01  0.3991E+02
     17.675  0.2851E+01  0.4028E+02
     17.796  0.3053E+01  0.4064E+02
     17.917  0.3438E+01  0.4103E+02
     18.038  0.4097E+01  0.4148E+02
     18.158  0.4220E+01  0.4199E+02
     18.279  0.4042E+01  0.4248E+02
     18.400  0.3867E+01  0.4297E+02
     18.521  0.3575E+01  0.4341E+02
     18.642  0.3432E+01  0.4384E+02
     18.763  0.3143E+01  0.4424E+02
     18.884  0.2835E+01  0.4459E+02
     19.005  0.2789E+01  0.4493E+02
     19.126  0.2790E+01  0.4527E+02
     19.247  0.2699E+01  0.4560E+02
     19.367  0.2675E+01  0.4592E+02
     19.488  0.2838E+01  0.4626E+02
     19.609  0.2819E+01  0.4661E+02
     19.730  0.2639E+01  0.4693E+02
     19.851  0.2328E+01  0.4723E+02
     19.972  0.1850E+01  0.4749E+02
     20.093  0.1367E+01  0.4769E+02
     20.214  0.6797E+00  0.4781E+02
     20.335  0.4194E+00  0.4787E+02
     20.455  0.2933E+00  0.4792E+02
     20.576  0.1909E+00  0.4795E+02
     20.697  0.1366E+00  0.4797E+02
     20.818  0.9391E-01  0.4798E+02
     20.939  0.6391E-01  0.4799E+02
     21.060  0.4330E-01  0.4800E+02
     21.181  0.1481E-01  0.4800E+02
     21.302  0.0000E+00  0.4800E+02
     21.423  0.0000E+00  0.4800E+02
     21.543  0.0000E+00  0.4800E+02
     21.664  0.0000E+00  0.4800E+02
     21.785  0.0000E+00  0.4800E+02
     21.906  0.0000E+00  0.4800E+02
     22.027  0.0000E+00  0.4800E+02
     22.148  0.0000E+00  0.4800E+02
     22.269  0.0000E+00  0.4800E+02
     22.390  0.0000E+00  0.4800E+02
     22.511  0.0000E+00  0.4800E+02
     22.631  0.0000E+00  0.4800E+02
     22.752  0.0000E+00  0.4800E+02
     22.873  0.0000E+00  0.4800E+02
