       N       E                     dE             d eps       ncg     rms          rms(c)
DAV:   1     0.570115906260E+02    0.57012E+02   -0.14390E+04  9072   0.105E+03
DAV:   2    -0.709088181259E+02   -0.12792E+03   -0.12159E+03 12432   0.221E+02
DAV:   3    -0.750082210707E+02   -0.40994E+01   -0.40815E+01 11848   0.371E+01
DAV:   4    -0.750502817754E+02   -0.42061E-01   -0.42024E-01 11336   0.407E+00
DAV:   5    -0.750511215396E+02   -0.83976E-03   -0.83901E-03 11832   0.528E-01    0.931E+00
DAV:   6    -0.732480600637E+02    0.18031E+01   -0.12004E+00 10336   0.622E+00    0.511E+00
DAV:   7    -0.726394102713E+02    0.60865E+00   -0.13658E+00 10720   0.682E+00    0.694E-01
DAV:   8    -0.726467658827E+02   -0.73556E-02   -0.28662E-02 11552   0.987E-01    0.780E-02
DAV:   9    -0.726469876179E+02   -0.22174E-03   -0.43767E-04 10992   0.141E-01    0.291E-02
DAV:  10    -0.726470445881E+02   -0.56970E-04   -0.47276E-05 11336   0.517E-02    0.271E-03
DAV:  11    -0.726470454793E+02   -0.89123E-06   -0.10848E-06  8576   0.750E-03
   1 F= -.72647045E+02 E0= -.72647045E+02  d E =0.000000E+00
