 vasp.5.4.4.18Apr17-6-g9f103f2a35 (build Mar 12 2022 03:36:41) complex          
  
 executed on IFC19.0.3.199_CrayMP date 2022.12.01  11:07:21
 running on   16 total cores
 distrk:  each k-point on   16 cores,    1 groups
 distr:  one band on NCORES_PER_BAND=   4 cores,    4 groups


--------------------------------------------------------------------------------------------------------


 INCAR:
 POTCAR:   PAW_PBE C 08Apr2002                    
 POTCAR:   PAW_PBE C 08Apr2002                    
   VRHFIN =C: s2p2                                                              
   LEXCH  = PE                                                                  
   EATOM  =   147.1560 eV,   10.8157 Ry                                         
                                                                                
   TITEL  = PAW_PBE C 08Apr2002                                                 
   LULTRA =        F    use ultrasoft PP ?                                      
   IUNSCR =        0    unscreen: 0-lin 1-nonlin 2-no                           
   RPACOR =     .000    partial core radius                                     
   POMASS =   12.011; ZVAL   =    4.000    mass and valenz                      
   RCORE  =    1.500    outmost cutoff radius                                   
   RWIGS  =    1.630; RWIGS  =     .863    wigner-seitz radius (au A)           
   ENMAX  =  400.000; ENMIN  =  300.000 eV                                      
   ICORE  =        2    local potential                                         
   LCOR   =        T    correct aug charges                                     
   LPAW   =        T    paw PP                                                  
   EAUG   =  644.873                                                            
   DEXC   =     .000                                                            
   RMAX   =    2.266    core radius for proj-oper                               
   RAUG   =    1.300    factor for augmentation sphere                          
   RDEP   =    1.501    radius for radial grids                                 
   RDEPT  =    1.300    core radius for aug-charge                              
   QCUT   =   -5.516; QGAM   =   11.032    optimization parameters              
                                                                                
   Description                                                                  
     l     E      TYP  RCUT    TYP  RCUT                                        
     0   .000     23  1.200                                                     
     0   .000     23  1.200                                                     
     1   .000     23  1.500                                                     
     1  2.500     23  1.500                                                     
     2   .000      7  1.500                                                     
  local pseudopotential read in
  atomic valenz-charges read in
  non local Contribution for L=           0  read in
    real space projection operators read in
  non local Contribution for L=           0  read in
    real space projection operators read in
  non local Contribution for L=           1  read in
    real space projection operators read in
  non local Contribution for L=           1  read in
    real space projection operators read in
    PAW grid and wavefunctions read in
 
   number of l-projection  operators is LMAX  =           4
   number of lm-projection operators is LMMAX =           8
 
 PAW_PBE C 08Apr2002                    :
 energy of atom  1       EATOM= -147.1560
 kinetic energy error for atom=    0.0288 (will be added to EATOM!!)
 
 
 POSCAR: C8                                      
  positions in direct lattice
  No initial velocities read in
 exchange correlation table for  LEXCH =        8
   RHO(1)=    0.500       N(1)  =     2000
   RHO(2)=  100.500       N(2)  =     4000
 


--------------------------------------------------------------------------------------------------------


 ion  position               nearest neighbor table
   1  0.250  0.750  0.250-   6 1.54   8 1.54   2 1.54   4 1.59
   2  0.000  0.000  0.500-   5 1.54   7 1.54   1 1.54   3 1.59
   3  0.250  0.250  0.750-   6 1.54   8 1.54   4 1.54   2 1.59
   4  0.000  0.500  0.000-   5 1.54   7 1.54   3 1.54   1 1.59
   5  0.750  0.750  0.750-   2 1.54   4 1.54   6 1.54   8 1.59
   6  0.500  0.000  0.000-   1 1.54   3 1.54   5 1.54   7 1.59
   7  0.750  0.250  0.250-   2 1.54   4 1.54   8 1.54   6 1.59
   8  0.500  0.500  0.500-   1 1.54   3 1.54   7 1.54   5 1.59
 
  LATTYP: Found a trigonal (rhomboedric) cell.
 ALAT       =     3.5899991676
 COS(alpha) =     0.0199999451
  
  Lattice vectors:
  
 A1 = (   3.5899993590,   0.0000000000,   0.0000000000)
 A2 = (   0.0717997863,   3.5892810999,   0.0000000000)
 A3 = (   0.0717997863,   0.0703783365,   3.5885909685)


Analysis of symmetry for initial positions (statically):
=====================================================================
 Subroutine PRICEL returns following result:
 
  LATTYP: Found a trigonal (rhomboedric) cell.
 ALAT       =     2.5637722777
 COS(alpha) =     0.5196078137
  
  Lattice vectors:
  
 A1 = (  -0.0717997863,  -1.8298297182,  -1.7942954842)
 A2 = (  -1.8308995726,  -1.7946405500,   0.0000000000)
 A3 = (  -1.8308995726,  -0.0351891683,  -1.7942954842)
 
   4 primitive cells build up your supercell.
 

 Routine SETGRP: Setting up the symmetry group for a 
 trigonal (rhombohedral) supercell.


 Subroutine GETGRP returns: Found 12 space group operations
 (whereof  6 operations were pure point group operations)
 out of a pool of 12 trial point group operations.


The static configuration has the point symmetry C_3v.
 The point group associated with its full space group is D_3d.


Analysis of symmetry for dynamics (positions and initial velocities):
=====================================================================
 Subroutine PRICEL returns following result:
 
  LATTYP: Found a trigonal (rhomboedric) cell.
 ALAT       =     2.5637722777
 COS(alpha) =     0.5196078137
  
  Lattice vectors:
  
 A1 = (  -0.0717997863,  -1.8298297182,  -1.7942954842)
 A2 = (  -1.8308995726,  -1.7946405500,   0.0000000000)
 A3 = (  -1.8308995726,  -0.0351891683,  -1.7942954842)
 
   4 primitive cells build up your supercell.
 

 Routine SETGRP: Setting up the symmetry group for a 
 trigonal (rhombohedral) supercell.


 Subroutine GETGRP returns: Found 12 space group operations
 (whereof  6 operations were pure point group operations)
 out of a pool of 12 trial point group operations.


The dynamic configuration has the point symmetry C_3v.
 The point group associated with its full space group is D_3d.


 Subroutine INISYM returns: Found 12 space group operations
 (whereof  6 operations are pure point group operations),
 and found     4 'primitive' translations

 
 
 KPOINTS: kpt_density=1000                        

Automatic generation of k-mesh.
Space group operators:
 irot       det(A)        alpha          n_x          n_y          n_z        tau_x        tau_y        tau_z
    1     1.000000     0.000000     1.000000     0.000000     0.000000     0.000000     0.000000     0.000000
    2    -1.000000   180.000000     0.000000    -0.700140     0.714006     0.000000     0.000000     0.000000
    3     1.000000   120.000000    -0.588784    -0.577124    -0.565916     0.000000     0.000000     0.000000
    4    -1.000000   180.000000    -0.700000     0.714143    -0.000000     0.000000     0.000000     0.000000
    5     1.000000   120.000000     0.588784     0.577124     0.565916     0.000000     0.000000     0.000000
    6    -1.000000   180.000000    -0.700000     0.014003     0.714006     0.000000     0.000000     0.000000
    7    -1.000000     0.000000     1.000000     0.000000     0.000000    -0.750000    -0.750000    -0.750000
    8     1.000000   180.000000     0.000000    -0.700140     0.714006    -0.750000    -0.750000    -0.750000
    9    -1.000000   120.000000    -0.588784    -0.577124    -0.565916    -0.750000    -0.750000    -0.750000
   10     1.000000   180.000000    -0.700000     0.714143    -0.000000    -0.750000    -0.750000    -0.750000
   11    -1.000000   120.000000     0.588784     0.577124     0.565916    -0.750000    -0.750000    -0.750000
   12     1.000000   180.000000    -0.700000     0.014003     0.714006    -0.750000    -0.750000    -0.750000
 
 Subroutine IBZKPT returns following result:
 ===========================================
 
 Found    189 irreducible k-points:
 
 Following reciprocal coordinates:
            Coordinates               Weight
  0.000000  0.000000  0.000000      1.000000
  0.083333 -0.000000 -0.000000      6.000000
  0.166667 -0.000000 -0.000000      6.000000
  0.250000 -0.000000  0.000000      6.000000
  0.333333 -0.000000  0.000000      6.000000
  0.416667 -0.000000  0.000000      6.000000
  0.500000 -0.000000  0.000000      3.000000
  0.083333  0.083333  0.000000      6.000000
  0.166667  0.083333  0.000000     12.000000
  0.250000  0.083333  0.000000     12.000000
  0.333333  0.083333  0.000000     12.000000
  0.416667  0.083333  0.000000     12.000000
  0.500000  0.083333  0.000000     12.000000
 -0.416667  0.083333 -0.000000     12.000000
 -0.333333  0.083333 -0.000000     12.000000
 -0.250000  0.083333 -0.000000     12.000000
 -0.166667  0.083333  0.000000     12.000000
 -0.083333  0.083333  0.000000      6.000000
  0.166667  0.166667  0.000000      6.000000
  0.250000  0.166667  0.000000     12.000000
  0.333333  0.166667  0.000000     12.000000
  0.416667  0.166667  0.000000     12.000000
  0.500000  0.166667  0.000000     12.000000
 -0.416667  0.166667  0.000000     12.000000
 -0.333333  0.166667  0.000000     12.000000
 -0.250000  0.166667  0.000000     12.000000
 -0.166667  0.166667 -0.000000      6.000000
  0.250000  0.250000  0.000000      6.000000
  0.333333  0.250000 -0.000000     12.000000
  0.416667  0.250000  0.000000     12.000000
  0.500000  0.250000  0.000000     12.000000
 -0.416667  0.250000 -0.000000     12.000000
 -0.333333  0.250000  0.000000     12.000000
 -0.250000  0.250000  0.000000      6.000000
  0.333333  0.333333  0.000000      6.000000
  0.416667  0.333333  0.000000     12.000000
  0.500000  0.333333  0.000000     12.000000
 -0.416667  0.333333  0.000000     12.000000
 -0.333333  0.333333  0.000000      6.000000
  0.416667  0.416667  0.000000      6.000000
  0.500000  0.416667  0.000000     12.000000
 -0.416667  0.416667 -0.000000      6.000000
  0.500000  0.500000  0.000000      3.000000
  0.083333  0.083333  0.083333      2.000000
  0.166667  0.083333  0.083333      6.000000
  0.250000  0.083333  0.083333      6.000000
  0.333333  0.083333  0.083333      6.000000
  0.416667  0.083333  0.083333      6.000000
  0.500000  0.083333  0.083333      6.000000
 -0.416667  0.083333  0.083333      6.000000
 -0.333333  0.083333  0.083333      6.000000
 -0.250000  0.083333  0.083333      6.000000
 -0.166667  0.083333  0.083333      6.000000
 -0.083333  0.083333  0.083333      6.000000
  0.166667  0.166667  0.083333      6.000000
  0.250000  0.166667  0.083333     12.000000
  0.333333  0.166667  0.083333     12.000000
  0.416667  0.166667  0.083333     12.000000
  0.500000  0.166667  0.083333     12.000000
 -0.416667  0.166667  0.083333     12.000000
 -0.333333  0.166667  0.083333     12.000000
 -0.250000  0.166667  0.083333     12.000000
 -0.166667  0.166667  0.083333     12.000000
 -0.083333  0.166667  0.083333     12.000000
  0.250000  0.250000  0.083333      6.000000
  0.333333  0.250000  0.083333     12.000000
  0.416667  0.250000  0.083333     12.000000
  0.500000  0.250000  0.083333     12.000000
 -0.416667  0.250000  0.083333     12.000000
 -0.333333  0.250000  0.083333     12.000000
 -0.250000  0.250000  0.083333     12.000000
 -0.166667  0.250000  0.083333     12.000000
 -0.083333  0.250000  0.083333     12.000000
  0.333333  0.333333  0.083333      6.000000
  0.416667  0.333333  0.083333     12.000000
  0.500000  0.333333  0.083333     12.000000
 -0.416667  0.333333  0.083333     12.000000
 -0.333333  0.333333  0.083333     12.000000
 -0.250000  0.333333  0.083333     12.000000
 -0.166667  0.333333  0.083333     12.000000
 -0.083333  0.333333  0.083333     12.000000
  0.416667  0.416667  0.083333      6.000000
  0.500000  0.416667  0.083333     12.000000
 -0.416667  0.416667  0.083333     12.000000
 -0.333333  0.416667  0.083333     12.000000
 -0.250000  0.416667  0.083333     12.000000
 -0.166667  0.416667  0.083333     12.000000
 -0.083333  0.416667  0.083333     12.000000
  0.500000  0.500000  0.083333      6.000000
 -0.416667  0.500000  0.083333     12.000000
 -0.333333  0.500000  0.083333     12.000000
 -0.250000  0.500000  0.083333     12.000000
 -0.166667  0.500000  0.083333     12.000000
 -0.083333  0.500000  0.083333      6.000000
 -0.416667 -0.416667  0.083333      6.000000
 -0.333333 -0.416667  0.083333     12.000000
 -0.250000 -0.416667  0.083333     12.000000
 -0.166667 -0.416667  0.083333     12.000000
 -0.333333 -0.333333  0.083333      6.000000
 -0.250000 -0.333333  0.083333     12.000000
 -0.166667 -0.333333  0.083333     12.000000
 -0.250000 -0.250000  0.083333      6.000000
 -0.166667 -0.250000  0.083333     12.000000
 -0.166667 -0.166667  0.083333      6.000000
  0.166667  0.166667  0.166667      2.000000
  0.250000  0.166667  0.166667      6.000000
  0.333333  0.166667  0.166667      6.000000
  0.416667  0.166667  0.166667      6.000000
  0.500000  0.166667  0.166667      6.000000
 -0.416667  0.166667  0.166667      6.000000
 -0.333333  0.166667  0.166667      6.000000
 -0.250000  0.166667  0.166667      6.000000
 -0.166667  0.166667  0.166667      6.000000
  0.250000  0.250000  0.166667      6.000000
  0.333333  0.250000  0.166667     12.000000
  0.416667  0.250000  0.166667     12.000000
  0.500000  0.250000  0.166667     12.000000
 -0.416667  0.250000  0.166667     12.000000
 -0.333333  0.250000  0.166667     12.000000
 -0.250000  0.250000  0.166667     12.000000
 -0.166667  0.250000  0.166667     12.000000
  0.333333  0.333333  0.166667      6.000000
  0.416667  0.333333  0.166667     12.000000
  0.500000  0.333333  0.166667     12.000000
 -0.416667  0.333333  0.166667     12.000000
 -0.333333  0.333333  0.166667     12.000000
 -0.250000  0.333333  0.166667     12.000000
 -0.166667  0.333333  0.166667     12.000000
  0.416667  0.416667  0.166667      6.000000
  0.500000  0.416667  0.166667     12.000000
 -0.416667  0.416667  0.166667     12.000000
 -0.333333  0.416667  0.166667     12.000000
 -0.250000  0.416667  0.166667     12.000000
 -0.166667  0.416667  0.166667     12.000000
  0.500000  0.500000  0.166667      6.000000
 -0.416667  0.500000  0.166667     12.000000
 -0.333333  0.500000  0.166667     12.000000
 -0.250000  0.500000  0.166667     12.000000
 -0.166667  0.500000  0.166667      6.000000
 -0.416667 -0.416667  0.166667      6.000000
 -0.333333 -0.416667  0.166667     12.000000
 -0.250000 -0.416667  0.166667     12.000000
 -0.333333 -0.333333  0.166667      6.000000
 -0.250000 -0.333333  0.166667     12.000000
 -0.250000 -0.250000  0.166667      6.000000
  0.250000  0.250000  0.250000      2.000000
  0.333333  0.250000  0.250000      6.000000
  0.416667  0.250000  0.250000      6.000000
  0.500000  0.250000  0.250000      6.000000
 -0.416667  0.250000  0.250000      6.000000
 -0.333333  0.250000  0.250000      6.000000
 -0.250000  0.250000  0.250000      6.000000
  0.333333  0.333333  0.250000      6.000000
  0.416667  0.333333  0.250000     12.000000
  0.500000  0.333333  0.250000     12.000000
 -0.416667  0.333333  0.250000     12.000000
 -0.333333  0.333333  0.250000     12.000000
 -0.250000  0.333333  0.250000     12.000000
  0.416667  0.416667  0.250000      6.000000
  0.500000  0.416667  0.250000     12.000000
 -0.416667  0.416667  0.250000     12.000000
 -0.333333  0.416667  0.250000     12.000000
 -0.250000  0.416667  0.250000     12.000000
  0.500000  0.500000  0.250000      6.000000
 -0.416667  0.500000  0.250000     12.000000
 -0.333333  0.500000  0.250000     12.000000
 -0.250000  0.500000  0.250000      6.000000
 -0.416667 -0.416667  0.250000      6.000000
 -0.333333 -0.416667  0.250000     12.000000
 -0.333333 -0.333333  0.250000      6.000000
  0.333333  0.333333  0.333333      2.000000
  0.416667  0.333333  0.333333      6.000000
  0.500000  0.333333  0.333333      6.000000
 -0.416667  0.333333  0.333333      6.000000
 -0.333333  0.333333  0.333333      6.000000
  0.416667  0.416667  0.333333      6.000000
  0.500000  0.416667  0.333333     12.000000
 -0.416667  0.416667  0.333333     12.000000
 -0.333333  0.416667  0.333333     12.000000
  0.500000  0.500000  0.333333      6.000000
 -0.416667  0.500000  0.333333     12.000000
 -0.333333  0.500000  0.333333      6.000000
 -0.416667 -0.416667  0.333333      6.000000
  0.416667  0.416667  0.416667      2.000000
  0.500000  0.416667  0.416667      6.000000
 -0.416667  0.416667  0.416667      6.000000
  0.500000  0.500000  0.416667      6.000000
 -0.416667  0.500000  0.416667      6.000000
  0.500000  0.500000  0.500000      1.000000
 
 Following cartesian coordinates:
            Coordinates               Weight
  0.000000  0.000000  0.000000      1.000000
  0.023318 -0.000466 -0.000457      6.000000
  0.046637 -0.000933 -0.000915      6.000000
  0.069955 -0.001399 -0.001372      6.000000
  0.093274 -0.001866 -0.001830      6.000000
  0.116592 -0.002332 -0.002287      6.000000
  0.139911 -0.002799 -0.002744      3.000000
  0.023318  0.022857 -0.000915      6.000000
  0.046637  0.022390 -0.001372     12.000000
  0.069955  0.021924 -0.001830     12.000000
  0.093274  0.021457 -0.002287     12.000000
  0.116592  0.020991 -0.002744     12.000000
  0.139911  0.020524 -0.003202     12.000000
 -0.116592  0.025655  0.001830     12.000000
 -0.093274  0.025189  0.001372     12.000000
 -0.069955  0.024722  0.000915     12.000000
 -0.046637  0.024256  0.000457     12.000000
 -0.023318  0.023790 -0.000000      6.000000
  0.046637  0.045713 -0.001830      6.000000
  0.069955  0.045247 -0.002287     12.000000
  0.093274  0.044780 -0.002744     12.000000
  0.116592  0.044314 -0.003202     12.000000
  0.139911  0.043847 -0.003659     12.000000
 -0.116592  0.048979  0.001372     12.000000
 -0.093274  0.048512  0.000915     12.000000
 -0.069955  0.048046  0.000457     12.000000
 -0.046637  0.047579 -0.000000      6.000000
  0.069955  0.068570 -0.002744      6.000000
  0.093274  0.068103 -0.003202     12.000000
  0.116592  0.067637 -0.003659     12.000000
  0.139911  0.067171 -0.004117     12.000000
 -0.116592  0.072302  0.000915     12.000000
 -0.093274  0.071835  0.000457     12.000000
 -0.069955  0.071369 -0.000000      6.000000
  0.093274  0.091427 -0.003659      6.000000
  0.116592  0.090960 -0.004117     12.000000
  0.139911  0.090494 -0.004574     12.000000
 -0.116592  0.095625  0.000457     12.000000
 -0.093274  0.095158 -0.000000      6.000000
  0.116592  0.114283 -0.004574      6.000000
  0.139911  0.113817 -0.005031     12.000000
 -0.116592  0.118948 -0.000000      6.000000
  0.139911  0.137140 -0.005489      3.000000
  0.023318  0.022857  0.022413      2.000000
  0.046637  0.022390  0.021955      6.000000
  0.069955  0.021924  0.021498      6.000000
  0.093274  0.021457  0.021041      6.000000
  0.116592  0.020991  0.020583      6.000000
  0.139911  0.020524  0.020126      6.000000
 -0.116592  0.025655  0.025157      6.000000
 -0.093274  0.025189  0.024700      6.000000
 -0.069955  0.024722  0.024242      6.000000
 -0.046637  0.024256  0.023785      6.000000
 -0.023318  0.023790  0.023328      6.000000
  0.046637  0.045713  0.021498      6.000000
  0.069955  0.045247  0.021041     12.000000
  0.093274  0.044780  0.020583     12.000000
  0.116592  0.044314  0.020126     12.000000
  0.139911  0.043847  0.019668     12.000000
 -0.116592  0.048979  0.024700     12.000000
 -0.093274  0.048512  0.024242     12.000000
 -0.069955  0.048046  0.023785     12.000000
 -0.046637  0.047579  0.023328     12.000000
 -0.023318  0.047113  0.022870     12.000000
  0.069955  0.068570  0.020583      6.000000
  0.093274  0.068103  0.020126     12.000000
  0.116592  0.067637  0.019668     12.000000
  0.139911  0.067171  0.019211     12.000000
 -0.116592  0.072302  0.024242     12.000000
 -0.093274  0.071835  0.023785     12.000000
 -0.069955  0.071369  0.023328     12.000000
 -0.046637  0.070902  0.022870     12.000000
 -0.023318  0.070436  0.022413     12.000000
  0.093274  0.091427  0.019668      6.000000
  0.116592  0.090960  0.019211     12.000000
  0.139911  0.090494  0.018754     12.000000
 -0.116592  0.095625  0.023785     12.000000
 -0.093274  0.095158  0.023328     12.000000
 -0.069955  0.094692  0.022870     12.000000
 -0.046637  0.094225  0.022413     12.000000
 -0.023318  0.093759  0.021955     12.000000
  0.116592  0.114283  0.018754      6.000000
  0.139911  0.113817  0.018296     12.000000
 -0.116592  0.118948  0.023328     12.000000
 -0.093274  0.118481  0.022870     12.000000
 -0.069955  0.118015  0.022413     12.000000
 -0.046637  0.117548  0.021955     12.000000
 -0.023318  0.117082  0.021498     12.000000
  0.139911  0.137140  0.017839      6.000000
 -0.116592  0.142271  0.022870     12.000000
 -0.093274  0.141804  0.022413     12.000000
 -0.069955  0.141338  0.021955     12.000000
 -0.046637  0.140872  0.021498     12.000000
 -0.023318  0.140405  0.021041      6.000000
 -0.116592 -0.114283  0.027902      6.000000
 -0.093274 -0.114750  0.027444     12.000000
 -0.069955 -0.115216  0.026987     12.000000
 -0.046637 -0.115683  0.026529     12.000000
 -0.093274 -0.091427  0.026987      6.000000
 -0.069955 -0.091893  0.026529     12.000000
 -0.046637 -0.092359  0.026072     12.000000
 -0.069955 -0.068570  0.026072      6.000000
 -0.046637 -0.069036  0.025615     12.000000
 -0.046637 -0.045713  0.025157      6.000000
  0.046637  0.045713  0.044826      2.000000
  0.069955  0.045247  0.044368      6.000000
  0.093274  0.044780  0.043911      6.000000
  0.116592  0.044314  0.043453      6.000000
  0.139911  0.043847  0.042996      6.000000
 -0.116592  0.048979  0.048027      6.000000
 -0.093274  0.048512  0.047570      6.000000
 -0.069955  0.048046  0.047113      6.000000
 -0.046637  0.047579  0.046655      6.000000
  0.069955  0.068570  0.043911      6.000000
  0.093274  0.068103  0.043453     12.000000
  0.116592  0.067637  0.042996     12.000000
  0.139911  0.067171  0.042539     12.000000
 -0.116592  0.072302  0.047570     12.000000
 -0.093274  0.071835  0.047113     12.000000
 -0.069955  0.071369  0.046655     12.000000
 -0.046637  0.070902  0.046198     12.000000
  0.093274  0.091427  0.042996      6.000000
  0.116592  0.090960  0.042539     12.000000
  0.139911  0.090494  0.042081     12.000000
 -0.116592  0.095625  0.047113     12.000000
 -0.093274  0.095158  0.046655     12.000000
 -0.069955  0.094692  0.046198     12.000000
 -0.046637  0.094225  0.045740     12.000000
  0.116592  0.114283  0.042081      6.000000
  0.139911  0.113817  0.041624     12.000000
 -0.116592  0.118948  0.046655     12.000000
 -0.093274  0.118481  0.046198     12.000000
 -0.069955  0.118015  0.045740     12.000000
 -0.046637  0.117548  0.045283     12.000000
  0.139911  0.137140  0.041166      6.000000
 -0.116592  0.142271  0.046198     12.000000
 -0.093274  0.141804  0.045740     12.000000
 -0.069955  0.141338  0.045283     12.000000
 -0.046637  0.140872  0.044826      6.000000
 -0.116592 -0.114283  0.051229      6.000000
 -0.093274 -0.114750  0.050772     12.000000
 -0.069955 -0.115216  0.050314     12.000000
 -0.093274 -0.091427  0.050314      6.000000
 -0.069955 -0.091893  0.049857     12.000000
 -0.069955 -0.068570  0.049400      6.000000
  0.069955  0.068570  0.067238      2.000000
  0.093274  0.068103  0.066781      6.000000
  0.116592  0.067637  0.066324      6.000000
  0.139911  0.067171  0.065866      6.000000
 -0.116592  0.072302  0.070898      6.000000
 -0.093274  0.071835  0.070440      6.000000
 -0.069955  0.071369  0.069983      6.000000
  0.093274  0.091427  0.066324      6.000000
  0.116592  0.090960  0.065866     12.000000
  0.139911  0.090494  0.065409     12.000000
 -0.116592  0.095625  0.070440     12.000000
 -0.093274  0.095158  0.069983     12.000000
 -0.069955  0.094692  0.069525     12.000000
  0.116592  0.114283  0.065409      6.000000
  0.139911  0.113817  0.064951     12.000000
 -0.116592  0.118948  0.069983     12.000000
 -0.093274  0.118481  0.069525     12.000000
 -0.069955  0.118015  0.069068     12.000000
  0.139911  0.137140  0.064494      6.000000
 -0.116592  0.142271  0.069525     12.000000
 -0.093274  0.141804  0.069068     12.000000
 -0.069955  0.141338  0.068611      6.000000
 -0.116592 -0.114283  0.074557      6.000000
 -0.093274 -0.114750  0.074099     12.000000
 -0.093274 -0.091427  0.073642      6.000000
  0.093274  0.091427  0.089651      2.000000
  0.116592  0.090960  0.089194      6.000000
  0.139911  0.090494  0.088736      6.000000
 -0.116592  0.095625  0.093768      6.000000
 -0.093274  0.095158  0.093310      6.000000
  0.116592  0.114283  0.088736      6.000000
  0.139911  0.113817  0.088279     12.000000
 -0.116592  0.118948  0.093310     12.000000
 -0.093274  0.118481  0.092853     12.000000
  0.139911  0.137140  0.087822      6.000000
 -0.116592  0.142271  0.092853     12.000000
 -0.093274  0.141804  0.092396      6.000000
 -0.116592 -0.114283  0.097884      6.000000
  0.116592  0.114283  0.112064      2.000000
  0.139911  0.113817  0.111607      6.000000
 -0.116592  0.118948  0.116638      6.000000
  0.139911  0.137140  0.111149      6.000000
 -0.116592  0.142271  0.116181      6.000000
  0.139911  0.137140  0.134477      1.000000
 
 TETIRR: Found    864 inequivalent tetrahedra from    10368


--------------------------------------------------------------------------------------------------------




 Dimension of arrays:
   k-points           NKPTS =    189   k-points in BZ     NKDIM =    189   number of bands    NBANDS=     24
   number of dos      NEDOS =    301   number of ions     NIONS =      8
   non local maximal  LDIM  =      4   non local SUM 2l+1 LMDIM =      8
   total plane-waves  NPLWV =  13824
   max r-space proj   IRMAX =      1   max aug-charges    IRDMAX=   3727
   dimension x,y,z NGX =    24 NGY =   24 NGZ =   24
   dimension x,y,z NGXF=    48 NGYF=   48 NGZF=   48
   support grid    NGXF=    48 NGYF=   48 NGZF=   48
   ions per type =               8
   NGX,Y,Z   is equivalent  to a cutoff of  11.11, 11.11, 11.11 a.u.
   NGXF,Y,Z  is equivalent  to a cutoff of  22.23, 22.23, 22.23 a.u.

 SYSTEM =  unknown system                          
 POSCAR =  C8                                      

 Startparameter for this run:
   NWRITE =      2    write-flag & timer
   PREC   = accura    normal or accurate (medium, high low for compatibility)
   ISTART =      0    job   : 0-new  1-cont  2-samecut
   ICHARG =      2    charge: 1-file 2-atom 10-const
   ISPIN  =      1    spin polarized calculation?
   LNONCOLLINEAR =      F non collinear calculations
   LSORBIT =      F    spin-orbit coupling
   INIWAV =      1    electr: 0-lowe 1-rand  2-diag
   LASPH  =      F    aspherical Exc in radial PAW
   METAGGA=      F    non-selfconsistent MetaGGA calc.

 Electronic Relaxation 1
   ENCUT  =  400.0 eV  29.40 Ry    5.42 a.u.   5.85  5.85  5.85*2*pi/ulx,y,z
   ENINI  =  400.0     initial cutoff
   ENAUG  =  644.9 eV  augmentation charge cutoff
   NELM   =     60;   NELMIN=  2; NELMDL= -5     # of ELM steps 
   EDIFF  = 0.1E-05   stopping-criterion for ELM
   LREAL  =      F    real-space projection
   NLSPLINE    = F    spline interpolate recip. space projectors
   LCOMPAT=      F    compatible to vasp.4.4
   GGA_COMPAT  = T    GGA compatible to vasp.4.4-vasp.4.6
   LMAXPAW     = -100 max onsite density
   LMAXMIX     =    2 max onsite mixed and CHGCAR
   VOSKOWN=      0    Vosko Wilk Nusair interpolation
   ROPT   =    0.00000
 Ionic relaxation
   EDIFFG = 0.1E-04   stopping-criterion for IOM
   NSW    =      0    number of steps for IOM
   NBLOCK =      1;   KBLOCK =      1    inner block; outer block 
   IBRION =     -1    ionic relax: 0-MD 1-quasi-New 2-CG
   NFREE  =      0    steps in history (QN), initial steepest desc. (CG)
   ISIF   =      2    stress and relaxation
   IWAVPR =     10    prediction:  0-non 1-charg 2-wave 3-comb
   ISYM   =      2    0-nonsym 1-usesym 2-fastsym
   LCORR  =      T    Harris-Foulkes like correction to forces

   POTIM  = 0.0200    time-step for ionic-motion
   TEIN   =    0.0    initial temperature
   TEBEG  =    0.0;   TEEND  =   0.0 temperature during run
   SMASS  =  -3.00    Nose mass-parameter (am)
   estimated Nose-frequenzy (Omega)   =  0.10E-29 period in steps =****** mass=  -0.295E-27a.u.
   SCALEE = 1.0000    scale energy and forces
   NPACO  =    256;   APACO  = 16.0  distance and # of slots for P.C.
   PSTRESS=    0.0 pullay stress

  Mass of Ions in am
   POMASS =  12.01
  Ionic Valenz
   ZVAL   =   4.00
  Atomic Wigner-Seitz radii
   RWIGS  =  -1.00
  virtual crystal weights 
   VCA    =   1.00
   NELECT =      32.0000    total number of electrons
   NUPDOWN=      -1.0000    fix difference up-down

 DOS related values:
   EMIN   =  10.00;   EMAX   =-10.00  energy-range for DOS
   EFERMI =   0.00
   ISMEAR =    -5;   SIGMA  =   0.06  broadening in eV -4-tet -1-fermi 0-gaus

 Electronic relaxation 2 (details)
   IALGO  =     38    algorithm
   LDIAG  =      T    sub-space diagonalisation (order eigenvalues)
   LSUBROT=      F    optimize rotation matrix (better conditioning)
   TURBO    =      0    0=normal 1=particle mesh
   IRESTART =      0    0=no restart 2=restart with 2 vectors
   NREBOOT  =      0    no. of reboots
   NMIN     =      0    reboot dimension
   EREF     =   0.00    reference energy to select bands
   IMIX   =      4    mixing-type and parameters
     AMIX     =   0.40;   BMIX     =  1.00
     AMIX_MAG =   1.60;   BMIX_MAG =  1.00
     AMIN     =   0.10
     WC   =   100.;   INIMIX=   1;  MIXPRE=   1;  MAXMIX= -45

 Intra band minimization:
   WEIMIN = 0.0000     energy-eigenvalue tresh-hold
   EBREAK =  0.10E-07  absolut break condition
   DEPER  =   0.30     relativ break condition  

   TIME   =   0.40     timestep for ELM

  volume/ion in A,a.u.               =       5.78        39.01
  Fermi-wavevector in a.u.,A,eV,Ry     =   1.448048  2.736414 28.529272  2.096842
  Thomas-Fermi vector in A             =   2.565933
 
 Write flags
   LWAVE        =      F    write WAVECAR
   LDOWNSAMPLE  =      F    k-point downsampling of WAVECAR
   LCHARG       =      F    write CHGCAR
   LVTOT        =      F    write LOCPOT, total local potential
   LVHAR        =      F    write LOCPOT, Hartree potential only
   LELF         =      F    write electronic localiz. function (ELF)
   LORBIT       =      0    0 simple, 1 ext, 2 COOP (PROOUT), +10 PAW based schemes


 Dipole corrections
   LMONO  =      F    monopole corrections only (constant potential shift)
   LDIPOL =      F    correct potential (dipole corrections)
   IDIPOL =      0    1-x, 2-y, 3-z, 4-all directions 
   EPSILON=  1.0000000 bulk dielectric constant

 Exchange correlation treatment:
   GGA     =    --    GGA type
   LEXCH   =     8    internal setting for exchange type
   VOSKOWN=      0    Vosko Wilk Nusair interpolation
   LHFCALC =     F    Hartree Fock is set to
   LHFONE  =     F    Hartree Fock one center treatment
   AEXX    =    0.0000 exact exchange contribution

 Linear response parameters
   LEPSILON=     F    determine dielectric tensor
   LRPA    =     F    only Hartree local field effects (RPA)
   LNABLA  =     F    use nabla operator in PAW spheres
   LVEL    =     F    velocity operator in full k-point grid
   LINTERFAST=   F  fast interpolation
   KINTER  =     0    interpolate to denser k-point grid
   CSHIFT  =0.1000    complex shift for real part using Kramers Kronig
   OMEGAMAX=  -1.0    maximum frequency
   DEG_THRESHOLD= 0.2000000E-02 threshold for treating states as degnerate
   RTIME   =   -0.100 relaxation time in fs
  (WPLASMAI=    0.000 imaginary part of plasma frequency in eV, 0.658/RTIME)
   DFIELD  = 0.0000000 0.0000000 0.0000000 field for delta impulse in time
 
 Orbital magnetization related:
   ORBITALMAG=     F  switch on orbital magnetization
   LCHIMAG   =     F  perturbation theory with respect to B field
   DQ        =  0.001000  dq finite difference perturbation B field
   LLRAUG    =     F  two centre corrections for induced B field



--------------------------------------------------------------------------------------------------------


 Static calculation
 charge density and potential will be updated during run
 non-spin polarized calculation
 Variant of blocked Davidson
 Davidson routine will perform the subspace rotation
 perform sub-space diagonalisation
    after iterative eigenvector-optimisation
 modified Broyden-mixing scheme, WC =      100.0
 initial mixing is a Kerker type mixing with AMIX =  0.4000 and BMIX =      1.0000
 Hartree-type preconditioning will be used
 using additional bands            8
 reciprocal scheme for non local part
 calculate Harris-corrections to forces 
   (improved forces if not selfconsistent)
 use gradient corrections 
 use of overlap-Matrix (Vanderbilt PP)
 Fermi weights with tetrahedron method with Bloechl corrections


--------------------------------------------------------------------------------------------------------


  energy-cutoff  :      400.00
  volume of cell :       46.24
      direct lattice vectors                 reciprocal lattice vectors
     3.589999359  0.000000000  0.000000000     0.278551582 -0.005572131 -0.005463924
     0.071799786  3.589281100  0.000000000     0.000000000  0.278607323 -0.005463961
     0.071799786  0.070378337  3.588590968     0.000000000  0.000000000  0.278660903

  length of vectors
     3.589999359  3.589999168  3.589999089     0.278660881  0.278660897  0.278660903


 
 k-points in units of 2pi/SCALE and weight: kpt_density=1000                        
   0.00000000  0.00000000  0.00000000       0.001
   0.02331844 -0.00046646 -0.00045740       0.003
   0.04663688 -0.00093292 -0.00091480       0.003
   0.06995531 -0.00139938 -0.00137221       0.003
   0.09327375 -0.00186584 -0.00182961       0.003
   0.11659219 -0.00233230 -0.00228701       0.003
   0.13991063 -0.00279876 -0.00274441       0.002
   0.02331844  0.02285664 -0.00091481       0.003
   0.04663688  0.02239018 -0.00137221       0.007
   0.06995531  0.02192372 -0.00182961       0.007
   0.09327375  0.02145726 -0.00228702       0.007
   0.11659219  0.02099080 -0.00274442       0.007
   0.13991063  0.02052434 -0.00320182       0.007
  -0.11659219  0.02565541  0.00182961       0.007
  -0.09327375  0.02518895  0.00137220       0.007
  -0.06995531  0.02472249  0.00091480       0.007
  -0.04663688  0.02425603  0.00045740       0.007
  -0.02331844  0.02378956 -0.00000000       0.003
   0.04663688  0.04571329 -0.00182962       0.003
   0.06995531  0.04524683 -0.00228702       0.007
   0.09327375  0.04478036 -0.00274442       0.007
   0.11659219  0.04431390 -0.00320182       0.007
   0.13991063  0.04384744 -0.00365923       0.007
  -0.11659219  0.04897851  0.00137220       0.007
  -0.09327375  0.04851205  0.00091480       0.007
  -0.06995531  0.04804559  0.00045740       0.007
  -0.04663688  0.04757913 -0.00000001       0.003
   0.06995531  0.06856993 -0.00274442       0.003
   0.09327375  0.06810347 -0.00320183       0.007
   0.11659219  0.06763701 -0.00365923       0.007
   0.13991063  0.06717055 -0.00411663       0.007
  -0.11659219  0.07230162  0.00091480       0.007
  -0.09327375  0.07183515  0.00045739       0.007
  -0.06995531  0.07136869 -0.00000001       0.003
   0.09327375  0.09142657 -0.00365923       0.003
   0.11659219  0.09096011 -0.00411663       0.007
   0.13991063  0.09049365 -0.00457404       0.007
  -0.11659219  0.09562472  0.00045739       0.007
  -0.09327375  0.09515826 -0.00000001       0.003
   0.11659219  0.11428322 -0.00457404       0.003
   0.13991063  0.11381675 -0.00503144       0.007
  -0.11659219  0.11894782 -0.00000002       0.003
   0.13991063  0.13713986 -0.00548885       0.002
   0.02331844  0.02285664  0.02241278       0.001
   0.04663688  0.02239018  0.02195538       0.003
   0.06995531  0.02192372  0.02149798       0.003
   0.09327375  0.02145726  0.02104057       0.003
   0.11659219  0.02099080  0.02058317       0.003
   0.13991063  0.02052434  0.02012577       0.003
  -0.11659219  0.02565541  0.02515720       0.003
  -0.09327375  0.02518895  0.02469979       0.003
  -0.06995531  0.02472249  0.02424239       0.003
  -0.04663688  0.02425603  0.02378499       0.003
  -0.02331844  0.02378956  0.02332759       0.003
   0.04663688  0.04571329  0.02149797       0.003
   0.06995531  0.04524683  0.02104057       0.007
   0.09327375  0.04478036  0.02058317       0.007
   0.11659219  0.04431390  0.02012577       0.007
   0.13991063  0.04384744  0.01966836       0.007
  -0.11659219  0.04897851  0.02469979       0.007
  -0.09327375  0.04851205  0.02424239       0.007
  -0.06995531  0.04804559  0.02378499       0.007
  -0.04663688  0.04757913  0.02332758       0.007
  -0.02331844  0.04711267  0.02287018       0.007
   0.06995531  0.06856993  0.02058317       0.003
   0.09327375  0.06810347  0.02012576       0.007
   0.11659219  0.06763701  0.01966836       0.007
   0.13991063  0.06717055  0.01921096       0.007
  -0.11659219  0.07230162  0.02424238       0.007
  -0.09327375  0.07183515  0.02378498       0.007
  -0.06995531  0.07136869  0.02332758       0.007
  -0.04663688  0.07090223  0.02287018       0.007
  -0.02331844  0.07043577  0.02241278       0.007
   0.09327375  0.09142657  0.01966836       0.003
   0.11659219  0.09096011  0.01921096       0.007
   0.13991063  0.09049365  0.01875355       0.007
  -0.11659219  0.09562472  0.02378498       0.007
  -0.09327375  0.09515826  0.02332758       0.007
  -0.06995531  0.09469180  0.02287017       0.007
  -0.04663688  0.09422534  0.02241277       0.007
  -0.02331844  0.09375888  0.02195537       0.007
   0.11659219  0.11428322  0.01875355       0.003
   0.13991063  0.11381675  0.01829615       0.007
  -0.11659219  0.11894782  0.02332757       0.007
  -0.09327375  0.11848136  0.02287017       0.007
  -0.06995531  0.11801490  0.02241277       0.007
  -0.04663688  0.11754844  0.02195537       0.007
  -0.02331844  0.11708198  0.02149796       0.007
   0.13991063  0.13713986  0.01783874       0.003
  -0.11659219  0.14227093  0.02287017       0.007
  -0.09327375  0.14180447  0.02241277       0.007
  -0.06995531  0.14133801  0.02195536       0.007
  -0.04663688  0.14087154  0.02149796       0.007
  -0.02331844  0.14040508  0.02104056       0.003
  -0.11659219 -0.11428322  0.02790163       0.003
  -0.09327375 -0.11474968  0.02744423       0.007
  -0.06995531 -0.11521614  0.02698682       0.007
  -0.04663688 -0.11568260  0.02652942       0.007
  -0.09327375 -0.09142657  0.02698682       0.003
  -0.06995531 -0.09189303  0.02652942       0.007
  -0.04663688 -0.09235949  0.02607202       0.007
  -0.06995531 -0.06856993  0.02607201       0.003
  -0.04663688 -0.06903639  0.02561461       0.007
  -0.04663688 -0.04571329  0.02515720       0.003
   0.04663688  0.04571329  0.04482556       0.001
   0.06995531  0.04524683  0.04436816       0.003
   0.09327375  0.04478036  0.04391076       0.003
   0.11659219  0.04431390  0.04345336       0.003
   0.13991063  0.04384744  0.04299595       0.003
  -0.11659219  0.04897851  0.04802738       0.003
  -0.09327375  0.04851205  0.04756998       0.003
  -0.06995531  0.04804559  0.04711257       0.003
  -0.04663688  0.04757913  0.04665517       0.003
   0.06995531  0.06856993  0.04391075       0.003
   0.09327375  0.06810347  0.04345335       0.007
   0.11659219  0.06763701  0.04299595       0.007
   0.13991063  0.06717055  0.04253855       0.007
  -0.11659219  0.07230162  0.04756997       0.007
  -0.09327375  0.07183515  0.04711257       0.007
  -0.06995531  0.07136869  0.04665517       0.007
  -0.04663688  0.07090223  0.04619777       0.007
   0.09327375  0.09142657  0.04299595       0.003
   0.11659219  0.09096011  0.04253854       0.007
   0.13991063  0.09049365  0.04208114       0.007
  -0.11659219  0.09562472  0.04711257       0.007
  -0.09327375  0.09515826  0.04665517       0.007
  -0.06995531  0.09469180  0.04619776       0.007
  -0.04663688  0.09422534  0.04574036       0.007
   0.11659219  0.11428322  0.04208114       0.003
   0.13991063  0.11381675  0.04162374       0.007
  -0.11659219  0.11894782  0.04665516       0.007
  -0.09327375  0.11848136  0.04619776       0.007
  -0.06995531  0.11801490  0.04574036       0.007
  -0.04663688  0.11754844  0.04528296       0.007
   0.13991063  0.13713986  0.04116633       0.003
  -0.11659219  0.14227093  0.04619776       0.007
  -0.09327375  0.14180447  0.04574035       0.007
  -0.06995531  0.14133801  0.04528295       0.007
  -0.04663688  0.14087154  0.04482555       0.003
  -0.11659219 -0.11428322  0.05122922       0.003
  -0.09327375 -0.11474968  0.05077182       0.007
  -0.06995531 -0.11521614  0.05031441       0.007
  -0.09327375 -0.09142657  0.05031441       0.003
  -0.06995531 -0.09189303  0.04985701       0.007
  -0.06995531 -0.06856993  0.04939960       0.003
   0.06995531  0.06856993  0.06723834       0.001
   0.09327375  0.06810347  0.06678094       0.003
   0.11659219  0.06763701  0.06632354       0.003
   0.13991063  0.06717055  0.06586614       0.003
  -0.11659219  0.07230162  0.07089756       0.003
  -0.09327375  0.07183515  0.07044016       0.003
  -0.06995531  0.07136869  0.06998276       0.003
   0.09327375  0.09142657  0.06632354       0.003
   0.11659219  0.09096011  0.06586613       0.007
   0.13991063  0.09049365  0.06540873       0.007
  -0.11659219  0.09562472  0.07044016       0.007
  -0.09327375  0.09515826  0.06998276       0.007
  -0.06995531  0.09469180  0.06952535       0.007
   0.11659219  0.11428322  0.06540873       0.003
   0.13991063  0.11381675  0.06495133       0.007
  -0.11659219  0.11894782  0.06998275       0.007
  -0.09327375  0.11848136  0.06952535       0.007
  -0.06995531  0.11801490  0.06906795       0.007
   0.13991063  0.13713986  0.06449392       0.003
  -0.11659219  0.14227093  0.06952535       0.007
  -0.09327375  0.14180447  0.06906794       0.007
  -0.06995531  0.14133801  0.06861054       0.003
  -0.11659219 -0.11428322  0.07455681       0.003
  -0.09327375 -0.11474968  0.07409940       0.007
  -0.09327375 -0.09142657  0.07364200       0.003
   0.09327375  0.09142657  0.08965113       0.001
   0.11659219  0.09096011  0.08919372       0.003
   0.13991063  0.09049365  0.08873632       0.003
  -0.11659219  0.09562472  0.09376775       0.003
  -0.09327375  0.09515826  0.09331034       0.003
   0.11659219  0.11428322  0.08873632       0.003
   0.13991063  0.11381675  0.08827891       0.007
  -0.11659219  0.11894782  0.09331034       0.007
  -0.09327375  0.11848136  0.09285294       0.007
   0.13991063  0.13713986  0.08782151       0.003
  -0.11659219  0.14227093  0.09285294       0.007
  -0.09327375  0.14180447  0.09239553       0.003
  -0.11659219 -0.11428322  0.09788440       0.003
   0.11659219  0.11428322  0.11206391       0.001
   0.13991063  0.11381675  0.11160650       0.003
  -0.11659219  0.11894782  0.11663793       0.003
   0.13991063  0.13713986  0.11114910       0.003
  -0.11659219  0.14227093  0.11618052       0.003
   0.13991063  0.13713986  0.13447669       0.001
 
 k-points in reciprocal lattice and weights: kpt_density=1000                        
   0.00000000  0.00000000  0.00000000       0.001
   0.08333333 -0.00000000 -0.00000000       0.003
   0.16666667 -0.00000000 -0.00000000       0.003
   0.25000000 -0.00000000  0.00000000       0.003
   0.33333333 -0.00000000  0.00000000       0.003
   0.41666667 -0.00000000  0.00000000       0.003
   0.50000000 -0.00000000  0.00000000       0.002
   0.08333333  0.08333333  0.00000000       0.003
   0.16666667  0.08333333  0.00000000       0.007
   0.25000000  0.08333333  0.00000000       0.007
   0.33333333  0.08333333  0.00000000       0.007
   0.41666667  0.08333333  0.00000000       0.007
   0.50000000  0.08333333  0.00000000       0.007
  -0.41666667  0.08333333 -0.00000000       0.007
  -0.33333333  0.08333333 -0.00000000       0.007
  -0.25000000  0.08333333 -0.00000000       0.007
  -0.16666667  0.08333333  0.00000000       0.007
  -0.08333333  0.08333333  0.00000000       0.003
   0.16666667  0.16666667  0.00000000       0.003
   0.25000000  0.16666667  0.00000000       0.007
   0.33333333  0.16666667  0.00000000       0.007
   0.41666667  0.16666667  0.00000000       0.007
   0.50000000  0.16666667  0.00000000       0.007
  -0.41666667  0.16666667  0.00000000       0.007
  -0.33333333  0.16666667  0.00000000       0.007
  -0.25000000  0.16666667  0.00000000       0.007
  -0.16666667  0.16666667 -0.00000000       0.003
   0.25000000  0.25000000  0.00000000       0.003
   0.33333333  0.25000000 -0.00000000       0.007
   0.41666667  0.25000000  0.00000000       0.007
   0.50000000  0.25000000  0.00000000       0.007
  -0.41666667  0.25000000 -0.00000000       0.007
  -0.33333333  0.25000000  0.00000000       0.007
  -0.25000000  0.25000000  0.00000000       0.003
   0.33333333  0.33333333  0.00000000       0.003
   0.41666667  0.33333333  0.00000000       0.007
   0.50000000  0.33333333  0.00000000       0.007
  -0.41666667  0.33333333  0.00000000       0.007
  -0.33333333  0.33333333  0.00000000       0.003
   0.41666667  0.41666667  0.00000000       0.003
   0.50000000  0.41666667  0.00000000       0.007
  -0.41666667  0.41666667 -0.00000000       0.003
   0.50000000  0.50000000  0.00000000       0.002
   0.08333333  0.08333333  0.08333333       0.001
   0.16666667  0.08333333  0.08333333       0.003
   0.25000000  0.08333333  0.08333333       0.003
   0.33333333  0.08333333  0.08333333       0.003
   0.41666667  0.08333333  0.08333333       0.003
   0.50000000  0.08333333  0.08333333       0.003
  -0.41666667  0.08333333  0.08333333       0.003
  -0.33333333  0.08333333  0.08333333       0.003
  -0.25000000  0.08333333  0.08333333       0.003
  -0.16666667  0.08333333  0.08333333       0.003
  -0.08333333  0.08333333  0.08333333       0.003
   0.16666667  0.16666667  0.08333333       0.003
   0.25000000  0.16666667  0.08333333       0.007
   0.33333333  0.16666667  0.08333333       0.007
   0.41666667  0.16666667  0.08333333       0.007
   0.50000000  0.16666667  0.08333333       0.007
  -0.41666667  0.16666667  0.08333333       0.007
  -0.33333333  0.16666667  0.08333333       0.007
  -0.25000000  0.16666667  0.08333333       0.007
  -0.16666667  0.16666667  0.08333333       0.007
  -0.08333333  0.16666667  0.08333333       0.007
   0.25000000  0.25000000  0.08333333       0.003
   0.33333333  0.25000000  0.08333333       0.007
   0.41666667  0.25000000  0.08333333       0.007
   0.50000000  0.25000000  0.08333333       0.007
  -0.41666667  0.25000000  0.08333333       0.007
  -0.33333333  0.25000000  0.08333333       0.007
  -0.25000000  0.25000000  0.08333333       0.007
  -0.16666667  0.25000000  0.08333333       0.007
  -0.08333333  0.25000000  0.08333333       0.007
   0.33333333  0.33333333  0.08333333       0.003
   0.41666667  0.33333333  0.08333333       0.007
   0.50000000  0.33333333  0.08333333       0.007
  -0.41666667  0.33333333  0.08333333       0.007
  -0.33333333  0.33333333  0.08333333       0.007
  -0.25000000  0.33333333  0.08333333       0.007
  -0.16666667  0.33333333  0.08333333       0.007
  -0.08333333  0.33333333  0.08333333       0.007
   0.41666667  0.41666667  0.08333333       0.003
   0.50000000  0.41666667  0.08333333       0.007
  -0.41666667  0.41666667  0.08333333       0.007
  -0.33333333  0.41666667  0.08333333       0.007
  -0.25000000  0.41666667  0.08333333       0.007
  -0.16666667  0.41666667  0.08333333       0.007
  -0.08333333  0.41666667  0.08333333       0.007
   0.50000000  0.50000000  0.08333333       0.003
  -0.41666667  0.50000000  0.08333333       0.007
  -0.33333333  0.50000000  0.08333333       0.007
  -0.25000000  0.50000000  0.08333333       0.007
  -0.16666667  0.50000000  0.08333333       0.007
  -0.08333333  0.50000000  0.08333333       0.003
  -0.41666667 -0.41666667  0.08333333       0.003
  -0.33333333 -0.41666667  0.08333333       0.007
  -0.25000000 -0.41666667  0.08333333       0.007
  -0.16666667 -0.41666667  0.08333333       0.007
  -0.33333333 -0.33333333  0.08333333       0.003
  -0.25000000 -0.33333333  0.08333333       0.007
  -0.16666667 -0.33333333  0.08333333       0.007
  -0.25000000 -0.25000000  0.08333333       0.003
  -0.16666667 -0.25000000  0.08333333       0.007
  -0.16666667 -0.16666667  0.08333333       0.003
   0.16666667  0.16666667  0.16666667       0.001
   0.25000000  0.16666667  0.16666667       0.003
   0.33333333  0.16666667  0.16666667       0.003
   0.41666667  0.16666667  0.16666667       0.003
   0.50000000  0.16666667  0.16666667       0.003
  -0.41666667  0.16666667  0.16666667       0.003
  -0.33333333  0.16666667  0.16666667       0.003
  -0.25000000  0.16666667  0.16666667       0.003
  -0.16666667  0.16666667  0.16666667       0.003
   0.25000000  0.25000000  0.16666667       0.003
   0.33333333  0.25000000  0.16666667       0.007
   0.41666667  0.25000000  0.16666667       0.007
   0.50000000  0.25000000  0.16666667       0.007
  -0.41666667  0.25000000  0.16666667       0.007
  -0.33333333  0.25000000  0.16666667       0.007
  -0.25000000  0.25000000  0.16666667       0.007
  -0.16666667  0.25000000  0.16666667       0.007
   0.33333333  0.33333333  0.16666667       0.003
   0.41666667  0.33333333  0.16666667       0.007
   0.50000000  0.33333333  0.16666667       0.007
  -0.41666667  0.33333333  0.16666667       0.007
  -0.33333333  0.33333333  0.16666667       0.007
  -0.25000000  0.33333333  0.16666667       0.007
  -0.16666667  0.33333333  0.16666667       0.007
   0.41666667  0.41666667  0.16666667       0.003
   0.50000000  0.41666667  0.16666667       0.007
  -0.41666667  0.41666667  0.16666667       0.007
  -0.33333333  0.41666667  0.16666667       0.007
  -0.25000000  0.41666667  0.16666667       0.007
  -0.16666667  0.41666667  0.16666667       0.007
   0.50000000  0.50000000  0.16666667       0.003
  -0.41666667  0.50000000  0.16666667       0.007
  -0.33333333  0.50000000  0.16666667       0.007
  -0.25000000  0.50000000  0.16666667       0.007
  -0.16666667  0.50000000  0.16666667       0.003
  -0.41666667 -0.41666667  0.16666667       0.003
  -0.33333333 -0.41666667  0.16666667       0.007
  -0.25000000 -0.41666667  0.16666667       0.007
  -0.33333333 -0.33333333  0.16666667       0.003
  -0.25000000 -0.33333333  0.16666667       0.007
  -0.25000000 -0.25000000  0.16666667       0.003
   0.25000000  0.25000000  0.25000000       0.001
   0.33333333  0.25000000  0.25000000       0.003
   0.41666667  0.25000000  0.25000000       0.003
   0.50000000  0.25000000  0.25000000       0.003
  -0.41666667  0.25000000  0.25000000       0.003
  -0.33333333  0.25000000  0.25000000       0.003
  -0.25000000  0.25000000  0.25000000       0.003
   0.33333333  0.33333333  0.25000000       0.003
   0.41666667  0.33333333  0.25000000       0.007
   0.50000000  0.33333333  0.25000000       0.007
  -0.41666667  0.33333333  0.25000000       0.007
  -0.33333333  0.33333333  0.25000000       0.007
  -0.25000000  0.33333333  0.25000000       0.007
   0.41666667  0.41666667  0.25000000       0.003
   0.50000000  0.41666667  0.25000000       0.007
  -0.41666667  0.41666667  0.25000000       0.007
  -0.33333333  0.41666667  0.25000000       0.007
  -0.25000000  0.41666667  0.25000000       0.007
   0.50000000  0.50000000  0.25000000       0.003
  -0.41666667  0.50000000  0.25000000       0.007
  -0.33333333  0.50000000  0.25000000       0.007
  -0.25000000  0.50000000  0.25000000       0.003
  -0.41666667 -0.41666667  0.25000000       0.003
  -0.33333333 -0.41666667  0.25000000       0.007
  -0.33333333 -0.33333333  0.25000000       0.003
   0.33333333  0.33333333  0.33333333       0.001
   0.41666667  0.33333333  0.33333333       0.003
   0.50000000  0.33333333  0.33333333       0.003
  -0.41666667  0.33333333  0.33333333       0.003
  -0.33333333  0.33333333  0.33333333       0.003
   0.41666667  0.41666667  0.33333333       0.003
   0.50000000  0.41666667  0.33333333       0.007
  -0.41666667  0.41666667  0.33333333       0.007
  -0.33333333  0.41666667  0.33333333       0.007
   0.50000000  0.50000000  0.33333333       0.003
  -0.41666667  0.50000000  0.33333333       0.007
  -0.33333333  0.50000000  0.33333333       0.003
  -0.41666667 -0.41666667  0.33333333       0.003
   0.41666667  0.41666667  0.41666667       0.001
   0.50000000  0.41666667  0.41666667       0.003
  -0.41666667  0.41666667  0.41666667       0.003
   0.50000000  0.50000000  0.41666667       0.003
  -0.41666667  0.50000000  0.41666667       0.003
   0.50000000  0.50000000  0.50000000       0.001
 
 position of ions in fractional coordinates (direct lattice) 
   0.25000000  0.75000000  0.25000000
   0.00000000  0.00000000  0.50000000
   0.25000000  0.25000000  0.75000000
   0.00000000  0.50000000  0.00000000
   0.75000000  0.75000000  0.75000000
   0.50000000  0.00000000  0.00000000
   0.75000000  0.25000000  0.25000000
   0.50000000  0.50000000  0.50000000
 
 position of ions in cartesian coordinates  (Angst):
   0.96929963  2.70955541  0.89714774
   0.03589989  0.03518917  1.79429548
   0.96929963  0.95010403  2.69144323
   0.03589989  1.79464055  0.00000000
   2.80019920  2.74474458  2.69144323
   1.79499968  0.00000000  0.00000000
   2.72839941  0.91491486  0.89714774
   1.86679947  1.82982972  1.79429548
 


--------------------------------------------------------------------------------------------------------


 k-point  1 :   0.0000 0.0000 0.0000  plane waves:     829
 k-point  2 :   0.0833-0.0000-0.0000  plane waves:     839
 k-point  3 :   0.1667-0.0000-0.0000  plane waves:     835
 k-point  4 :   0.2500-0.0000 0.0000  plane waves:     837
 k-point  5 :   0.3333-0.0000 0.0000  plane waves:     840
 k-point  6 :   0.4167-0.0000 0.0000  plane waves:     837
 k-point  7 :   0.5000-0.0000 0.0000  plane waves:     840
 k-point  8 :   0.0833 0.0833 0.0000  plane waves:     832
 k-point  9 :   0.1667 0.0833 0.0000  plane waves:     830
 k-point 10 :   0.2500 0.0833 0.0000  plane waves:     835
 k-point 11 :   0.3333 0.0833 0.0000  plane waves:     837
 k-point 12 :   0.4167 0.0833 0.0000  plane waves:     837
 k-point 13 :   0.5000 0.0833 0.0000  plane waves:     838
 k-point 14 :  -0.4167 0.0833-0.0000  plane waves:     841
 k-point 15 :  -0.3333 0.0833-0.0000  plane waves:     843
 k-point 16 :  -0.2500 0.0833-0.0000  plane waves:     840
 k-point 17 :  -0.1667 0.0833 0.0000  plane waves:     837
 k-point 18 :  -0.0833 0.0833 0.0000  plane waves:     833
 k-point 19 :   0.1667 0.1667 0.0000  plane waves:     826
 k-point 20 :   0.2500 0.1667 0.0000  plane waves:     831
 k-point 21 :   0.3333 0.1667 0.0000  plane waves:     842
 k-point 22 :   0.4167 0.1667 0.0000  plane waves:     840
 k-point 23 :   0.5000 0.1667 0.0000  plane waves:     834
 k-point 24 :  -0.4167 0.1667 0.0000  plane waves:     844
 k-point 25 :  -0.3333 0.1667 0.0000  plane waves:     843
 k-point 26 :  -0.2500 0.1667 0.0000  plane waves:     841
 k-point 27 :  -0.1667 0.1667-0.0000  plane waves:     842
 k-point 28 :   0.2500 0.2500 0.0000  plane waves:     839
 k-point 29 :   0.3333 0.2500-0.0000  plane waves:     839
 k-point 30 :   0.4167 0.2500 0.0000  plane waves:     843
 k-point 31 :   0.5000 0.2500 0.0000  plane waves:     838
 k-point 32 :  -0.4167 0.2500-0.0000  plane waves:     842
 k-point 33 :  -0.3333 0.2500 0.0000  plane waves:     843
 k-point 34 :  -0.2500 0.2500 0.0000  plane waves:     842
 k-point 35 :   0.3333 0.3333 0.0000  plane waves:     842
 k-point 36 :   0.4167 0.3333 0.0000  plane waves:     838
 k-point 37 :   0.5000 0.3333 0.0000  plane waves:     841
 k-point 38 :  -0.4167 0.3333 0.0000  plane waves:     838
 k-point 39 :  -0.3333 0.3333 0.0000  plane waves:     840
 k-point 40 :   0.4167 0.4167 0.0000  plane waves:     843
 k-point 41 :   0.5000 0.4167 0.0000  plane waves:     840
 k-point 42 :  -0.4167 0.4167-0.0000  plane waves:     842
 k-point 43 :   0.5000 0.5000 0.0000  plane waves:     856
 k-point 44 :   0.0833 0.0833 0.0833  plane waves:     829
 k-point 45 :   0.1667 0.0833 0.0833  plane waves:     824
 k-point 46 :   0.2500 0.0833 0.0833  plane waves:     833
 k-point 47 :   0.3333 0.0833 0.0833  plane waves:     828
 k-point 48 :   0.4167 0.0833 0.0833  plane waves:     833
 k-point 49 :   0.5000 0.0833 0.0833  plane waves:     834
 k-point 50 :  -0.4167 0.0833 0.0833  plane waves:     842
 k-point 51 :  -0.3333 0.0833 0.0833  plane waves:     840
 k-point 52 :  -0.2500 0.0833 0.0833  plane waves:     840
 k-point 53 :  -0.1667 0.0833 0.0833  plane waves:     835
 k-point 54 :  -0.0833 0.0833 0.0833  plane waves:     834
 k-point 55 :   0.1667 0.1667 0.0833  plane waves:     827
 k-point 56 :   0.2500 0.1667 0.0833  plane waves:     832
 k-point 57 :   0.3333 0.1667 0.0833  plane waves:     837
 k-point 58 :   0.4167 0.1667 0.0833  plane waves:     836
 k-point 59 :   0.5000 0.1667 0.0833  plane waves:     840
 k-point 60 :  -0.4167 0.1667 0.0833  plane waves:     842
 k-point 61 :  -0.3333 0.1667 0.0833  plane waves:     843
 k-point 62 :  -0.2500 0.1667 0.0833  plane waves:     844
 k-point 63 :  -0.1667 0.1667 0.0833  plane waves:     838
 k-point 64 :  -0.0833 0.1667 0.0833  plane waves:     837
 k-point 65 :   0.2500 0.2500 0.0833  plane waves:     832
 k-point 66 :   0.3333 0.2500 0.0833  plane waves:     838
 k-point 67 :   0.4167 0.2500 0.0833  plane waves:     839
 k-point 68 :   0.5000 0.2500 0.0833  plane waves:     843
 k-point 69 :  -0.4167 0.2500 0.0833  plane waves:     844
 k-point 70 :  -0.3333 0.2500 0.0833  plane waves:     843
 k-point 71 :  -0.2500 0.2500 0.0833  plane waves:     841
 k-point 72 :  -0.1667 0.2500 0.0833  plane waves:     839
 k-point 73 :  -0.0833 0.2500 0.0833  plane waves:     838
 k-point 74 :   0.3333 0.3333 0.0833  plane waves:     839
 k-point 75 :   0.4167 0.3333 0.0833  plane waves:     841
 k-point 76 :   0.5000 0.3333 0.0833  plane waves:     841
 k-point 77 :  -0.4167 0.3333 0.0833  plane waves:     836
 k-point 78 :  -0.3333 0.3333 0.0833  plane waves:     843
 k-point 79 :  -0.2500 0.3333 0.0833  plane waves:     843
 k-point 80 :  -0.1667 0.3333 0.0833  plane waves:     841
 k-point 81 :  -0.0833 0.3333 0.0833  plane waves:     841
 k-point 82 :   0.4167 0.4167 0.0833  plane waves:     847
 k-point 83 :   0.5000 0.4167 0.0833  plane waves:     843
 k-point 84 :  -0.4167 0.4167 0.0833  plane waves:     837
 k-point 85 :  -0.3333 0.4167 0.0833  plane waves:     844
 k-point 86 :  -0.2500 0.4167 0.0833  plane waves:     840
 k-point 87 :  -0.1667 0.4167 0.0833  plane waves:     838
 k-point 88 :  -0.0833 0.4167 0.0833  plane waves:     841
 k-point 89 :   0.5000 0.5000 0.0833  plane waves:     841
 k-point 90 :  -0.4167 0.5000 0.0833  plane waves:     838
 k-point 91 :  -0.3333 0.5000 0.0833  plane waves:     840
 k-point 92 :  -0.2500 0.5000 0.0833  plane waves:     834
 k-point 93 :  -0.1667 0.5000 0.0833  plane waves:     839
 k-point 94 :  -0.0833 0.5000 0.0833  plane waves:     842
 k-point 95 :  -0.4167-0.4167 0.0833  plane waves:     839
 k-point 96 :  -0.3333-0.4167 0.0833  plane waves:     838
 k-point 97 :  -0.2500-0.4167 0.0833  plane waves:     840
 k-point 98 :  -0.1667-0.4167 0.0833  plane waves:     841
 k-point 99 :  -0.3333-0.3333 0.0833  plane waves:     839
 k-point ** :  -0.2500-0.3333 0.0833  plane waves:     841
 k-point ** :  -0.1667-0.3333 0.0833  plane waves:     839
 k-point ** :  -0.2500-0.2500 0.0833  plane waves:     843
 k-point ** :  -0.1667-0.2500 0.0833  plane waves:     836
 k-point ** :  -0.1667-0.1667 0.0833  plane waves:     839
 k-point ** :   0.1667 0.1667 0.1667  plane waves:     835
 k-point ** :   0.2500 0.1667 0.1667  plane waves:     831
 k-point ** :   0.3333 0.1667 0.1667  plane waves:     830
 k-point ** :   0.4167 0.1667 0.1667  plane waves:     832
 k-point ** :   0.5000 0.1667 0.1667  plane waves:     839
 k-point ** :  -0.4167 0.1667 0.1667  plane waves:     844
 k-point ** :  -0.3333 0.1667 0.1667  plane waves:     849
 k-point ** :  -0.2500 0.1667 0.1667  plane waves:     842
 k-point ** :  -0.1667 0.1667 0.1667  plane waves:     842
 k-point ** :   0.2500 0.2500 0.1667  plane waves:     831
 k-point ** :   0.3333 0.2500 0.1667  plane waves:     834
 k-point ** :   0.4167 0.2500 0.1667  plane waves:     837
 k-point ** :   0.5000 0.2500 0.1667  plane waves:     837
 k-point ** :  -0.4167 0.2500 0.1667  plane waves:     843
 k-point ** :  -0.3333 0.2500 0.1667  plane waves:     846
 k-point ** :  -0.2500 0.2500 0.1667  plane waves:     841
 k-point ** :  -0.1667 0.2500 0.1667  plane waves:     839
 k-point ** :   0.3333 0.3333 0.1667  plane waves:     841
 k-point ** :   0.4167 0.3333 0.1667  plane waves:     839
 k-point ** :   0.5000 0.3333 0.1667  plane waves:     836
 k-point ** :  -0.4167 0.3333 0.1667  plane waves:     833
 k-point ** :  -0.3333 0.3333 0.1667  plane waves:     842
 k-point ** :  -0.2500 0.3333 0.1667  plane waves:     843
 k-point ** :  -0.1667 0.3333 0.1667  plane waves:     841
 k-point ** :   0.4167 0.4167 0.1667  plane waves:     841
 k-point ** :   0.5000 0.4167 0.1667  plane waves:     843
 k-point ** :  -0.4167 0.4167 0.1667  plane waves:     839
 k-point ** :  -0.3333 0.4167 0.1667  plane waves:     838
 k-point ** :  -0.2500 0.4167 0.1667  plane waves:     844
 k-point ** :  -0.1667 0.4167 0.1667  plane waves:     836
 k-point ** :   0.5000 0.5000 0.1667  plane waves:     841
 k-point ** :  -0.4167 0.5000 0.1667  plane waves:     842
 k-point ** :  -0.3333 0.5000 0.1667  plane waves:     839
 k-point ** :  -0.2500 0.5000 0.1667  plane waves:     835
 k-point ** :  -0.1667 0.5000 0.1667  plane waves:     838
 k-point ** :  -0.4167-0.4167 0.1667  plane waves:     839
 k-point ** :  -0.3333-0.4167 0.1667  plane waves:     839
 k-point ** :  -0.2500-0.4167 0.1667  plane waves:     834
 k-point ** :  -0.3333-0.3333 0.1667  plane waves:     846
 k-point ** :  -0.2500-0.3333 0.1667  plane waves:     844
 k-point ** :  -0.2500-0.2500 0.1667  plane waves:     846
 k-point ** :   0.2500 0.2500 0.2500  plane waves:     832
 k-point ** :   0.3333 0.2500 0.2500  plane waves:     842
 k-point ** :   0.4167 0.2500 0.2500  plane waves:     844
 k-point ** :   0.5000 0.2500 0.2500  plane waves:     840
 k-point ** :  -0.4167 0.2500 0.2500  plane waves:     842
 k-point ** :  -0.3333 0.2500 0.2500  plane waves:     842
 k-point ** :  -0.2500 0.2500 0.2500  plane waves:     843
 k-point ** :   0.3333 0.3333 0.2500  plane waves:     840
 k-point ** :   0.4167 0.3333 0.2500  plane waves:     840
 k-point ** :   0.5000 0.3333 0.2500  plane waves:     838
 k-point ** :  -0.4167 0.3333 0.2500  plane waves:     838
 k-point ** :  -0.3333 0.3333 0.2500  plane waves:     840
 k-point ** :  -0.2500 0.3333 0.2500  plane waves:     839
 k-point ** :   0.4167 0.4167 0.2500  plane waves:     841
 k-point ** :   0.5000 0.4167 0.2500  plane waves:     841
 k-point ** :  -0.4167 0.4167 0.2500  plane waves:     845
 k-point ** :  -0.3333 0.4167 0.2500  plane waves:     842
 k-point ** :  -0.2500 0.4167 0.2500  plane waves:     835
 k-point ** :   0.5000 0.5000 0.2500  plane waves:     846
 k-point ** :  -0.4167 0.5000 0.2500  plane waves:     850
 k-point ** :  -0.3333 0.5000 0.2500  plane waves:     844
 k-point ** :  -0.2500 0.5000 0.2500  plane waves:     842
 k-point ** :  -0.4167-0.4167 0.2500  plane waves:     851
 k-point ** :  -0.3333-0.4167 0.2500  plane waves:     844
 k-point ** :  -0.3333-0.3333 0.2500  plane waves:     843
 k-point ** :   0.3333 0.3333 0.3333  plane waves:     835
 k-point ** :   0.4167 0.3333 0.3333  plane waves:     843
 k-point ** :   0.5000 0.3333 0.3333  plane waves:     843
 k-point ** :  -0.4167 0.3333 0.3333  plane waves:     841
 k-point ** :  -0.3333 0.3333 0.3333  plane waves:     842
 k-point ** :   0.4167 0.4167 0.3333  plane waves:     849
 k-point ** :   0.5000 0.4167 0.3333  plane waves:     846
 k-point ** :  -0.4167 0.4167 0.3333  plane waves:     844
 k-point ** :  -0.3333 0.4167 0.3333  plane waves:     846
 k-point ** :   0.5000 0.5000 0.3333  plane waves:     848
 k-point ** :  -0.4167 0.5000 0.3333  plane waves:     850
 k-point ** :  -0.3333 0.5000 0.3333  plane waves:     844
 k-point ** :  -0.4167-0.4167 0.3333  plane waves:     847
 k-point ** :   0.4167 0.4167 0.4167  plane waves:     862
 k-point ** :   0.5000 0.4167 0.4167  plane waves:     857
 k-point ** :  -0.4167 0.4167 0.4167  plane waves:     851
 k-point ** :   0.5000 0.5000 0.4167  plane waves:     859
 k-point ** :  -0.4167 0.5000 0.4167  plane waves:     860
 k-point ** :   0.5000 0.5000 0.5000  plane waves:     858

 maximum and minimum number of plane-waves per node :       223      198

 maximum number of plane-waves:       862
 maximum index in each direction: 
   IXMAX=    6   IYMAX=    6   IZMAX=    5
   IXMIN=   -6   IYMIN=   -6   IZMIN=   -6


 parallel 3D FFT for wavefunctions:
    minimum data exchange during FFTs selected (reduces bandwidth)
 parallel 3D FFT for charge:
    minimum data exchange during FFTs selected (reduces bandwidth)


 total amount of memory used by VASP MPI-rank0    37925. kBytes
=======================================================================

   base      :      30000. kBytes
   nonl-proj :       2738. kBytes
   fftplans  :        346. kBytes
   grid      :        481. kBytes
   one-center:          6. kBytes
   wavefun   :       4354. kBytes
 
     INWAV:  cpu time    0.0004: real time    0.0005
 Broyden mixing: mesh for mixing (old mesh)
   NGX = 11   NGY = 11   NGZ = 11
  (NGX  = 48   NGY  = 48   NGZ  = 48)
  gives a total of   1331 points

 initial charge density was supplied:
 charge density of overlapping atoms calculated
 number of electron      32.0000000 magnetization 
 keeping initial charge density in first step


--------------------------------------------------------------------------------------------------------


 Maximum index for augmentation-charges          277 (set IRDMAX)


--------------------------------------------------------------------------------------------------------


 First call to EWALD:  gamma=   0.494
 Maximum number of real-space cells 3x 3x 3
 Maximum number of reciprocal cells 3x 3x 3

    FEWALD:  cpu time    0.0054: real time    0.0054


--------------------------------------- Iteration      1(   1)  ---------------------------------------


    POTLOK:  cpu time    0.0280: real time    0.0335
    SETDIJ:  cpu time    0.0064: real time    0.0064
     EDDAV:  cpu time    9.2254: real time    9.2370
 BZINTS: Fermi energy: 18.341210; 32.000000 electrons
         Band energy: 117.587120;  BLOECHL correction: -0.143179
       DOS:  cpu time    0.1681: real time    0.1681
    --------------------------------------------
      LOOP:  cpu time    9.4280: real time    9.4451

 eigenvalue-minimisations  :  9072
 total energy-change (2. order) : 0.5701159E+02  (-0.1439037E+04)
 number of electron      32.0000000 magnetization 
 augmentation part       32.0000000 magnetization 

 Free energy of the ion-electron system (eV)
  ---------------------------------------------------
  alpha Z        PSCENC =       112.77324196
  Ewald energy   TEWEN  =     -1382.80791340
  -Hartree energ DENC   =       -72.26749598
  -exchange      EXHF   =         0.00000000
  -V(xc)+E(xc)   XCENC  =       113.91268417
  PAW double counting   =       302.65154477     -311.85538214
  entropy T*S    EENTRO =         0.00000000
  eigenvalues    EBANDS =       117.58712027
  atomic energy  EATOM  =      1177.01779097
  Solvation  Ediel_sol  =         0.00000000
  ---------------------------------------------------
  free energy    TOTEN  =        57.01159063 eV

  energy without entropy =       57.01159063  energy(sigma->0) =       57.01159063


--------------------------------------------------------------------------------------------------------




--------------------------------------- Iteration      1(   2)  ---------------------------------------


     EDDAV:  cpu time   11.6250: real time   11.6259
 BZINTS: Fermi energy:  8.912226; 32.000000 electrons
         Band energy: -10.333288;  BLOECHL correction:  0.000000
       DOS:  cpu time    0.0464: real time    0.0464
    --------------------------------------------
      LOOP:  cpu time   11.6714: real time   11.6723

 eigenvalue-minimisations  : 12432
 total energy-change (2. order) :-0.1279204E+03  (-0.1215880E+03)
 number of electron      32.0000000 magnetization 
 augmentation part       32.0000000 magnetization 

 Free energy of the ion-electron system (eV)
  ---------------------------------------------------
  alpha Z        PSCENC =       112.77324196
  Ewald energy   TEWEN  =     -1382.80791340
  -Hartree energ DENC   =       -72.26749598
  -exchange      EXHF   =         0.00000000
  -V(xc)+E(xc)   XCENC  =       113.91268417
  PAW double counting   =       302.65154477     -311.85538214
  entropy T*S    EENTRO =         0.00000000
  eigenvalues    EBANDS =       -10.33328848
  atomic energy  EATOM  =      1177.01779097
  Solvation  Ediel_sol  =         0.00000000
  ---------------------------------------------------
  free energy    TOTEN  =       -70.90881813 eV

  energy without entropy =      -70.90881813  energy(sigma->0) =      -70.90881813


--------------------------------------------------------------------------------------------------------




--------------------------------------- Iteration      1(   3)  ---------------------------------------


     EDDAV:  cpu time   11.3276: real time   11.3302
 BZINTS: Fermi energy:  8.191462; 32.000000 electrons
         Band energy: -14.432691;  BLOECHL correction:  0.000000
       DOS:  cpu time    0.0376: real time    0.0376
    --------------------------------------------
      LOOP:  cpu time   11.3652: real time   11.3678

 eigenvalue-minimisations  : 11848
 total energy-change (2. order) :-0.4099403E+01  (-0.4081463E+01)
 number of electron      32.0000000 magnetization 
 augmentation part       32.0000000 magnetization 

 Free energy of the ion-electron system (eV)
  ---------------------------------------------------
  alpha Z        PSCENC =       112.77324196
  Ewald energy   TEWEN  =     -1382.80791340
  -Hartree energ DENC   =       -72.26749598
  -exchange      EXHF   =         0.00000000
  -V(xc)+E(xc)   XCENC  =       113.91268417
  PAW double counting   =       302.65154477     -311.85538214
  entropy T*S    EENTRO =         0.00000000
  eigenvalues    EBANDS =       -14.43269143
  atomic energy  EATOM  =      1177.01779097
  Solvation  Ediel_sol  =         0.00000000
  ---------------------------------------------------
  free energy    TOTEN  =       -75.00822107 eV

  energy without entropy =      -75.00822107  energy(sigma->0) =      -75.00822107


--------------------------------------------------------------------------------------------------------




--------------------------------------- Iteration      1(   4)  ---------------------------------------


     EDDAV:  cpu time   10.8856: real time   10.8861
 BZINTS: Fermi energy:  8.203689; 32.000000 electrons
         Band energy: -14.474752;  BLOECHL correction:  0.000000
       DOS:  cpu time    0.0416: real time    0.0416
    --------------------------------------------
      LOOP:  cpu time   10.9272: real time   10.9277

 eigenvalue-minimisations  : 11336
 total energy-change (2. order) :-0.4206070E-01  (-0.4202358E-01)
 number of electron      32.0000000 magnetization 
 augmentation part       32.0000000 magnetization 

 Free energy of the ion-electron system (eV)
  ---------------------------------------------------
  alpha Z        PSCENC =       112.77324196
  Ewald energy   TEWEN  =     -1382.80791340
  -Hartree energ DENC   =       -72.26749598
  -exchange      EXHF   =         0.00000000
  -V(xc)+E(xc)   XCENC  =       113.91268417
  PAW double counting   =       302.65154477     -311.85538214
  entropy T*S    EENTRO =         0.00000000
  eigenvalues    EBANDS =       -14.47475213
  atomic energy  EATOM  =      1177.01779097
  Solvation  Ediel_sol  =         0.00000000
  ---------------------------------------------------
  free energy    TOTEN  =       -75.05028178 eV

  energy without entropy =      -75.05028178  energy(sigma->0) =      -75.05028178


--------------------------------------------------------------------------------------------------------




--------------------------------------- Iteration      1(   5)  ---------------------------------------


     EDDAV:  cpu time   11.2740: real time   11.2746
 BZINTS: Fermi energy:  8.163887; 32.000000 electrons
         Band energy: -14.475592;  BLOECHL correction:  0.000000
       DOS:  cpu time    0.0372: real time    0.0372
    CHARGE:  cpu time    0.3050: real time    0.3050
    MIXING:  cpu time    0.0016: real time    0.0016
    --------------------------------------------
      LOOP:  cpu time   11.6178: real time   11.6184

 eigenvalue-minimisations  : 11832
 total energy-change (2. order) :-0.8397642E-03  (-0.8390079E-03)
 number of electron      32.0000028 magnetization 
 augmentation part        0.7741335 magnetization 

 Broyden mixing:
  rms(total) = 0.93060E+00    rms(broyden)= 0.93042E+00
  rms(prec ) = 0.21924E+01
  weight for this iteration     100.00

 Free energy of the ion-electron system (eV)
  ---------------------------------------------------
  alpha Z        PSCENC =       112.77324196
  Ewald energy   TEWEN  =     -1382.80791340
  -Hartree energ DENC   =       -72.26749598
  -exchange      EXHF   =         0.00000000
  -V(xc)+E(xc)   XCENC  =       113.91268417
  PAW double counting   =       302.65154477     -311.85538214
  entropy T*S    EENTRO =         0.00000000
  eigenvalues    EBANDS =       -14.47559190
  atomic energy  EATOM  =      1177.01779097
  Solvation  Ediel_sol  =         0.00000000
  ---------------------------------------------------
  free energy    TOTEN  =       -75.05112154 eV

  energy without entropy =      -75.05112154  energy(sigma->0) =      -75.05112154


--------------------------------------------------------------------------------------------------------




--------------------------------------- Iteration      1(   6)  ---------------------------------------


    POTLOK:  cpu time    0.0205: real time    0.0205
    SETDIJ:  cpu time    0.0060: real time    0.0060
     EDDAV:  cpu time   10.2631: real time   10.2636
 BZINTS: Fermi energy:  8.843709; 32.000000 electrons
         Band energy:   1.410747;  BLOECHL correction:  0.000000
       DOS:  cpu time    0.0375: real time    0.0375
    CHARGE:  cpu time    0.2664: real time    0.2664
    MIXING:  cpu time    0.0018: real time    0.0018
    --------------------------------------------
      LOOP:  cpu time   10.5952: real time   10.5957

 eigenvalue-minimisations  : 10336
 total energy-change (2. order) : 0.1803061E+01  (-0.1200441E+00)
 number of electron      32.0000027 magnetization 
 augmentation part        0.7568297 magnetization 

 Broyden mixing:
  rms(total) = 0.51143E+00    rms(broyden)= 0.51141E+00
  rms(prec ) = 0.11874E+01
  weight for this iteration     100.00

 eigenvalues of (default mixing * dielectric matrix)
  average eigenvalue GAMMA=   2.1720
  2.1720

 Free energy of the ion-electron system (eV)
  ---------------------------------------------------
  alpha Z        PSCENC =       112.77324196
  Ewald energy   TEWEN  =     -1382.80791340
  -Hartree energ DENC   =       -87.22849553
  -exchange      EXHF   =         0.00000000
  -V(xc)+E(xc)   XCENC  =       115.30926538
  PAW double counting   =       390.70983637     -400.43253244
  entropy T*S    EENTRO =         0.00000000
  eigenvalues    EBANDS =         1.41074663
  atomic energy  EATOM  =      1177.01779097
  Solvation  Ediel_sol  =         0.00000000
  ---------------------------------------------------
  free energy    TOTEN  =       -73.24806006 eV

  energy without entropy =      -73.24806006  energy(sigma->0) =      -73.24806006


--------------------------------------------------------------------------------------------------------




--------------------------------------- Iteration      1(   7)  ---------------------------------------


    POTLOK:  cpu time    0.0206: real time    0.0206
    SETDIJ:  cpu time    0.0057: real time    0.0057
     EDDAV:  cpu time   10.4692: real time   10.4696
 BZINTS: Fermi energy:  9.589652; 32.000000 electrons
         Band energy:  19.806566;  BLOECHL correction:  0.000000
       DOS:  cpu time    0.0373: real time    0.0373
    CHARGE:  cpu time    0.2828: real time    0.2828
    MIXING:  cpu time    0.0017: real time    0.0017
    --------------------------------------------
      LOOP:  cpu time   10.8173: real time   10.8178

 eigenvalue-minimisations  : 10720
 total energy-change (2. order) : 0.6086498E+00  (-0.1365816E+00)
 number of electron      32.0000027 magnetization 
 augmentation part        0.7381936 magnetization 

 Broyden mixing:
  rms(total) = 0.69387E-01    rms(broyden)= 0.69056E-01
  rms(prec ) = 0.12105E+00
  weight for this iteration     100.00

 eigenvalues of (default mixing * dielectric matrix)
  average eigenvalue GAMMA=   2.2695
  2.0077  2.5314

 Free energy of the ion-electron system (eV)
  ---------------------------------------------------
  alpha Z        PSCENC =       112.77324196
  Ewald energy   TEWEN  =     -1382.80791340
  -Hartree energ DENC   =      -106.32922970
  -exchange      EXHF   =         0.00000000
  -V(xc)+E(xc)   XCENC  =       117.11438107
  PAW double counting   =       510.09088886     -520.30513589
  entropy T*S    EENTRO =         0.00000000
  eigenvalues    EBANDS =        19.80656585
  atomic energy  EATOM  =      1177.01779097
  Solvation  Ediel_sol  =         0.00000000
  ---------------------------------------------------
  free energy    TOTEN  =       -72.63941027 eV

  energy without entropy =      -72.63941027  energy(sigma->0) =      -72.63941027


--------------------------------------------------------------------------------------------------------




--------------------------------------- Iteration      1(   8)  ---------------------------------------


    POTLOK:  cpu time    0.0199: real time    0.0199
    SETDIJ:  cpu time    0.0059: real time    0.0059
     EDDAV:  cpu time   10.9812: real time   10.9818
 BZINTS: Fermi energy:  9.594968; 32.000000 electrons
         Band energy:  20.095259;  BLOECHL correction:  0.000000
       DOS:  cpu time    0.0373: real time    0.0373
    CHARGE:  cpu time    0.2872: real time    0.2872
    MIXING:  cpu time    0.0018: real time    0.0018
    --------------------------------------------
      LOOP:  cpu time   11.3334: real time   11.3340

 eigenvalue-minimisations  : 11552
 total energy-change (2. order) :-0.7355611E-02  (-0.2866165E-02)
 number of electron      32.0000027 magnetization 
 augmentation part        0.7386721 magnetization 

 Broyden mixing:
  rms(total) = 0.78048E-02    rms(broyden)= 0.77021E-02
  rms(prec ) = 0.13461E-01
  weight for this iteration     100.00

 eigenvalues of (default mixing * dielectric matrix)
  average eigenvalue GAMMA=   2.0862
  1.4373  2.6673  2.1541

 Free energy of the ion-electron system (eV)
  ---------------------------------------------------
  alpha Z        PSCENC =       112.77324196
  Ewald energy   TEWEN  =     -1382.80791340
  -Hartree energ DENC   =      -106.80096427
  -exchange      EXHF   =         0.00000000
  -V(xc)+E(xc)   XCENC  =       117.16274384
  PAW double counting   =       518.82106105     -528.90798470
[...]

 k-point   177 :       0.5000    0.4167    0.3333
  band No.  band energies     occupation 
      1      -7.3515      2.00000
      2      -7.0008      2.00000
      3      -5.9186      2.00000
      4      -5.8609      2.00000
      5      -3.2261      2.00000
      6      -3.1663      2.00000
      7      -2.2435      2.00000
      8      -2.1174      2.00000
      9       5.3956      2.00000
     10       5.4413      2.00000
     11       6.1512      2.00000
     12       6.2318      2.00000
     13       6.2417      2.00000
     14       6.4538      2.00000
     15       6.7000      2.00000
     16       6.9836      2.00000
     17      17.2888      0.00000
     18      17.3394      0.00000
     19      17.5458      0.00000
     20      17.8214      0.00000
     21      18.1529      0.00000
     22      18.3627      0.00000
     23      18.3968      0.00000
     24      18.4524      0.00000

 k-point   178 :      -0.4167    0.4167    0.3333
  band No.  band energies     occupation 
      1      -7.6407      2.00000
      2      -6.7317      2.00000
      3      -6.3676      2.00000
      4      -5.6021      2.00000
      5      -3.3510      2.00000
      6      -2.7233      2.00000
      7      -2.6011      2.00000
      8      -1.3721      2.00000
      9       5.1131      2.00000
     10       5.5935      2.00000
     11       5.8826      2.00000
     12       6.0856      2.00000
     13       6.1046      2.00000
     14       6.4742      2.00000
     15       6.5085      2.00000
     16       6.9983      2.00000
     17      16.9733      0.00000
     18      17.1662      0.00000
     19      17.1843      0.00000
     20      17.5944      0.00000
     21      18.0944      0.00000
     22      18.2481      0.00000
     23      18.6892      0.00000
     24      18.8106      0.00000

 k-point   179 :      -0.3333    0.4167    0.3333
  band No.  band energies     occupation 
      1      -8.1879      2.00000
      2      -6.8092      2.00000
      3      -6.1357      2.00000
      4      -5.6544      2.00000
      5      -2.9571      2.00000
      6      -2.9554      2.00000
      7      -1.8353      2.00000
      8      -0.5069      2.00000
      9       4.6297      2.00000
     10       4.9829      2.00000
     11       5.5606      2.00000
     12       5.7926      2.00000
     13       5.8605      2.00000
     14       6.0386      2.00000
     15       6.7110      2.00000
     16       6.9786      2.00000
     17      16.6560      0.00000
     18      16.8013      0.00000
     19      17.1603      0.00000
     20      17.3314      0.00000
     21      18.0562      0.00000
     22      18.2339      0.00000
     23      18.6998      0.00000
     24      19.1060      0.00000

 k-point   180 :       0.5000    0.5000    0.3333
  band No.  band energies     occupation 
      1      -6.8508      2.00000
      2      -6.4869      2.00000
      3      -6.4316      2.00000
      4      -6.4316      2.00000
      5      -2.8352      2.00000
      6      -2.7664      2.00000
      7      -2.7664      2.00000
      8      -2.7090      2.00000
      9       5.7884      2.00000
     10       5.8094      2.00000
     11       5.8094      2.00000
     12       6.1402      2.00000
     13       6.5913      2.00000
     14       6.6238      2.00000
     15       6.6238      2.00000
     16       6.9221      2.00000
     17      17.3388      0.00000
     18      17.3388      0.00000
     19      17.6472      0.00000
     20      17.9829      0.00000
     21      18.1869      0.00000
     22      18.1917      0.00000
     23      18.3626      0.00000
     24      18.4055      0.00000

 k-point   181 :      -0.4167    0.5000    0.3333
  band No.  band energies     occupation 
      1      -7.0511      2.00000
      2      -7.0204      2.00000
      3      -6.3687      2.00000
      4      -5.8686      2.00000
      5      -3.1942      2.00000
      6      -3.1853      2.00000
      7      -2.0729      2.00000
      8      -2.0401      2.00000
      9       5.3398      2.00000
     10       5.7093      2.00000
     11       6.0884      2.00000
     12       6.1057      2.00000
     13       6.3072      2.00000
     14       6.5652      2.00000
     15       6.6358      2.00000
     16       6.6955      2.00000
     17      17.2416      0.00000
     18      17.3957      0.00000
     19      17.4269      0.00000
     20      17.8672      0.00000
     21      17.9261      0.00000
     22      18.0343      0.00000
     23      18.2784      0.00000
     24      18.4814      0.00000

 k-point   182 :      -0.3333    0.5000    0.3333
  band No.  band energies     occupation 
      1      -7.5446      2.00000
      2      -7.5446      2.00000
      3      -6.0290      2.00000
      4      -5.4823      2.00000
      5      -3.2316      2.00000
      6      -3.1717      2.00000
      7      -1.2316      2.00000
      8      -1.2316      2.00000
      9       4.6728      2.00000
     10       5.0678      2.00000
     11       5.9019      2.00000
     12       6.1050      2.00000
     13       6.2650      2.00000
     14       6.2650      2.00000
     15       6.4366      2.00000
     16       6.4366      2.00000
     17      16.9833      0.00000
     18      16.9833      0.00000
     19      17.6304      0.00000
     20      17.6485      0.00000
     21      17.8672      0.00000
     22      18.4766      0.00000
     23      18.4768      0.00000
     24      18.7017      0.00000

 k-point   183 :      -0.4167   -0.4167    0.3333
  band No.  band energies     occupation 
      1      -7.6671      2.00000
      2      -6.3343      2.00000
      3      -6.3343      2.00000
      4      -6.1437      2.00000
      5      -3.2890      2.00000
      6      -2.6241      2.00000
      7      -2.6241      2.00000
      8      -1.3316      2.00000
      9       5.4160      2.00000
     10       5.4965      2.00000
     11       5.4965      2.00000
     12       6.2224      2.00000
     13       6.2224      2.00000
     14       6.4029      2.00000
     15       6.4932      2.00000
     16       6.9380      2.00000
     17      17.0971      0.00000
     18      17.0971      0.00000
     19      17.4542      0.00000
     20      17.4822      0.00000
     21      18.0436      0.00000
     22      18.1293      0.00000
     23      18.2180      0.00000
     24      18.2180      0.00000

 k-point   184 :       0.4167    0.4167    0.4167
  band No.  band energies     occupation 
      1      -7.4720      2.00000
      2      -5.9757      2.00000
      3      -5.9757      2.00000
      4      -5.9757      2.00000
      5      -3.3425      2.00000
      6      -3.3425      2.00000
      7      -3.3425      2.00000
      8      -2.3560      2.00000
      9       6.0505      2.00000
     10       6.0505      2.00000
     11       6.0505      2.00000
     12       6.3142      2.00000
     13       6.3142      2.00000
     14       6.3142      2.00000
     15       7.1153      2.00000
     16       7.1153      2.00000
     17      17.3543      0.00000
     18      17.3543      0.00000
     19      17.3543      0.00000
     20      17.9970      0.00000
     21      17.9970      0.00000
     22      18.3619      0.00000
     23      18.3619      0.00000
     24      18.3620      0.00000

 k-point   185 :       0.5000    0.4167    0.4167
  band No.  band energies     occupation 
      1      -6.9687      2.00000
      2      -6.5494      2.00000
      3      -5.8309      2.00000
      4      -5.8309      2.00000
      5      -3.5832      2.00000
      6      -3.5832      2.00000
      7      -2.9523      2.00000
      8      -2.8803      2.00000
      9       6.1315      2.00000
     10       6.1315      2.00000
     11       6.4157      2.00000
     12       6.4157      2.00000
     13       6.5285      2.00000
     14       6.6548      2.00000
     15       6.8971      2.00000
     16       6.9351      2.00000
     17      17.2733      0.00000
     18      17.4199      0.00000
     19      17.4199      0.00000
     20      17.8838      0.00000
     21      18.0767      0.00000
     22      18.2224      0.00000
     23      18.2248      0.00000
     24      18.2511      0.00000

 k-point   186 :      -0.4167    0.4167    0.4167
  band No.  band energies     occupation 
      1      -7.1409      2.00000
      2      -6.4842      2.00000
      3      -6.0026      2.00000
      4      -6.0026      2.00000
      5      -3.3046      2.00000
      6      -3.2907      2.00000
      7      -3.2907      2.00000
      8      -2.1809      2.00000
      9       5.9927      2.00000
     10       5.9927      2.00000
     11       6.3223      2.00000
     12       6.3223      2.00000
     13       6.3339      2.00000
     14       6.6523      2.00000
     15       6.7433      2.00000
     16       6.8099      2.00000
     17      17.2026      0.00000
     18      17.2026      0.00000
     19      17.2170      0.00000
     20      17.7152      0.00000
     21      18.0802      0.00000
     22      18.1211      0.00000
     23      18.3444      0.00000
     24      18.3446      0.00000

 k-point   187 :       0.5000    0.5000    0.4167
  band No.  band energies     occupation 
      1      -6.6008      2.00000
      2      -6.1191      2.00000
      3      -6.0999      2.00000
      4      -6.0999      2.00000
      5      -3.4254      2.00000
      6      -3.4254      2.00000
      7      -3.4227      2.00000
      8      -3.4056      2.00000
      9       6.4114      2.00000
     10       6.4114      2.00000
     11       6.4542      2.00000
     12       6.6085      2.00000
     13       6.6670      2.00000
     14       6.6670      2.00000
     15       6.7751      2.00000
     16       6.9813      2.00000
     17      17.2825      0.00000
     18      17.2825      0.00000
     19      17.3967      0.00000
     20      18.0365      0.00000
     21      18.1284      0.00000
     22      18.1317      0.00000
     23      18.1362      0.00000
     24      18.1439      0.00000

 k-point   188 :      -0.4167    0.5000    0.4167
  band No.  band energies     occupation 
      1      -6.5714      2.00000
      2      -6.5714      2.00000
      3      -6.3737      2.00000
      4      -5.8251      2.00000
      5      -3.5773      2.00000
      6      -3.5272      2.00000
      7      -2.8454      2.00000
      8      -2.8454      2.00000
      9       6.0401      2.00000
     10       6.4320      2.00000
     11       6.4945      2.00000
     12       6.5374      2.00000
     13       6.5374      2.00000
     14       6.6031      2.00000
     15       6.6031      2.00000
     16       6.7738      2.00000
     17      17.2794      0.00000
     18      17.2794      0.00000
     19      17.3526      0.00000
     20      17.9482      0.00000
     21      17.9586      0.00000
     22      18.1227      0.00000
     23      18.1251      0.00000
     24      18.3132      0.00000

 k-point   189 :       0.5000    0.5000    0.5000
  band No.  band energies     occupation 
      1      -6.4890      2.00000
      2      -5.9397      2.00000
      3      -5.9397      2.00000
      4      -5.9397      2.00000
      5      -3.6952      2.00000
      6      -3.6952      2.00000
      7      -3.6952      2.00000
      8      -3.6478      2.00000
      9       6.6168      2.00000
     10       6.6168      2.00000
     11       6.6168      2.00000
     12       6.6947      2.00000
     13       6.6947      2.00000
     14       6.6947      2.00000
     15       7.0017      2.00000
     16       7.0017      2.00000
     17      17.2420      0.00000
     18      17.2420      0.00000
     19      17.2420      0.00000
     20      18.0382      0.00000
     21      18.0385      0.00000
     22      18.1288      0.00000
     23      18.1289      0.00000
     24      18.1307      0.00000


--------------------------------------------------------------------------------------------------------


 soft charge-density along one line, spin component           1
         0         1         2         3         4         5         6         7         8         9
 total charge-density along one line
 
 pseudopotential strength for first ion, spin component:           1
  9.454  -0.004   0.000   0.000   0.000  -0.000  -0.000  -0.000
 -0.004  -0.002   0.000   0.000   0.000  -0.000  -0.000  -0.000
  0.000   0.000  -3.675  -0.000  -0.000  -0.008   0.000   0.000
  0.000   0.000  -0.000  -3.675  -0.000   0.000  -0.008   0.000
  0.000   0.000  -0.000  -0.000  -3.675   0.000   0.000  -0.008
 -0.000  -0.000  -0.008   0.000   0.000  -0.757  -0.000  -0.000
 -0.000  -0.000   0.000  -0.008   0.000  -0.000  -0.757  -0.000
 -0.000  -0.000   0.000   0.000  -0.008  -0.000  -0.000  -0.757
 total augmentation occupancy for first ion, spin component:           1
  1.422  -1.011   0.006   0.006   0.006   0.003   0.003   0.003
 -1.011   0.997  -0.017  -0.016  -0.017  -0.005  -0.005  -0.005
  0.006  -0.017   1.089  -0.013  -0.014   0.182  -0.002  -0.002
  0.006  -0.016  -0.013   1.090  -0.013  -0.002   0.182  -0.002
  0.006  -0.017  -0.014  -0.013   1.089  -0.002  -0.002   0.182
  0.003  -0.005   0.182  -0.002  -0.002   0.036  -0.000  -0.000
  0.003  -0.005  -0.002   0.182  -0.002  -0.000   0.036  -0.000
  0.003  -0.005  -0.002  -0.002   0.182  -0.000  -0.000   0.036


------------------------ aborting loop because EDIFF is reached ----------------------------------------


    CHARGE:  cpu time    0.2968: real time    0.2969
    FORLOC:  cpu time    0.0022: real time    0.0022
    FORNL :  cpu time    0.4643: real time    0.4643
    STRESS:  cpu time    1.0612: real time    1.0615
    FORHAR:  cpu time    0.0062: real time    0.0062
    MIXING:  cpu time    0.0021: real time    0.0021
    OFIELD:  cpu time    0.0001: real time    0.0001

  FORCE on cell =-STRESS in cart. coord.  units (eV):
  Direction    XX          YY          ZZ          XY          YZ          ZX
  --------------------------------------------------------------------------------------
  Alpha Z   112.77324   112.77324   112.77324
  Ewald    -461.35039  -460.92857  -460.53105   -10.54440   -10.13494   -10.33963
  Hartree    35.47690    35.59003    35.69664    -2.82785    -2.71803    -2.77294
  E(xc)    -119.20782  -119.20730  -119.20681    -0.01304    -0.01254    -0.01279
  Local     -47.60914   -48.10698   -48.57613    12.44472    11.96140    12.20305
  n-local   -27.50937   -27.83371   -27.48208     0.40254     0.89531     0.04512
  augment    -2.77515    -2.77518    -2.77521     0.00088     0.00085     0.00086
  Kinetic   501.88400   507.07045   513.73847    -2.24276    -6.08758     0.72718
  Fock        0.00000     0.00000     0.00000     0.00000     0.00000     0.00000
  -------------------------------------------------------------------------------------
  Total      -2.82212    -2.69716    -2.57941    -3.12337    -3.00206    -3.06271
  in kB     -97.78224   -93.45261   -89.37271  -108.22001  -104.01689  -106.11844
  external pressure =      -93.54 kB  Pullay stress =        0.00 kB


 VOLUME and BASIS-vectors are now :
 -----------------------------------------------------------------------------
  energy-cutoff  :      400.00
  volume of cell :       46.24
      direct lattice vectors                 reciprocal lattice vectors
     3.589999359  0.000000000  0.000000000     0.278551582 -0.005572131 -0.005463924
     0.071799786  3.589281100  0.000000000     0.000000000  0.278607323 -0.005463961
     0.071799786  0.070378337  3.588590968     0.000000000  0.000000000  0.278660903

  length of vectors
     3.589999359  3.589999168  3.589999089     0.278660881  0.278660897  0.278660903


 FORCES acting on ions
    electron-ion (+dipol)            ewald-force                    non-local-force                 convergence-correction
 -----------------------------------------------------------------------------------------------
   0.357E+01 0.350E+01 0.343E+01   -.362E+01 -.355E+01 -.348E+01   0.430E-01 0.422E-01 0.414E-01   0.485E-04 0.476E-04 0.466E-04
   -.357E+01 -.350E+01 -.343E+01   0.362E+01 0.355E+01 0.348E+01   -.430E-01 -.422E-01 -.414E-01   -.485E-04 -.476E-04 -.466E-04
   0.357E+01 0.350E+01 0.343E+01   -.362E+01 -.355E+01 -.348E+01   0.430E-01 0.422E-01 0.414E-01   0.485E-04 0.476E-04 0.466E-04
   -.357E+01 -.350E+01 -.343E+01   0.362E+01 0.355E+01 0.348E+01   -.430E-01 -.422E-01 -.414E-01   -.485E-04 -.476E-04 -.466E-04
   0.357E+01 0.350E+01 0.343E+01   -.362E+01 -.355E+01 -.348E+01   0.430E-01 0.422E-01 0.414E-01   0.485E-04 0.476E-04 0.466E-04
   -.357E+01 -.350E+01 -.343E+01   0.362E+01 0.355E+01 0.348E+01   -.430E-01 -.422E-01 -.414E-01   -.485E-04 -.476E-04 -.466E-04
   0.357E+01 0.350E+01 0.343E+01   -.362E+01 -.355E+01 -.348E+01   0.430E-01 0.422E-01 0.414E-01   0.485E-04 0.476E-04 0.466E-04
   -.357E+01 -.350E+01 -.343E+01   0.362E+01 0.355E+01 0.348E+01   -.430E-01 -.422E-01 -.414E-01   -.485E-04 -.476E-04 -.466E-04
 -----------------------------------------------------------------------------------------------
   0.601E-12 0.619E-12 0.394E-12   0.178E-13 0.888E-15 -.133E-14   -.104E-15 0.173E-15 -.416E-16   -.277E-13 -.271E-13 0.180E-13
 
 
 POSITION                                       TOTAL-FORCE (eV/Angst)
 -----------------------------------------------------------------------------------
      0.96930      2.70956      0.89715        -0.012349     -0.012104     -0.011869
      0.03590      0.03519      1.79430         0.012349      0.012104      0.011869
      0.96930      0.95010      2.69144        -0.012349     -0.012104     -0.011869
      0.03590      1.79464      0.00000         0.012349      0.012104      0.011869
      2.80020      2.74474      2.69144        -0.012349     -0.012104     -0.011869
      1.79500      0.00000      0.00000         0.012349      0.012104      0.011869
      2.72840      0.91491      0.89715        -0.012349     -0.012104     -0.011869
      1.86680      1.82983      1.79430         0.012349      0.012104      0.011869
 -----------------------------------------------------------------------------------
    total drift:                                0.000000      0.000000      0.000000


--------------------------------------------------------------------------------------------------------



  FREE ENERGIE OF THE ION-ELECTRON SYSTEM (eV)
  ---------------------------------------------------
  free  energy   TOTEN  =       -72.64704548 eV

  energy  without entropy=      -72.64704548  energy(sigma->0) =      -72.64704548
 


--------------------------------------------------------------------------------------------------------


    POTLOK:  cpu time    0.0274: real time    0.0274


--------------------------------------------------------------------------------------------------------


     LOOP+:  cpu time  121.1159: real time  121.1494
    4ORBIT:  cpu time    0.0000: real time    0.0000
 BZINTS: Fermi energy:  9.590292; 32.000000 electrons
         Band energy:  20.051012;  BLOECHL correction:  0.000000

 total amount of memory used by VASP MPI-rank0    37925. kBytes
=======================================================================

   base      :      30000. kBytes
   nonl-proj :       2738. kBytes
   fftplans  :        346. kBytes
   grid      :        481. kBytes
   one-center:          6. kBytes
   wavefun   :       4354. kBytes
 
  
  
 General timing and accounting informations for this job:
 ========================================================
  
                  Total CPU time used (sec):      124.660
                            User time (sec):      120.924
                          System time (sec):        3.736
                         Elapsed time (sec):      125.214
  
                   Maximum memory used (kb):      193692.
                   Average memory used (kb):           0.
  
                          Minor page faults:        36881
                          Major page faults:           36
                 Voluntary context switches:          798
