<?xml version="1.0" encoding="ISO-8859-1"?>
<modeling>
 <generator>
  <i name="program" type="string">vasp </i>
  <i name="version" type="string">5.4.4.18Apr17-6-g9f103f2a35  </i>
  <i name="subversion" type="string">(build Mar 12 2022 03:36:41) complex            parallel </i>
  <i name="platform" type="string">IFC19.0.3.199_CrayMPICH7.7.19 </i>
  <i name="date" type="string">2022 12 01 </i>
  <i name="time" type="string">11:07:21 </i>
 </generator>
 <incar>
  <i type="int" name="ISTART">     0</i>
  <i type="string" name="PREC">accurate</i>
  <i name="EDIFF">      0.00000100</i>
  <i name="POTIM">      0.02000000</i>
  <i type="int" name="ISMEAR">    -5</i>
  <i name="SIGMA">      0.06000000</i>
  <i type="logical" name="LWAVE"> F  </i>
  <i type="logical" name="LCHARG"> F  </i>
  <v type="int" name="KPOINT_BSE">    -1     0     0     0</v>
 </incar>
 <structure name="primitive_cell" >
  <crystal>
   <varray name="basis" >
    <v>      -0.07179979      -1.82982972      -1.79429548 </v>
    <v>      -1.83089957      -1.79464055       0.00000000 </v>
    <v>      -1.83089957      -0.03518917      -1.79429548 </v>
   </varray>
   <i name="volume">     11.56021235 </i>
   <varray name="rec_basis" >
    <v>       0.27855158      -0.28417945      -0.27866087 </v>
    <v>      -0.27855158      -0.27303519       0.28958879 </v>
    <v>      -0.27855158       0.28417945      -0.27866094 </v>
   </varray>
  </crystal>
  <varray name="positions" >
   <v>       0.25000000       0.25000000       0.25000000 </v>
   <v>      -0.50000000      -0.50000000      -0.50000000 </v>
  </varray>
 </structure>
 <varray name="primitive_index" >
  <v type="int" >        1 </v>
  <v type="int" >        6 </v>
 </varray>
 <kpoints>
  <generation param="Gamma">
   <v type="int" name="divisions">      12       12       12 </v>
   <v name="usershift">      0.00000000       0.00000000       0.00000000 </v>
   <v name="genvec1">      0.08333333      -0.00000000      -0.00000000 </v>
   <v name="genvec2">      0.00000000       0.08333333       0.00000000 </v>
   <v name="genvec3">      0.00000000       0.00000000       0.08333333 </v>
   <v name="shift">      0.00000000       0.00000000       0.00000000 </v>
  </generation>
  <varray name="kpointlist" >
   <v>       0.00000000       0.00000000       0.00000000 </v>
   <v>       0.08333333      -0.00000000      -0.00000000 </v>
   <v>       0.16666667      -0.00000000      -0.00000000 </v>
   <v>       0.25000000      -0.00000000       0.00000000 </v>
   <v>       0.33333333      -0.00000000       0.00000000 </v>
   <v>       0.41666667      -0.00000000       0.00000000 </v>
   <v>       0.50000000      -0.00000000       0.00000000 </v>
   <v>       0.08333333       0.08333333       0.00000000 </v>
   <v>       0.16666667       0.08333333       0.00000000 </v>
   <v>       0.25000000       0.08333333       0.00000000 </v>
   <v>       0.33333333       0.08333333       0.00000000 </v>
   <v>       0.41666667       0.08333333       0.00000000 </v>
   <v>       0.50000000       0.08333333       0.00000000 </v>
   <v>      -0.41666667       0.08333333      -0.00000000 </v>
   <v>      -0.33333333       0.08333333      -0.00000000 </v>
   <v>      -0.25000000       0.08333333      -0.00000000 </v>
   <v>      -0.16666667       0.08333333       0.00000000 </v>
   <v>      -0.08333333       0.08333333       0.00000000 </v>
   <v>       0.16666667       0.16666667       0.00000000 </v>
   <v>       0.25000000       0.16666667       0.00000000 </v>
   <v>       0.33333333       0.16666667       0.00000000 </v>
   <v>       0.41666667       0.16666667       0.00000000 </v>
   <v>       0.50000000       0.16666667       0.00000000 </v>
   <v>      -0.41666667       0.16666667       0.00000000 </v>
   <v>      -0.33333333       0.16666667       0.00000000 </v>
   <v>      -0.25000000       0.16666667       0.00000000 </v>
   <v>      -0.16666667       0.16666667      -0.00000000 </v>
   <v>       0.25000000       0.25000000       0.00000000 </v>
   <v>       0.33333333       0.25000000      -0.00000000 </v>
   <v>       0.41666667       0.25000000       0.00000000 </v>
   <v>       0.50000000       0.25000000       0.00000000 </v>
   <v>      -0.41666667       0.25000000      -0.00000000 </v>
   <v>      -0.33333333       0.25000000       0.00000000 </v>
   <v>      -0.25000000       0.25000000       0.00000000 </v>
   <v>       0.33333333       0.33333333       0.00000000 </v>
   <v>       0.41666667       0.33333333       0.00000000 </v>
   <v>       0.50000000       0.33333333       0.00000000 </v>
   <v>      -0.41666667       0.33333333       0.00000000 </v>
   <v>      -0.33333333       0.33333333       0.00000000 </v>
   <v>       0.41666667       0.41666667       0.00000000 </v>
   <v>       0.50000000       0.41666667       0.00000000 </v>
   <v>      -0.41666667       0.41666667      -0.00000000 </v>
   <v>       0.50000000       0.50000000       0.00000000 </v>
   <v>       0.08333333       0.08333333       0.08333333 </v>
   <v>       0.16666667       0.08333333       0.08333333 </v>
   <v>       0.25000000       0.08333333       0.08333333 </v>
   <v>       0.33333333       0.08333333       0.08333333 </v>
   <v>       0.41666667       0.08333333       0.08333333 </v>
   <v>       0.50000000       0.08333333       0.08333333 </v>
   <v>      -0.41666667       0.08333333       0.08333333 </v>
   <v>      -0.33333333       0.08333333       0.08333333 </v>
   <v>      -0.25000000       0.08333333       0.08333333 </v>
   <v>      -0.16666667       0.08333333       0.08333333 </v>
   <v>      -0.08333333       0.08333333       0.08333333 </v>
   <v>       0.16666667       0.16666667       0.08333333 </v>
   <v>       0.25000000       0.16666667       0.08333333 </v>
   <v>       0.33333333       0.16666667       0.08333333 </v>
   <v>       0.41666667       0.16666667       0.08333333 </v>
   <v>       0.50000000       0.16666667       0.08333333 </v>
   <v>      -0.41666667       0.16666667       0.08333333 </v>
   <v>      -0.33333333       0.16666667       0.08333333 </v>
   <v>      -0.25000000       0.16666667       0.08333333 </v>
   <v>      -0.16666667       0.16666667       0.08333333 </v>
   <v>      -0.08333333       0.16666667       0.08333333 </v>
   <v>       0.25000000       0.25000000       0.08333333 </v>
   <v>       0.33333333       0.25000000       0.08333333 </v>
   <v>       0.41666667       0.25000000       0.08333333 </v>
   <v>       0.50000000       0.25000000       0.08333333 </v>
   <v>      -0.41666667       0.25000000       0.08333333 </v>
   <v>      -0.33333333       0.25000000       0.08333333 </v>
   <v>      -0.25000000       0.25000000       0.08333333 </v>
   <v>      -0.16666667       0.25000000       0.08333333 </v>
   <v>      -0.08333333       0.25000000       0.08333333 </v>
   <v>       0.33333333       0.33333333       0.08333333 </v>
   <v>       0.41666667       0.33333333       0.08333333 </v>
   <v>       0.50000000       0.33333333       0.08333333 </v>
   <v>      -0.41666667       0.33333333       0.08333333 </v>
   <v>      -0.33333333       0.33333333       0.08333333 </v>
   <v>      -0.25000000       0.33333333       0.08333333 </v>
   <v>      -0.16666667       0.33333333       0.08333333 </v>
   <v>      -0.08333333       0.33333333       0.08333333 </v>
   <v>       0.41666667       0.41666667       0.08333333 </v>
   <v>       0.50000000       0.41666667       0.08333333 </v>
   <v>      -0.41666667       0.41666667       0.08333333 </v>
   <v>      -0.33333333       0.41666667       0.08333333 </v>
   <v>      -0.25000000       0.41666667       0.08333333 </v>
   <v>      -0.16666667       0.41666667       0.08333333 </v>
   <v>      -0.08333333       0.41666667       0.08333333 </v>
   <v>       0.50000000       0.50000000       0.08333333 </v>
   <v>      -0.41666667       0.50000000       0.08333333 </v>
   <v>      -0.33333333       0.50000000       0.08333333 </v>
   <v>      -0.25000000       0.50000000       0.08333333 </v>
   <v>      -0.16666667       0.50000000       0.08333333 </v>
   <v>      -0.08333333       0.50000000       0.08333333 </v>
   <v>      -0.41666667      -0.41666667       0.08333333 </v>
   <v>      -0.33333333      -0.41666667       0.08333333 </v>
   <v>      -0.25000000      -0.41666667       0.08333333 </v>
   <v>      -0.16666667      -0.41666667       0.08333333 </v>
   <v>      -0.33333333      -0.33333333       0.08333333 </v>
   <v>      -0.25000000      -0.33333333       0.08333333 </v>
   <v>      -0.16666667      -0.33333333       0.08333333 </v>
   <v>      -0.25000000      -0.25000000       0.08333333 </v>
   <v>      -0.16666667      -0.25000000       0.08333333 </v>
   <v>      -0.16666667      -0.16666667       0.08333333 </v>
   <v>       0.16666667       0.16666667       0.16666667 </v>
   <v>       0.25000000       0.16666667       0.16666667 </v>
   <v>       0.33333333       0.16666667       0.16666667 </v>
   <v>       0.41666667       0.16666667       0.16666667 </v>
   <v>       0.50000000       0.16666667       0.16666667 </v>
   <v>      -0.41666667       0.16666667       0.16666667 </v>
   <v>      -0.33333333       0.16666667       0.16666667 </v>
   <v>      -0.25000000       0.16666667       0.16666667 </v>
   <v>      -0.16666667       0.16666667       0.16666667 </v>
   <v>       0.25000000       0.25000000       0.16666667 </v>
   <v>       0.33333333       0.25000000       0.16666667 </v>
   <v>       0.41666667       0.25000000       0.16666667 </v>
   <v>       0.50000000       0.25000000       0.16666667 </v>
   <v>      -0.41666667       0.25000000       0.16666667 </v>
   <v>      -0.33333333       0.25000000       0.16666667 </v>
   <v>      -0.25000000       0.25000000       0.16666667 </v>
   <v>      -0.16666667       0.25000000       0.16666667 </v>
   <v>       0.33333333       0.33333333       0.16666667 </v>
   <v>       0.41666667       0.33333333       0.16666667 </v>
   <v>       0.50000000       0.33333333       0.16666667 </v>
   <v>      -0.41666667       0.33333333       0.16666667 </v>
   <v>      -0.33333333       0.33333333       0.16666667 </v>
   <v>      -0.25000000       0.33333333       0.16666667 </v>
   <v>      -0.16666667       0.33333333       0.16666667 </v>
   <v>       0.41666667       0.41666667       0.16666667 </v>
   <v>       0.50000000       0.41666667       0.16666667 </v>
   <v>      -0.41666667       0.41666667       0.16666667 </v>
   <v>      -0.33333333       0.41666667       0.16666667 </v>
   <v>      -0.25000000       0.41666667       0.16666667 </v>
   <v>      -0.16666667       0.41666667       0.16666667 </v>
   <v>       0.50000000       0.50000000       0.16666667 </v>
   <v>      -0.41666667       0.50000000       0.16666667 </v>
   <v>      -0.33333333       0.50000000       0.16666667 </v>
   <v>      -0.25000000       0.50000000       0.16666667 </v>
   <v>      -0.16666667       0.50000000       0.16666667 </v>
   <v>      -0.41666667      -0.41666667       0.16666667 </v>
   <v>      -0.33333333      -0.41666667       0.16666667 </v>
   <v>      -0.25000000      -0.41666667       0.16666667 </v>
   <v>      -0.33333333      -0.33333333       0.16666667 </v>
   <v>      -0.25000000      -0.33333333       0.16666667 </v>
   <v>      -0.25000000      -0.25000000       0.16666667 </v>
   <v>       0.25000000       0.25000000       0.25000000 </v>
   <v>       0.33333333       0.25000000       0.25000000 </v>
   <v>       0.41666667       0.25000000       0.25000000 </v>
   <v>       0.50000000       0.25000000       0.25000000 </v>
   <v>      -0.41666667       0.25000000       0.25000000 </v>
   <v>      -0.33333333       0.25000000       0.25000000 </v>
   <v>      -0.25000000       0.25000000       0.25000000 </v>
   <v>       0.33333333       0.33333333       0.25000000 </v>
   <v>       0.41666667       0.33333333       0.25000000 </v>
   <v>       0.50000000       0.33333333       0.25000000 </v>
   <v>      -0.41666667       0.33333333       0.25000000 </v>
   <v>      -0.33333333       0.33333333       0.25000000 </v>
   <v>      -0.25000000       0.33333333       0.25000000 </v>
   <v>       0.41666667       0.41666667       0.25000000 </v>
   <v>       0.50000000       0.41666667       0.25000000 </v>
   <v>      -0.41666667       0.41666667       0.25000000 </v>
   <v>      -0.33333333       0.41666667       0.25000000 </v>
   <v>      -0.25000000       0.41666667       0.25000000 </v>
   <v>       0.50000000       0.50000000       0.25000000 </v>
   <v>      -0.41666667       0.50000000       0.25000000 </v>
   <v>      -0.33333333       0.50000000       0.25000000 </v>
   <v>      -0.25000000       0.50000000       0.25000000 </v>
   <v>      -0.41666667      -0.41666667       0.25000000 </v>
   <v>      -0.33333333      -0.41666667       0.25000000 </v>
   <v>      -0.33333333      -0.33333333       0.25000000 </v>
   <v>       0.33333333       0.33333333       0.33333333 </v>
   <v>       0.41666667       0.33333333       0.33333333 </v>
   <v>       0.50000000       0.33333333       0.33333333 </v>
   <v>      -0.41666667       0.33333333       0.33333333 </v>
   <v>      -0.33333333       0.33333333       0.33333333 </v>
   <v>       0.41666667       0.41666667       0.33333333 </v>
   <v>       0.50000000       0.41666667       0.33333333 </v>
   <v>      -0.41666667       0.41666667       0.33333333 </v>
   <v>      -0.33333333       0.41666667       0.33333333 </v>
   <v>       0.50000000       0.50000000       0.33333333 </v>
   <v>      -0.41666667       0.50000000       0.33333333 </v>
   <v>      -0.33333333       0.50000000       0.33333333 </v>
   <v>      -0.41666667      -0.41666667       0.33333333 </v>
   <v>       0.41666667       0.41666667       0.41666667 </v>
   <v>       0.50000000       0.41666667       0.41666667 </v>
   <v>      -0.41666667       0.41666667       0.41666667 </v>
   <v>       0.50000000       0.50000000       0.41666667 </v>
   <v>      -0.41666667       0.50000000       0.41666667 </v>
   <v>       0.50000000       0.50000000       0.50000000 </v>
  </varray>
  <varray name="weights" >
   <v>       0.00057870 </v>
   <v>       0.00347222 </v>
   <v>       0.00347222 </v>
   <v>       0.00347222 </v>
   <v>       0.00347222 </v>
   <v>       0.00347222 </v>
   <v>       0.00173611 </v>
   <v>       0.00347222 </v>
   <v>       0.00694444 </v>
   <v>       0.00694444 </v>
   <v>       0.00694444 </v>
   <v>       0.00694444 </v>
   <v>       0.00694444 </v>
   <v>       0.00694444 </v>
   <v>       0.00694444 </v>
   <v>       0.00694444 </v>
   <v>       0.00694444 </v>
   <v>       0.00347222 </v>
   <v>       0.00347222 </v>
   <v>       0.00694444 </v>
   <v>       0.00694444 </v>
   <v>       0.00694444 </v>
   <v>       0.00694444 </v>
   <v>       0.00694444 </v>
   <v>       0.00694444 </v>
   <v>       0.00694444 </v>
   <v>       0.00347222 </v>
   <v>       0.00347222 </v>
   <v>       0.00694444 </v>
   <v>       0.00694444 </v>
   <v>       0.00694444 </v>
   <v>       0.00694444 </v>
   <v>       0.00694444 </v>
   <v>       0.00347222 </v>
   <v>       0.00347222 </v>
   <v>       0.00694444 </v>
   <v>       0.00694444 </v>
   <v>       0.00694444 </v>
   <v>       0.00347222 </v>
   <v>       0.00347222 </v>
   <v>       0.00694444 </v>
   <v>       0.00347222 </v>
   <v>       0.00173611 </v>
   <v>       0.00115741 </v>
   <v>       0.00347222 </v>
   <v>       0.00347222 </v>
   <v>       0.00347222 </v>
   <v>       0.00347222 </v>
   <v>       0.00347222 </v>
   <v>       0.00347222 </v>
   <v>       0.00347222 </v>
   <v>       0.00347222 </v>
   <v>       0.00347222 </v>
   <v>       0.00347222 </v>
   <v>       0.00347222 </v>
   <v>       0.00694444 </v>
   <v>       0.00694444 </v>
   <v>       0.00694444 </v>
   <v>       0.00694444 </v>
   <v>       0.00694444 </v>
   <v>       0.00694444 </v>
   <v>       0.00694444 </v>
   <v>       0.00694444 </v>
   <v>       0.00694444 </v>
   <v>       0.00347222 </v>
   <v>       0.00694444 </v>
   <v>       0.00694444 </v>
   <v>       0.00694444 </v>
   <v>       0.00694444 </v>
   <v>       0.00694444 </v>
   <v>       0.00694444 </v>
   <v>       0.00694444 </v>
   <v>       0.00694444 </v>
   <v>       0.00347222 </v>
   <v>       0.00694444 </v>
   <v>       0.00694444 </v>
   <v>       0.00694444 </v>
   <v>       0.00694444 </v>
   <v>       0.00694444 </v>
   <v>       0.00694444 </v>
   <v>       0.00694444 </v>
   <v>       0.00347222 </v>
   <v>       0.00694444 </v>
   <v>       0.00694444 </v>
   <v>       0.00694444 </v>
   <v>       0.00694444 </v>
   <v>       0.00694444 </v>
   <v>       0.00694444 </v>
   <v>       0.00347222 </v>
   <v>       0.00694444 </v>
   <v>       0.00694444 </v>
   <v>       0.00694444 </v>
   <v>       0.00694444 </v>
   <v>       0.00347222 </v>
   <v>       0.00347222 </v>
   <v>       0.00694444 </v>
   <v>       0.00694444 </v>
   <v>       0.00694444 </v>
   <v>       0.00347222 </v>
   <v>       0.00694444 </v>
   <v>       0.00694444 </v>
   <v>       0.00347222 </v>
   <v>       0.00694444 </v>
   <v>       0.00347222 </v>
   <v>       0.00115741 </v>
   <v>       0.00347222 </v>
   <v>       0.00347222 </v>
   <v>       0.00347222 </v>
   <v>       0.00347222 </v>
   <v>       0.00347222 </v>
   <v>       0.00347222 </v>
   <v>       0.00347222 </v>
   <v>       0.00347222 </v>
   <v>       0.00347222 </v>
   <v>       0.00694444 </v>
   <v>       0.00694444 </v>
   <v>       0.00694444 </v>
   <v>       0.00694444 </v>
   <v>       0.00694444 </v>
   <v>       0.00694444 </v>
   <v>       0.00694444 </v>
   <v>       0.00347222 </v>
   <v>       0.00694444 </v>
   <v>       0.00694444 </v>
   <v>       0.00694444 </v>
   <v>       0.00694444 </v>
   <v>       0.00694444 </v>
   <v>       0.00694444 </v>
   <v>       0.00347222 </v>
   <v>       0.00694444 </v>
   <v>       0.00694444 </v>
   <v>       0.00694444 </v>
   <v>       0.00694444 </v>
   <v>       0.00694444 </v>
   <v>       0.00347222 </v>
   <v>       0.00694444 </v>
   <v>       0.00694444 </v>
   <v>       0.00694444 </v>
   <v>       0.00347222 </v>
   <v>       0.00347222 </v>
   <v>       0.00694444 </v>
   <v>       0.00694444 </v>
   <v>       0.00347222 </v>
   <v>       0.00694444 </v>
   <v>       0.00347222 </v>
   <v>       0.00115741 </v>
   <v>       0.00347222 </v>
   <v>       0.00347222 </v>
   <v>       0.00347222 </v>
   <v>       0.00347222 </v>
   <v>       0.00347222 </v>
   <v>       0.00347222 </v>
   <v>       0.00347222 </v>
   <v>       0.00694444 </v>
   <v>       0.00694444 </v>
   <v>       0.00694444 </v>
   <v>       0.00694444 </v>
   <v>       0.00694444 </v>
   <v>       0.00347222 </v>
   <v>       0.00694444 </v>
   <v>       0.00694444 </v>
   <v>       0.00694444 </v>
   <v>       0.00694444 </v>
   <v>       0.00347222 </v>
   <v>       0.00694444 </v>
   <v>       0.00694444 </v>
   <v>       0.00347222 </v>
   <v>       0.00347222 </v>
   <v>       0.00694444 </v>
   <v>       0.00347222 </v>
   <v>       0.00115741 </v>
   <v>       0.00347222 </v>
   <v>       0.00347222 </v>
   <v>       0.00347222 </v>
   <v>       0.00347222 </v>
   <v>       0.00347222 </v>
   <v>       0.00694444 </v>
   <v>       0.00694444 </v>
   <v>       0.00694444 </v>
   <v>       0.00347222 </v>
   <v>       0.00694444 </v>
   <v>       0.00347222 </v>
   <v>       0.00347222 </v>
   <v>       0.00115741 </v>
   <v>       0.00347222 </v>
   <v>       0.00347222 </v>
   <v>       0.00347222 </v>
   <v>       0.00347222 </v>
   <v>       0.00057870 </v>
  </varray>
  <varray name="tetrahedronlist"  type="int" >
   <v type="int" >       12        1        2        8       44 </v>
   <v type="int" >       12        2        8        9       45 </v>
   <v type="int" >       12        2        3        9       45 </v>
   <v type="int" >       12        2        8       44       45 </v>
   <v type="int" >       12        3        9       10       46 </v>
   <v type="int" >       12        3        4       10       46 </v>
   <v type="int" >       12        3        9       45       46 </v>
   <v type="int" >       12        4       10       11       47 </v>
   <v type="int" >       12        4        5       11       47 </v>
   <v type="int" >       12        4       10       46       47 </v>
   <v type="int" >       12        5       11       12       48 </v>
   <v type="int" >       12        5        6       12       48 </v>
   <v type="int" >       12        5       11       47       48 </v>
   <v type="int" >       12        6       12       13       49 </v>
   <v type="int" >       12        6        7       13       49 </v>
   <v type="int" >       12        6       12       48       49 </v>
   <v type="int" >       12        7       13       14       50 </v>
   <v type="int" >       12        6        7       14       50 </v>
   <v type="int" >       12        7       13       49       50 </v>
   <v type="int" >       12        6       14       15       51 </v>
   <v type="int" >       12        5        6       15       51 </v>
   <v type="int" >       12        6       14       50       51 </v>
   <v type="int" >       12        5       15       16       52 </v>
   <v type="int" >       12        4        5       16       52 </v>
   <v type="int" >       12        5       15       51       52 </v>
   <v type="int" >       12        4       16       17       53 </v>
   <v type="int" >       12        3        4       17       53 </v>
   <v type="int" >       12        4       16       52       53 </v>
   <v type="int" >       12        3       17       18       54 </v>
   <v type="int" >       12        2        3       18       54 </v>
   <v type="int" >       12        3       17       53       54 </v>
   <v type="int" >       12        2        2        8       18 </v>
   <v type="int" >       12        1        2        2        8 </v>
   <v type="int" >       12        2        8       18       54 </v>
   <v type="int" >       12        8        9       19       55 </v>
   <v type="int" >       12        8        9       45       55 </v>
   <v type="int" >       12        8       44       45       55 </v>
   <v type="int" >       12        9       19       20       56 </v>
   <v type="int" >       12        9       10       20       56 </v>
   <v type="int" >       12        9       10       46       56 </v>
   <v type="int" >       12        9       19       55       56 </v>
   <v type="int" >       12        9       45       55       56 </v>
   <v type="int" >       12        9       45       46       56 </v>
   <v type="int" >       12       10       20       21       57 </v>
   <v type="int" >       12       10       11       21       57 </v>
   <v type="int" >       12       10       11       47       57 </v>
   <v type="int" >       12       10       20       56       57 </v>
   <v type="int" >       12       10       46       56       57 </v>
   <v type="int" >       12       10       46       47       57 </v>
   <v type="int" >       12       11       21       22       58 </v>
   <v type="int" >       12       11       12       22       58 </v>
   <v type="int" >       12       11       12       48       58 </v>
   <v type="int" >       12       11       21       57       58 </v>
   <v type="int" >       12       11       47       57       58 </v>
   <v type="int" >       12       11       47       48       58 </v>
   <v type="int" >       12       12       22       23       59 </v>
   <v type="int" >       12       12       13       23       59 </v>
   <v type="int" >       12       12       13       49       59 </v>
   <v type="int" >       12       12       22       58       59 </v>
   <v type="int" >       12       12       48       58       59 </v>
   <v type="int" >       12       12       48       49       59 </v>
   <v type="int" >       12       13       23       24       60 </v>
   <v type="int" >       12       13       14       24       60 </v>
   <v type="int" >       12       13       14       50       60 </v>
   <v type="int" >       12       13       23       59       60 </v>
   <v type="int" >       12       13       49       59       60 </v>
   <v type="int" >       12       13       49       50       60 </v>
   <v type="int" >       12       14       24       25       61 </v>
   <v type="int" >       12       14       15       25       61 </v>
   <v type="int" >       12       14       15       51       61 </v>
   <v type="int" >       12       14       24       60       61 </v>
   <v type="int" >       12       14       50       60       61 </v>
   <v type="int" >       12       14       50       51       61 </v>
   <v type="int" >       12       15       25       26       62 </v>
   <v type="int" >       12       15       16       26       62 </v>
   <v type="int" >       12       15       16       52       62 </v>
   <v type="int" >       12       15       25       61       62 </v>
   <v type="int" >       12       15       51       61       62 </v>
   <v type="int" >       12       15       51       52       62 </v>
   <v type="int" >       12       16       26       27       63 </v>
   <v type="int" >       12       16       17       27       63 </v>
   <v type="int" >       12       16       17       53       63 </v>
   <v type="int" >       12       16       26       62       63 </v>
   <v type="int" >       12       16       52       62       63 </v>
   <v type="int" >       12       16       52       53       63 </v>
   <v type="int" >       12       17       17       27       64 </v>
   <v type="int" >       12       17       17       18       64 </v>
   <v type="int" >       12       17       18       54       64 </v>
   <v type="int" >       12       17       27       63       64 </v>
   <v type="int" >       12       17       53       63       64 </v>
   <v type="int" >       12       17       53       54       64 </v>
   <v type="int" >       12        3        9       17       18 </v>
   <v type="int" >       12        2        3        9       18 </v>
   <v type="int" >       12        2        8        9       18 </v>
   <v type="int" >       12        9       17       18       64 </v>
   <v type="int" >       12        9       18       54       64 </v>
   <v type="int" >       12        8        9       18       54 </v>
   <v type="int" >       12       19       20       28       65 </v>
   <v type="int" >       12       19       20       56       65 </v>
   <v type="int" >       12       19       55       56       65 </v>
   <v type="int" >       12       20       28       29       66 </v>
   <v type="int" >       12       20       21       29       66 </v>
   <v type="int" >       12       20       21       57       66 </v>
   <v type="int" >       12       20       28       65       66 </v>
   <v type="int" >       12       20       56       65       66 </v>
   <v type="int" >       12       20       56       57       66 </v>
   <v type="int" >       12       21       29       30       67 </v>
   <v type="int" >       12       21       22       30       67 </v>
   <v type="int" >       12       21       22       58       67 </v>
   <v type="int" >       12       21       29       66       67 </v>
   <v type="int" >       12       21       57       66       67 </v>
   <v type="int" >       12       21       57       58       67 </v>
   <v type="int" >       12       22       30       31       68 </v>
   <v type="int" >       12       22       23       31       68 </v>
   <v type="int" >       12       22       23       59       68 </v>
   <v type="int" >       12       22       30       67       68 </v>
   <v type="int" >       12       22       58       67       68 </v>
   <v type="int" >       12       22       58       59       68 </v>
   <v type="int" >       12       23       31       32       69 </v>
   <v type="int" >       12       23       24       32       69 </v>
   <v type="int" >       12       23       24       60       69 </v>
   <v type="int" >       12       23       31       68       69 </v>
   <v type="int" >       12       23       59       68       69 </v>
   <v type="int" >       12       23       59       60       69 </v>
   <v type="int" >       12       24       32       33       70 </v>
   <v type="int" >       12       24       25       33       70 </v>
   <v type="int" >       12       24       25       61       70 </v>
   <v type="int" >       12       24       32       69       70 </v>
   <v type="int" >       12       24       60       69       70 </v>
   <v type="int" >       12       24       60       61       70 </v>
   <v type="int" >       12       25       33       34       71 </v>
   <v type="int" >       12       25       26       34       71 </v>
   <v type="int" >       12       25       26       62       71 </v>
   <v type="int" >       12       25       33       70       71 </v>
   <v type="int" >       12       25       61       70       71 </v>
   <v type="int" >       12       25       61       62       71 </v>
   <v type="int" >       12       26       26       34       72 </v>
   <v type="int" >       12       26       26       27       72 </v>
   <v type="int" >       12       26       27       63       72 </v>
   <v type="int" >       12       26       34       71       72 </v>
   <v type="int" >       12       26       62       71       72 </v>
   <v type="int" >       12       26       62       63       72 </v>
   <v type="int" >       12       16       26       27       73 </v>
   <v type="int" >       12       16       17       27       73 </v>
   <v type="int" >       12       17       27       64       73 </v>
   <v type="int" >       12       26       27       72       73 </v>
   <v type="int" >       12       27       63       72       73 </v>
   <v type="int" >       12       27       63       64       73 </v>
   <v type="int" >       12        4       10       16       17 </v>
   <v type="int" >       12        3        4       10       17 </v>
   <v type="int" >       12        3        9       10       17 </v>
   <v type="int" >       12       10       16       17       73 </v>
   <v type="int" >       12       10       17       64       73 </v>
   <v type="int" >       12        9       10       17       64 </v>
   <v type="int" >       12       28       29       35       74 </v>
   <v type="int" >       12       28       29       66       74 </v>
   <v type="int" >       12       28       65       66       74 </v>
   <v type="int" >       12       29       35       36       75 </v>
   <v type="int" >       12       29       30       36       75 </v>
   <v type="int" >       12       29       30       67       75 </v>
   <v type="int" >       12       29       35       74       75 </v>
   <v type="int" >       12       29       66       74       75 </v>
   <v type="int" >       12       29       66       67       75 </v>
   <v type="int" >       12       30       36       37       76 </v>
   <v type="int" >       12       30       31       37       76 </v>
   <v type="int" >       12       30       31       68       76 </v>
   <v type="int" >       12       30       36       75       76 </v>
   <v type="int" >       12       30       67       75       76 </v>
   <v type="int" >       12       30       67       68       76 </v>
   <v type="int" >       12       31       37       38       77 </v>
   <v type="int" >       12       31       32       38       77 </v>
   <v type="int" >       12       31       32       69       77 </v>
   <v type="int" >       12       31       37       76       77 </v>
   <v type="int" >       12       31       68       76       77 </v>
   <v type="int" >       12       31       68       69       77 </v>
   <v type="int" >       12       32       38       39       78 </v>
   <v type="int" >       12       32       33       39       78 </v>
   <v type="int" >       12       32       33       70       78 </v>
   <v type="int" >       12       32       38       77       78 </v>
   <v type="int" >       12       32       69       77       78 </v>
   <v type="int" >       12       32       69       70       78 </v>
   <v type="int" >       12       33       33       39       79 </v>
   <v type="int" >       12       33       33       34       79 </v>
   <v type="int" >       12       33       34       71       79 </v>
   <v type="int" >       12       33       39       78       79 </v>
   <v type="int" >       12       33       70       78       79 </v>
   <v type="int" >       12       33       70       71       79 </v>
   <v type="int" >       12       25       33       34       80 </v>
   <v type="int" >       12       25       26       34       80 </v>
   <v type="int" >       12       26       34       72       80 </v>
   <v type="int" >       12       33       34       79       80 </v>
   <v type="int" >       12       34       71       79       80 </v>
   <v type="int" >       12       34       71       72       80 </v>
   <v type="int" >       12       15       25       26       81 </v>
   <v type="int" >       12       15       16       26       81 </v>
   <v type="int" >       12       16       26       73       81 </v>
   <v type="int" >       12       25       26       80       81 </v>
   <v type="int" >       12       26       72       80       81 </v>
   <v type="int" >       12       26       72       73       81 </v>
   <v type="int" >       12        5       11       15       16 </v>
   <v type="int" >       12        4        5       11       16 </v>
   <v type="int" >       12        4       10       11       16 </v>
   <v type="int" >       12       11       15       16       81 </v>
   <v type="int" >       12       11       16       73       81 </v>
   <v type="int" >       12       10       11       16       73 </v>
   <v type="int" >       12       35       36       40       82 </v>
   <v type="int" >       12       35       36       75       82 </v>
   <v type="int" >       12       35       74       75       82 </v>
   <v type="int" >       12       36       40       41       83 </v>
   <v type="int" >       12       36       37       41       83 </v>
   <v type="int" >       12       36       37       76       83 </v>
   <v type="int" >       12       36       40       82       83 </v>
   <v type="int" >       12       36       75       82       83 </v>
   <v type="int" >       12       36       75       76       83 </v>
   <v type="int" >       12       37       41       42       84 </v>
   <v type="int" >       12       37       38       42       84 </v>
   <v type="int" >       12       37       38       77       84 </v>
   <v type="int" >       12       37       41       83       84 </v>
   <v type="int" >       12       37       76       83       84 </v>
   <v type="int" >       12       37       76       77       84 </v>
   <v type="int" >       12       38       38       42       85 </v>
   <v type="int" >       12       38       38       39       85 </v>
   <v type="int" >       12       38       39       78       85 </v>
   <v type="int" >       12       38       42       84       85 </v>
   <v type="int" >       12       38       77       84       85 </v>
   <v type="int" >       12       38       77       78       85 </v>
   <v type="int" >       12       32       38       39       86 </v>
   <v type="int" >       12       32       33       39       86 </v>
   <v type="int" >       12       33       39       79       86 </v>
   <v type="int" >       12       38       39       85       86 </v>
   <v type="int" >       12       39       78       85       86 </v>
   <v type="int" >       12       39       78       79       86 </v>
   <v type="int" >       12       24       32       33       87 </v>
   <v type="int" >       12       24       25       33       87 </v>
   <v type="int" >       12       25       33       80       87 </v>
   <v type="int" >       12       32       33       86       87 </v>
   <v type="int" >       12       33       79       86       87 </v>
   <v type="int" >       12       33       79       80       87 </v>
   <v type="int" >       12       14       24       25       88 </v>
   <v type="int" >       12       14       15       25       88 </v>
   <v type="int" >       12       15       25       81       88 </v>
   <v type="int" >       12       24       25       87       88 </v>
   <v type="int" >       12       25       80       87       88 </v>
   <v type="int" >       12       25       80       81       88 </v>
   <v type="int" >       12        6       12       14       15 </v>
   <v type="int" >       12        5        6       12       15 </v>
   <v type="int" >       12        5       11       12       15 </v>
   <v type="int" >       12       12       14       15       88 </v>
   <v type="int" >       12       12       15       81       88 </v>
   <v type="int" >       12       11       12       15       81 </v>
   <v type="int" >       12       40       41       43       89 </v>
   <v type="int" >       12       40       41       83       89 </v>
   <v type="int" >       12       40       82       83       89 </v>
   <v type="int" >       12       41       41       43       90 </v>
   <v type="int" >       12       41       41       42       90 </v>
   <v type="int" >       12       41       42       84       90 </v>
   <v type="int" >       12       41       43       89       90 </v>
   <v type="int" >       12       41       83       89       90 </v>
   <v type="int" >       12       41       83       84       90 </v>
   <v type="int" >       12       37       41       42       91 </v>
   <v type="int" >       12       37       38       42       91 </v>
   <v type="int" >       12       38       42       85       91 </v>
   <v type="int" >       12       41       42       90       91 </v>
   <v type="int" >       12       42       84       90       91 </v>
   <v type="int" >       12       42       84       85       91 </v>
   <v type="int" >       12       31       37       38       92 </v>
   <v type="int" >       12       31       32       38       92 </v>
   <v type="int" >       12       32       38       86       92 </v>
   <v type="int" >       12       37       38       91       92 </v>
   <v type="int" >       12       38       85       91       92 </v>
   <v type="int" >       12       38       85       86       92 </v>
   <v type="int" >       12       23       31       32       93 </v>
   <v type="int" >       12       23       24       32       93 </v>
   <v type="int" >       12       24       32       87       93 </v>
   <v type="int" >       12       31       32       92       93 </v>
   <v type="int" >       12       32       86       92       93 </v>
   <v type="int" >       12       32       86       87       93 </v>
   <v type="int" >       12       13       23       24       94 </v>
   <v type="int" >       12       13       14       24       94 </v>
   <v type="int" >       12       14       24       88       94 </v>
   <v type="int" >       12       23       24       93       94 </v>
   <v type="int" >       12       24       87       93       94 </v>
   <v type="int" >       12       24       87       88       94 </v>
   <v type="int" >       12        7       13       13       14 </v>
   <v type="int" >       12        6        7       13       14 </v>
   <v type="int" >       12        6       12       13       14 </v>
   <v type="int" >       12       13       13       14       94 </v>
   <v type="int" >       12       13       14       88       94 </v>
   <v type="int" >       12       12       13       14       88 </v>
   <v type="int" >       12       40       41       43       95 </v>
   <v type="int" >       12       41       43       90       95 </v>
   <v type="int" >       12       43       89       90       95 </v>
   <v type="int" >       12       36       40       41       96 </v>
   <v type="int" >       12       36       37       41       96 </v>
   <v type="int" >       12       37       41       91       96 </v>
   <v type="int" >       12       40       41       95       96 </v>
   <v type="int" >       12       41       90       95       96 </v>
   <v type="int" >       12       41       90       91       96 </v>
   <v type="int" >       12       30       36       37       97 </v>
   <v type="int" >       12       30       31       37       97 </v>
   <v type="int" >       12       31       37       92       97 </v>
   <v type="int" >       12       36       37       96       97 </v>
   <v type="int" >       12       37       91       96       97 </v>
   <v type="int" >       12       37       91       92       97 </v>
   <v type="int" >       12       22       30       31       98 </v>
   <v type="int" >       12       22       23       31       98 </v>
   <v type="int" >       12       23       31       93       98 </v>
   <v type="int" >       12       30       31       97       98 </v>
   <v type="int" >       12       31       92       97       98 </v>
   <v type="int" >       12       31       92       93       98 </v>
   <v type="int" >       12       12       22       23       88 </v>
   <v type="int" >       12       12       13       23       88 </v>
   <v type="int" >       12       13       23       88       94 </v>
   <v type="int" >       12       22       23       88       98 </v>
   <v type="int" >       12       23       88       93       98 </v>
   <v type="int" >       12       23       88       93       94 </v>
   <v type="int" >       12       35       36       40       99 </v>
   <v type="int" >       12       36       40       96       99 </v>
   <v type="int" >       12       40       95       96       99 </v>
   <v type="int" >       12       29       35       36      100 </v>
   <v type="int" >       12       29       30       36      100 </v>
   <v type="int" >       12       30       36       97      100 </v>
   <v type="int" >       12       35       36       99      100 </v>
   <v type="int" >       12       36       96       99      100 </v>
   <v type="int" >       12       36       96       97      100 </v>
   <v type="int" >       12       21       29       30      101 </v>
   <v type="int" >       12       21       22       30      101 </v>
   <v type="int" >       12       22       30       98      101 </v>
   <v type="int" >       12       29       30      100      101 </v>
   <v type="int" >       12       30       97      100      101 </v>
   <v type="int" >       12       30       97       98      101 </v>
   <v type="int" >       12       11       21       22       81 </v>
   <v type="int" >       12       11       12       22       81 </v>
   <v type="int" >       12       12       22       81       88 </v>
   <v type="int" >       12       21       22       81      101 </v>
   <v type="int" >       12       22       81       98      101 </v>
   <v type="int" >       12       22       81       88       98 </v>
   <v type="int" >       12       28       29       35      102 </v>
   <v type="int" >       12       29       35      100      102 </v>
   <v type="int" >       12       35       99      100      102 </v>
   <v type="int" >       12       20       28       29      103 </v>
   <v type="int" >       12       20       21       29      103 </v>
   <v type="int" >       12       21       29      101      103 </v>
   <v type="int" >       12       28       29      102      103 </v>
   <v type="int" >       12       29      100      102      103 </v>
   <v type="int" >       12       29      100      101      103 </v>
   <v type="int" >       12       10       20       21       73 </v>
   <v type="int" >       12       10       11       21       73 </v>
   <v type="int" >       12       11       21       73       81 </v>
   <v type="int" >       12       20       21       73      103 </v>
   <v type="int" >       12       21       73      101      103 </v>
   <v type="int" >       12       21       73       81      101 </v>
   <v type="int" >       12       19       20       28      104 </v>
   <v type="int" >       12       20       28      103      104 </v>
   <v type="int" >       12       28      102      103      104 </v>
   <v type="int" >       12        9       19       20       64 </v>
   <v type="int" >       12        9       10       20       64 </v>
   <v type="int" >       12       10       20       64       73 </v>
   <v type="int" >       12       19       20       64      104 </v>
   <v type="int" >       12       20       64      103      104 </v>
   <v type="int" >       12       20       64       73      103 </v>
   <v type="int" >       12        8        9       19       54 </v>
   <v type="int" >       12        9       19       54       64 </v>
   <v type="int" >       12       19       54       64      104 </v>
   <v type="int" >       12       44       45       55      105 </v>
   <v type="int" >       12       45       55       56      106 </v>
   <v type="int" >       12       45       46       56      106 </v>
   <v type="int" >       12       45       55      105      106 </v>
   <v type="int" >       12       46       56       57      107 </v>
   <v type="int" >       12       46       47       57      107 </v>
   <v type="int" >       12       46       56      106      107 </v>
   <v type="int" >       12       47       57       58      108 </v>
   <v type="int" >       12       47       48       58      108 </v>
   <v type="int" >       12       47       57      107      108 </v>
   <v type="int" >       12       48       58       59      109 </v>
   <v type="int" >       12       48       49       59      109 </v>
   <v type="int" >       12       48       58      108      109 </v>
   <v type="int" >       12       49       59       60      110 </v>
   <v type="int" >       12       49       50       60      110 </v>
   <v type="int" >       12       49       59      109      110 </v>
   <v type="int" >       12       50       60       61      111 </v>
   <v type="int" >       12       50       51       61      111 </v>
   <v type="int" >       12       50       60      110      111 </v>
   <v type="int" >       12       51       61       62      112 </v>
   <v type="int" >       12       51       52       62      112 </v>
   <v type="int" >       12       51       61      111      112 </v>
   <v type="int" >       12       52       62       63      113 </v>
   <v type="int" >       12       52       53       63      113 </v>
   <v type="int" >       12       52       62      112      113 </v>
   <v type="int" >       12       53       63       64      104 </v>
   <v type="int" >       12       53       54       64      104 </v>
   <v type="int" >       12       53       63      104      113 </v>
   <v type="int" >       12       55       56       65      114 </v>
   <v type="int" >       12       55       56      106      114 </v>
   <v type="int" >       12       55      105      106      114 </v>
   <v type="int" >       12       56       65       66      115 </v>
   <v type="int" >       12       56       57       66      115 </v>
   <v type="int" >       12       56       57      107      115 </v>
   <v type="int" >       12       56       65      114      115 </v>
   <v type="int" >       12       56      106      114      115 </v>
   <v type="int" >       12       56      106      107      115 </v>
   <v type="int" >       12       57       66       67      116 </v>
   <v type="int" >       12       57       58       67      116 </v>
   <v type="int" >       12       57       58      108      116 </v>
   <v type="int" >       12       57       66      115      116 </v>
   <v type="int" >       12       57      107      115      116 </v>
   <v type="int" >       12       57      107      108      116 </v>
   <v type="int" >       12       58       67       68      117 </v>
   <v type="int" >       12       58       59       68      117 </v>
   <v type="int" >       12       58       59      109      117 </v>
   <v type="int" >       12       58       67      116      117 </v>
   <v type="int" >       12       58      108      116      117 </v>
   <v type="int" >       12       58      108      109      117 </v>
   <v type="int" >       12       59       68       69      118 </v>
   <v type="int" >       12       59       60       69      118 </v>
   <v type="int" >       12       59       60      110      118 </v>
   <v type="int" >       12       59       68      117      118 </v>
   <v type="int" >       12       59      109      117      118 </v>
   <v type="int" >       12       59      109      110      118 </v>
   <v type="int" >       12       60       69       70      119 </v>
   <v type="int" >       12       60       61       70      119 </v>
   <v type="int" >       12       60       61      111      119 </v>
   <v type="int" >       12       60       69      118      119 </v>
   <v type="int" >       12       60      110      118      119 </v>
   <v type="int" >       12       60      110      111      119 </v>
   <v type="int" >       12       61       70       71      120 </v>
   <v type="int" >       12       61       62       71      120 </v>
   <v type="int" >       12       61       62      112      120 </v>
   <v type="int" >       12       61       70      119      120 </v>
   <v type="int" >       12       61      111      119      120 </v>
   <v type="int" >       12       61      111      112      120 </v>
   <v type="int" >       12       62       71       72      121 </v>
   <v type="int" >       12       62       63       72      121 </v>
   <v type="int" >       12       62       63      113      121 </v>
   <v type="int" >       12       62       71      120      121 </v>
   <v type="int" >       12       62      112      120      121 </v>
   <v type="int" >       12       62      112      113      121 </v>
   <v type="int" >       12       63       72       73      103 </v>
   <v type="int" >       12       63       64       73      103 </v>
   <v type="int" >       12       63       64      103      104 </v>
   <v type="int" >       12       63       72      103      121 </v>
   <v type="int" >       12       63      103      113      121 </v>
   <v type="int" >       12       63      103      104      113 </v>
   <v type="int" >       12       65       66       74      122 </v>
   <v type="int" >       12       65       66      115      122 </v>
   <v type="int" >       12       65      114      115      122 </v>
   <v type="int" >       12       66       74       75      123 </v>
   <v type="int" >       12       66       67       75      123 </v>
   <v type="int" >       12       66       67      116      123 </v>
   <v type="int" >       12       66       74      122      123 </v>
   <v type="int" >       12       66      115      122      123 </v>
   <v type="int" >       12       66      115      116      123 </v>
   <v type="int" >       12       67       75       76      124 </v>
   <v type="int" >       12       67       68       76      124 </v>
   <v type="int" >       12       67       68      117      124 </v>
   <v type="int" >       12       67       75      123      124 </v>
   <v type="int" >       12       67      116      123      124 </v>
   <v type="int" >       12       67      116      117      124 </v>
   <v type="int" >       12       68       76       77      125 </v>
   <v type="int" >       12       68       69       77      125 </v>
   <v type="int" >       12       68       69      118      125 </v>
   <v type="int" >       12       68       76      124      125 </v>
   <v type="int" >       12       68      117      124      125 </v>
   <v type="int" >       12       68      117      118      125 </v>
   <v type="int" >       12       69       77       78      126 </v>
   <v type="int" >       12       69       70       78      126 </v>
   <v type="int" >       12       69       70      119      126 </v>
   <v type="int" >       12       69       77      125      126 </v>
   <v type="int" >       12       69      118      125      126 </v>
   <v type="int" >       12       69      118      119      126 </v>
   <v type="int" >       12       70       78       79      127 </v>
   <v type="int" >       12       70       71       79      127 </v>
   <v type="int" >       12       70       71      120      127 </v>
   <v type="int" >       12       70       78      126      127 </v>
   <v type="int" >       12       70      119      126      127 </v>
   <v type="int" >       12       70      119      120      127 </v>
   <v type="int" >       12       71       79       80      128 </v>
   <v type="int" >       12       71       72       80      128 </v>
   <v type="int" >       12       71       72      121      128 </v>
   <v type="int" >       12       71       79      127      128 </v>
   <v type="int" >       12       71      120      127      128 </v>
   <v type="int" >       12       71      120      121      128 </v>
   <v type="int" >       12       72       80       81      101 </v>
   <v type="int" >       12       72       73       81      101 </v>
   <v type="int" >       12       72       73      101      103 </v>
   <v type="int" >       12       72       80      101      128 </v>
   <v type="int" >       12       72      101      121      128 </v>
   <v type="int" >       12       72      101      103      121 </v>
   <v type="int" >       12       74       75       82      129 </v>
   <v type="int" >       12       74       75      123      129 </v>
   <v type="int" >       12       74      122      123      129 </v>
   <v type="int" >       12       75       82       83      130 </v>
   <v type="int" >       12       75       76       83      130 </v>
   <v type="int" >       12       75       76      124      130 </v>
   <v type="int" >       12       75       82      129      130 </v>
   <v type="int" >       12       75      123      129      130 </v>
   <v type="int" >       12       75      123      124      130 </v>
   <v type="int" >       12       76       83       84      131 </v>
   <v type="int" >       12       76       77       84      131 </v>
   <v type="int" >       12       76       77      125      131 </v>
   <v type="int" >       12       76       83      130      131 </v>
   <v type="int" >       12       76      124      130      131 </v>
   <v type="int" >       12       76      124      125      131 </v>
   <v type="int" >       12       77       84       85      132 </v>
   <v type="int" >       12       77       78       85      132 </v>
   <v type="int" >       12       77       78      126      132 </v>
   <v type="int" >       12       77       84      131      132 </v>
   <v type="int" >       12       77      125      131      132 </v>
   <v type="int" >       12       77      125      126      132 </v>
   <v type="int" >       12       78       85       86      133 </v>
   <v type="int" >       12       78       79       86      133 </v>
   <v type="int" >       12       78       79      127      133 </v>
   <v type="int" >       12       78       85      132      133 </v>
   <v type="int" >       12       78      126      132      133 </v>
   <v type="int" >       12       78      126      127      133 </v>
   <v type="int" >       12       79       86       87      134 </v>
   <v type="int" >       12       79       80       87      134 </v>
   <v type="int" >       12       79       80      128      134 </v>
   <v type="int" >       12       79       86      133      134 </v>
   <v type="int" >       12       79      127      133      134 </v>
   <v type="int" >       12       79      127      128      134 </v>
   <v type="int" >       12       80       87       88       98 </v>
   <v type="int" >       12       80       81       88       98 </v>
   <v type="int" >       12       80       81       98      101 </v>
   <v type="int" >       12       80       87       98      134 </v>
   <v type="int" >       12       80       98      128      134 </v>
   <v type="int" >       12       80       98      101      128 </v>
   <v type="int" >       12       82       83       89      135 </v>
   <v type="int" >       12       82       83      130      135 </v>
   <v type="int" >       12       82      129      130      135 </v>
   <v type="int" >       12       83       89       90      136 </v>
   <v type="int" >       12       83       84       90      136 </v>
   <v type="int" >       12       83       84      131      136 </v>
   <v type="int" >       12       83       89      135      136 </v>
   <v type="int" >       12       83      130      135      136 </v>
   <v type="int" >       12       83      130      131      136 </v>
   <v type="int" >       12       84       90       91      137 </v>
   <v type="int" >       12       84       85       91      137 </v>
   <v type="int" >       12       84       85      132      137 </v>
   <v type="int" >       12       84       90      136      137 </v>
   <v type="int" >       12       84      131      136      137 </v>
   <v type="int" >       12       84      131      132      137 </v>
   <v type="int" >       12       85       91       92      138 </v>
   <v type="int" >       12       85       86       92      138 </v>
   <v type="int" >       12       85       86      133      138 </v>
   <v type="int" >       12       85       91      137      138 </v>
   <v type="int" >       12       85      132      137      138 </v>
   <v type="int" >       12       85      132      133      138 </v>
   <v type="int" >       12       86       92       93      139 </v>
   <v type="int" >       12       86       87       93      139 </v>
   <v type="int" >       12       86       87      134      139 </v>
   <v type="int" >       12       86       92      138      139 </v>
   <v type="int" >       12       86      133      138      139 </v>
   <v type="int" >       12       86      133      134      139 </v>
   <v type="int" >       12       87       93       93       94 </v>
   <v type="int" >       12       87       88       93       94 </v>
   <v type="int" >       12       87       88       93       98 </v>
   <v type="int" >       12       87       93       93      139 </v>
   <v type="int" >       12       87       93      134      139 </v>
   <v type="int" >       12       87       93       98      134 </v>
   <v type="int" >       12       89       90       95      140 </v>
   <v type="int" >       12       89       90      136      140 </v>
   <v type="int" >       12       89      135      136      140 </v>
   <v type="int" >       12       90       95       96      141 </v>
   <v type="int" >       12       90       91       96      141 </v>
   <v type="int" >       12       90       91      137      141 </v>
   <v type="int" >       12       90       95      140      141 </v>
   <v type="int" >       12       90      136      140      141 </v>
   <v type="int" >       12       90      136      137      141 </v>
   <v type="int" >       12       91       96       97      142 </v>
   <v type="int" >       12       91       92       97      142 </v>
   <v type="int" >       12       91       92      138      142 </v>
   <v type="int" >       12       91       96      141      142 </v>
   <v type="int" >       12       91      137      141      142 </v>
   <v type="int" >       12       91      137      138      142 </v>
   <v type="int" >       12       92       97       98      134 </v>
   <v type="int" >       12       92       93       98      134 </v>
   <v type="int" >       12       92       93      134      139 </v>
   <v type="int" >       12       92       97      134      142 </v>
   <v type="int" >       12       92      134      138      142 </v>
   <v type="int" >       12       92      134      138      139 </v>
   <v type="int" >       12       95       96       99      143 </v>
   <v type="int" >       12       95       96      141      143 </v>
   <v type="int" >       12       95      140      141      143 </v>
   <v type="int" >       12       96       99      100      144 </v>
   <v type="int" >       12       96       97      100      144 </v>
   <v type="int" >       12       96       97      142      144 </v>
   <v type="int" >       12       96       99      143      144 </v>
   <v type="int" >       12       96      141      143      144 </v>
   <v type="int" >       12       96      141      142      144 </v>
   <v type="int" >       12       97      100      101      128 </v>
   <v type="int" >       12       97       98      101      128 </v>
   <v type="int" >       12       97       98      128      134 </v>
   <v type="int" >       12       97      100      128      144 </v>
   <v type="int" >       12       97      128      142      144 </v>
   <v type="int" >       12       97      128      134      142 </v>
   <v type="int" >       12       99      100      102      145 </v>
   <v type="int" >       12       99      100      144      145 </v>
   <v type="int" >       12       99      143      144      145 </v>
   <v type="int" >       12      100      102      103      121 </v>
   <v type="int" >       12      100      101      103      121 </v>
   <v type="int" >       12      100      101      121      128 </v>
   <v type="int" >       12      100      102      121      145 </v>
   <v type="int" >       12      100      121      144      145 </v>
   <v type="int" >       12      100      121      128      144 </v>
   <v type="int" >       12      102      103      104      113 </v>
   <v type="int" >       12      102      103      113      121 </v>
   <v type="int" >       12      102      113      121      145 </v>
   <v type="int" >       12      105      106      114      146 </v>
   <v type="int" >       12      106      114      115      147 </v>
   <v type="int" >       12      106      107      115      147 </v>
   <v type="int" >       12      106      114      146      147 </v>
   <v type="int" >       12      107      115      116      148 </v>
   <v type="int" >       12      107      108      116      148 </v>
   <v type="int" >       12      107      115      147      148 </v>
   <v type="int" >       12      108      116      117      149 </v>
   <v type="int" >       12      108      109      117      149 </v>
   <v type="int" >       12      108      116      148      149 </v>
   <v type="int" >       12      109      117      118      150 </v>
   <v type="int" >       12      109      110      118      150 </v>
   <v type="int" >       12      109      117      149      150 </v>
   <v type="int" >       12      110      118      119      151 </v>
   <v type="int" >       12      110      111      119      151 </v>
   <v type="int" >       12      110      118      150      151 </v>
   <v type="int" >       12      111      119      120      152 </v>
   <v type="int" >       12      111      112      120      152 </v>
   <v type="int" >       12      111      119      151      152 </v>
   <v type="int" >       12      112      120      121      145 </v>
   <v type="int" >       12      112      113      121      145 </v>
   <v type="int" >       12      112      120      145      152 </v>
   <v type="int" >       12      114      115      122      153 </v>
   <v type="int" >       12      114      115      147      153 </v>
   <v type="int" >       12      114      146      147      153 </v>
   <v type="int" >       12      115      122      123      154 </v>
   <v type="int" >       12      115      116      123      154 </v>
   <v type="int" >       12      115      116      148      154 </v>
   <v type="int" >       12      115      122      153      154 </v>
   <v type="int" >       12      115      147      153      154 </v>
   <v type="int" >       12      115      147      148      154 </v>
   <v type="int" >       12      116      123      124      155 </v>
   <v type="int" >       12      116      117      124      155 </v>
   <v type="int" >       12      116      117      149      155 </v>
   <v type="int" >       12      116      123      154      155 </v>
   <v type="int" >       12      116      148      154      155 </v>
   <v type="int" >       12      116      148      149      155 </v>
   <v type="int" >       12      117      124      125      156 </v>
   <v type="int" >       12      117      118      125      156 </v>
   <v type="int" >       12      117      118      150      156 </v>
   <v type="int" >       12      117      124      155      156 </v>
   <v type="int" >       12      117      149      155      156 </v>
   <v type="int" >       12      117      149      150      156 </v>
   <v type="int" >       12      118      125      126      157 </v>
   <v type="int" >       12      118      119      126      157 </v>
   <v type="int" >       12      118      119      151      157 </v>
   <v type="int" >       12      118      125      156      157 </v>
   <v type="int" >       12      118      150      156      157 </v>
   <v type="int" >       12      118      150      151      157 </v>
   <v type="int" >       12      119      126      127      158 </v>
   <v type="int" >       12      119      120      127      158 </v>
   <v type="int" >       12      119      120      152      158 </v>
   <v type="int" >       12      119      126      157      158 </v>
   <v type="int" >       12      119      151      157      158 </v>
   <v type="int" >       12      119      151      152      158 </v>
   <v type="int" >       12      120      127      128      144 </v>
   <v type="int" >       12      120      121      128      144 </v>
   <v type="int" >       12      120      121      144      145 </v>
   <v type="int" >       12      120      127      144      158 </v>
   <v type="int" >       12      120      144      152      158 </v>
   <v type="int" >       12      120      144      145      152 </v>
   <v type="int" >       12      122      123      129      159 </v>
   <v type="int" >       12      122      123      154      159 </v>
   <v type="int" >       12      122      153      154      159 </v>
   <v type="int" >       12      123      129      130      160 </v>
   <v type="int" >       12      123      124      130      160 </v>
   <v type="int" >       12      123      124      155      160 </v>
   <v type="int" >       12      123      129      159      160 </v>
   <v type="int" >       12      123      154      159      160 </v>
   <v type="int" >       12      123      154      155      160 </v>
   <v type="int" >       12      124      130      131      161 </v>
   <v type="int" >       12      124      125      131      161 </v>
   <v type="int" >       12      124      125      156      161 </v>
   <v type="int" >       12      124      130      160      161 </v>
   <v type="int" >       12      124      155      160      161 </v>
   <v type="int" >       12      124      155      156      161 </v>
   <v type="int" >       12      125      131      132      162 </v>
   <v type="int" >       12      125      126      132      162 </v>
   <v type="int" >       12      125      126      157      162 </v>
   <v type="int" >       12      125      131      161      162 </v>
   <v type="int" >       12      125      156      161      162 </v>
   <v type="int" >       12      125      156      157      162 </v>
   <v type="int" >       12      126      132      133      163 </v>
   <v type="int" >       12      126      127      133      163 </v>
   <v type="int" >       12      126      127      158      163 </v>
   <v type="int" >       12      126      132      162      163 </v>
   <v type="int" >       12      126      157      162      163 </v>
   <v type="int" >       12      126      157      158      163 </v>
   <v type="int" >       12      127      133      134      142 </v>
   <v type="int" >       12      127      128      134      142 </v>
   <v type="int" >       12      127      128      142      144 </v>
   <v type="int" >       12      127      133      142      163 </v>
   <v type="int" >       12      127      142      158      163 </v>
   <v type="int" >       12      127      142      144      158 </v>
   <v type="int" >       12      129      130      135      164 </v>
   <v type="int" >       12      129      130      160      164 </v>
   <v type="int" >       12      129      159      160      164 </v>
   <v type="int" >       12      130      135      136      165 </v>
   <v type="int" >       12      130      131      136      165 </v>
   <v type="int" >       12      130      131      161      165 </v>
   <v type="int" >       12      130      135      164      165 </v>
   <v type="int" >       12      130      160      164      165 </v>
   <v type="int" >       12      130      160      161      165 </v>
   <v type="int" >       12      131      136      137      166 </v>
   <v type="int" >       12      131      132      137      166 </v>
   <v type="int" >       12      131      132      162      166 </v>
   <v type="int" >       12      131      136      165      166 </v>
   <v type="int" >       12      131      161      165      166 </v>
   <v type="int" >       12      131      161      162      166 </v>
   <v type="int" >       12      132      137      138      167 </v>
   <v type="int" >       12      132      133      138      167 </v>
   <v type="int" >       12      132      133      163      167 </v>
   <v type="int" >       12      132      137      166      167 </v>
   <v type="int" >       12      132      162      166      167 </v>
   <v type="int" >       12      132      162      163      167 </v>
   <v type="int" >       12      133      138      138      139 </v>
   <v type="int" >       12      133      134      138      139 </v>
   <v type="int" >       12      133      134      138      142 </v>
   <v type="int" >       12      133      138      138      167 </v>
   <v type="int" >       12      133      138      163      167 </v>
   <v type="int" >       12      133      138      142      163 </v>
   <v type="int" >       12      135      136      140      168 </v>
   <v type="int" >       12      135      136      165      168 </v>
   <v type="int" >       12      135      164      165      168 </v>
   <v type="int" >       12      136      140      141      169 </v>
   <v type="int" >       12      136      137      141      169 </v>
   <v type="int" >       12      136      137      166      169 </v>
   <v type="int" >       12      136      140      168      169 </v>
   <v type="int" >       12      136      165      168      169 </v>
   <v type="int" >       12      136      165      166      169 </v>
   <v type="int" >       12      137      141      142      163 </v>
   <v type="int" >       12      137      138      142      163 </v>
   <v type="int" >       12      137      138      163      167 </v>
   <v type="int" >       12      137      141      163      169 </v>
   <v type="int" >       12      137      163      166      169 </v>
   <v type="int" >       12      137      163      166      167 </v>
   <v type="int" >       12      140      141      143      170 </v>
   <v type="int" >       12      140      141      169      170 </v>
   <v type="int" >       12      140      168      169      170 </v>
   <v type="int" >       12      141      143      144      158 </v>
   <v type="int" >       12      141      142      144      158 </v>
   <v type="int" >       12      141      142      158      163 </v>
   <v type="int" >       12      141      143      158      170 </v>
   <v type="int" >       12      141      158      169      170 </v>
   <v type="int" >       12      141      158      163      169 </v>
   <v type="int" >       12      143      144      145      152 </v>
   <v type="int" >       12      143      144      152      158 </v>
   <v type="int" >       12      143      152      158      170 </v>
   <v type="int" >       12      146      147      153      171 </v>
   <v type="int" >       12      147      153      154      172 </v>
   <v type="int" >       12      147      148      154      172 </v>
   <v type="int" >       12      147      153      171      172 </v>
   <v type="int" >       12      148      154      155      173 </v>
   <v type="int" >       12      148      149      155      173 </v>
   <v type="int" >       12      148      154      172      173 </v>
   <v type="int" >       12      149      155      156      174 </v>
   <v type="int" >       12      149      150      156      174 </v>
   <v type="int" >       12      149      155      173      174 </v>
   <v type="int" >       12      150      156      157      175 </v>
   <v type="int" >       12      150      151      157      175 </v>
   <v type="int" >       12      150      156      174      175 </v>
   <v type="int" >       12      151      157      158      170 </v>
   <v type="int" >       12      151      152      158      170 </v>
   <v type="int" >       12      151      157      170      175 </v>
   <v type="int" >       12      153      154      159      176 </v>
   <v type="int" >       12      153      154      172      176 </v>
   <v type="int" >       12      153      171      172      176 </v>
   <v type="int" >       12      154      159      160      177 </v>
   <v type="int" >       12      154      155      160      177 </v>
   <v type="int" >       12      154      155      173      177 </v>
   <v type="int" >       12      154      159      176      177 </v>
   <v type="int" >       12      154      172      176      177 </v>
   <v type="int" >       12      154      172      173      177 </v>
   <v type="int" >       12      155      160      161      178 </v>
   <v type="int" >       12      155      156      161      178 </v>
   <v type="int" >       12      155      156      174      178 </v>
   <v type="int" >       12      155      160      177      178 </v>
   <v type="int" >       12      155      173      177      178 </v>
   <v type="int" >       12      155      173      174      178 </v>
   <v type="int" >       12      156      161      162      179 </v>
   <v type="int" >       12      156      157      162      179 </v>
   <v type="int" >       12      156      157      175      179 </v>
   <v type="int" >       12      156      161      178      179 </v>
   <v type="int" >       12      156      174      178      179 </v>
   <v type="int" >       12      156      174      175      179 </v>
   <v type="int" >       12      157      162      163      169 </v>
   <v type="int" >       12      157      158      163      169 </v>
   <v type="int" >       12      157      158      169      170 </v>
   <v type="int" >       12      157      162      169      179 </v>
   <v type="int" >       12      157      169      175      179 </v>
   <v type="int" >       12      157      169      170      175 </v>
   <v type="int" >       12      159      160      164      180 </v>
   <v type="int" >       12      159      160      177      180 </v>
   <v type="int" >       12      159      176      177      180 </v>
   <v type="int" >       12      160      164      165      181 </v>
   <v type="int" >       12      160      161      165      181 </v>
   <v type="int" >       12      160      161      178      181 </v>
   <v type="int" >       12      160      164      180      181 </v>
   <v type="int" >       12      160      177      180      181 </v>
   <v type="int" >       12      160      177      178      181 </v>
   <v type="int" >       12      161      165      166      182 </v>
   <v type="int" >       12      161      162      166      182 </v>
   <v type="int" >       12      161      162      179      182 </v>
   <v type="int" >       12      161      165      181      182 </v>
   <v type="int" >       12      161      178      181      182 </v>
   <v type="int" >       12      161      178      179      182 </v>
   <v type="int" >       12      162      166      166      167 </v>
   <v type="int" >       12      162      163      166      167 </v>
   <v type="int" >       12      162      163      166      169 </v>
   <v type="int" >       12      162      166      166      182 </v>
   <v type="int" >       12      162      166      179      182 </v>
   <v type="int" >       12      162      166      169      179 </v>
   <v type="int" >       12      164      165      168      183 </v>
   <v type="int" >       12      164      165      181      183 </v>
   <v type="int" >       12      164      180      181      183 </v>
   <v type="int" >       12      165      168      169      179 </v>
   <v type="int" >       12      165      166      169      179 </v>
   <v type="int" >       12      165      166      179      182 </v>
   <v type="int" >       12      165      168      179      183 </v>
   <v type="int" >       12      165      179      181      183 </v>
   <v type="int" >       12      165      179      181      182 </v>
   <v type="int" >       12      168      169      170      175 </v>
   <v type="int" >       12      168      169      175      179 </v>
   <v type="int" >       12      168      175      179      183 </v>
   <v type="int" >       12      171      172      176      184 </v>
   <v type="int" >       12      172      176      177      185 </v>
   <v type="int" >       12      172      173      177      185 </v>
   <v type="int" >       12      172      176      184      185 </v>
   <v type="int" >       12      173      177      178      186 </v>
   <v type="int" >       12      173      174      178      186 </v>
   <v type="int" >       12      173      177      185      186 </v>
   <v type="int" >       12      174      178      179      183 </v>
   <v type="int" >       12      174      175      179      183 </v>
   <v type="int" >       12      174      178      183      186 </v>
   <v type="int" >       12      176      177      180      187 </v>
   <v type="int" >       12      176      177      185      187 </v>
   <v type="int" >       12      176      184      185      187 </v>
   <v type="int" >       12      177      180      181      188 </v>
   <v type="int" >       12      177      178      181      188 </v>
   <v type="int" >       12      177      178      186      188 </v>
   <v type="int" >       12      177      180      187      188 </v>
   <v type="int" >       12      177      185      187      188 </v>
   <v type="int" >       12      177      185      186      188 </v>
   <v type="int" >       12      178      181      181      182 </v>
   <v type="int" >       12      178      179      181      182 </v>
   <v type="int" >       12      178      179      181      183 </v>
   <v type="int" >       12      178      181      181      188 </v>
   <v type="int" >       12      178      181      186      188 </v>
   <v type="int" >       12      178      181      183      186 </v>
   <v type="int" >       12      180      181      183      186 </v>
   <v type="int" >       12      180      181      186      188 </v>
   <v type="int" >       12      180      186      187      188 </v>
   <v type="int" >       12      184      185      187      189 </v>
   <v type="int" >       12      185      187      187      188 </v>
   <v type="int" >       12      185      186      187      188 </v>
   <v type="int" >       12      185      187      187      189 </v>
  </varray>
  <i name="volumeweight">      0.00009645 </i>
 </kpoints>
 <parameters>
  <separator name="general" >
   <i type="string" name="SYSTEM">unknown system</i>
   <i type="logical" name="LCOMPAT"> F  </i>
  </separator>
  <separator name="electronic" >
   <i type="string" name="PREC">accura</i>
   <i name="ENMAX">    400.00000000</i>
   <i name="ENAUG">    644.87300000</i>
   <i name="EDIFF">      0.00000100</i>
   <i type="int" name="IALGO">    38</i>
   <i type="int" name="IWAVPR">    10</i>
   <i type="int" name="NBANDS">    24</i>
   <i name="NELECT">     32.00000000</i>
   <i type="int" name="TURBO">     0</i>
[...]
       <r>   -6.0026    1.0000 </r>
       <r>   -6.0026    1.0000 </r>
       <r>   -3.3046    1.0000 </r>
       <r>   -3.2907    1.0000 </r>
       <r>   -3.2907    1.0000 </r>
       <r>   -2.1809    1.0000 </r>
       <r>    5.9927    1.0000 </r>
       <r>    5.9927    1.0000 </r>
       <r>    6.3223    1.0000 </r>
       <r>    6.3223    1.0000 </r>
       <r>    6.3339    1.0000 </r>
       <r>    6.6523    1.0000 </r>
       <r>    6.7433    1.0000 </r>
       <r>    6.8099    1.0000 </r>
       <r>   17.2026    0.0000 </r>
       <r>   17.2026    0.0000 </r>
       <r>   17.2170    0.0000 </r>
       <r>   17.7152    0.0000 </r>
       <r>   18.0802    0.0000 </r>
       <r>   18.1211    0.0000 </r>
       <r>   18.3444    0.0000 </r>
       <r>   18.3446    0.0000 </r>
      </set>
      <set comment="kpoint 187">
       <r>   -6.6008    1.0000 </r>
       <r>   -6.1191    1.0000 </r>
       <r>   -6.0999    1.0000 </r>
       <r>   -6.0999    1.0000 </r>
       <r>   -3.4254    1.0000 </r>
       <r>   -3.4254    1.0000 </r>
       <r>   -3.4227    1.0000 </r>
       <r>   -3.4056    1.0000 </r>
       <r>    6.4114    1.0000 </r>
       <r>    6.4114    1.0000 </r>
       <r>    6.4542    1.0000 </r>
       <r>    6.6085    1.0000 </r>
       <r>    6.6670    1.0000 </r>
       <r>    6.6670    1.0000 </r>
       <r>    6.7751    1.0000 </r>
       <r>    6.9813    1.0000 </r>
       <r>   17.2825    0.0000 </r>
       <r>   17.2825    0.0000 </r>
       <r>   17.3967    0.0000 </r>
       <r>   18.0365    0.0000 </r>
       <r>   18.1284    0.0000 </r>
       <r>   18.1317    0.0000 </r>
       <r>   18.1362    0.0000 </r>
       <r>   18.1439    0.0000 </r>
      </set>
      <set comment="kpoint 188">
       <r>   -6.5714    1.0000 </r>
       <r>   -6.5714    1.0000 </r>
       <r>   -6.3737    1.0000 </r>
       <r>   -5.8251    1.0000 </r>
       <r>   -3.5773    1.0000 </r>
       <r>   -3.5272    1.0000 </r>
       <r>   -2.8454    1.0000 </r>
       <r>   -2.8454    1.0000 </r>
       <r>    6.0401    1.0000 </r>
       <r>    6.4320    1.0000 </r>
       <r>    6.4945    1.0000 </r>
       <r>    6.5374    1.0000 </r>
       <r>    6.5374    1.0000 </r>
       <r>    6.6031    1.0000 </r>
       <r>    6.6031    1.0000 </r>
       <r>    6.7738    1.0000 </r>
       <r>   17.2794    0.0000 </r>
       <r>   17.2794    0.0000 </r>
       <r>   17.3526    0.0000 </r>
       <r>   17.9482    0.0000 </r>
       <r>   17.9586    0.0000 </r>
       <r>   18.1227    0.0000 </r>
       <r>   18.1251    0.0000 </r>
       <r>   18.3132    0.0000 </r>
      </set>
      <set comment="kpoint 189">
       <r>   -6.4890    1.0000 </r>
       <r>   -5.9397    1.0000 </r>
       <r>   -5.9397    1.0000 </r>
       <r>   -5.9397    1.0000 </r>
       <r>   -3.6952    1.0000 </r>
       <r>   -3.6952    1.0000 </r>
       <r>   -3.6952    1.0000 </r>
       <r>   -3.6478    1.0000 </r>
       <r>    6.6168    1.0000 </r>
       <r>    6.6168    1.0000 </r>
       <r>    6.6168    1.0000 </r>
       <r>    6.6947    1.0000 </r>
       <r>    6.6947    1.0000 </r>
       <r>    6.6947    1.0000 </r>
       <r>    7.0017    1.0000 </r>
       <r>    7.0017    1.0000 </r>
       <r>   17.2420    0.0000 </r>
       <r>   17.2420    0.0000 </r>
       <r>   17.2420    0.0000 </r>
       <r>   18.0382    0.0000 </r>
       <r>   18.0385    0.0000 </r>
       <r>   18.1288    0.0000 </r>
       <r>   18.1289    0.0000 </r>
       <r>   18.1307    0.0000 </r>
      </set>
     </set>
    </set>
   </array>
  </eigenvalues>
  <separator name="orbital magnetization" >
   <v name="MAGDIPOLOUT">      0.00000000      0.00000000      0.00000000</v>
  </separator>
  <dos>
   <i name="efermi">      9.59029224 </i>
   <total>
    <array>
     <dimension dim="1">gridpoints</dimension>
     <dimension dim="2">spin</dimension>
     <field>energy</field>
     <field>total</field>
     <field>integrated</field>
     <set>
      <set comment="spin 1">
       <r>   -13.3942     0.0000     0.0000 </r>
       <r>   -13.2733     0.0000     0.0000 </r>
       <r>   -13.1524     0.0000     0.0000 </r>
       <r>   -13.0315     0.0000     0.0000 </r>
       <r>   -12.9107     0.0000     0.0000 </r>
       <r>   -12.7898     0.0000     0.0000 </r>
       <r>   -12.6689     0.0000     0.0000 </r>
       <r>   -12.5480     0.0000     0.0000 </r>
       <r>   -12.4271     0.0000     0.0000 </r>
       <r>   -12.3062     0.0000     0.0000 </r>
       <r>   -12.1853     0.0000     0.0000 </r>
       <r>   -12.0644     0.0000     0.0000 </r>
       <r>   -11.9435     0.0000     0.0000 </r>
       <r>   -11.8226     0.0000     0.0000 </r>
       <r>   -11.7017     0.0365     0.0005 </r>
       <r>   -11.5808     0.1566     0.0151 </r>
       <r>   -11.4600     0.2435     0.0393 </r>
       <r>   -11.3391     0.2762     0.0704 </r>
       <r>   -11.2182     0.3244     0.1067 </r>
       <r>   -11.0973     0.3641     0.1488 </r>
       <r>   -10.9764     0.3940     0.1946 </r>
       <r>   -10.8555     0.4258     0.2440 </r>
       <r>   -10.7346     0.4643     0.2978 </r>
       <r>   -10.6137     0.4875     0.3555 </r>
       <r>   -10.4928     0.5112     0.4159 </r>
       <r>   -10.3719     0.5376     0.4792 </r>
       <r>   -10.2510     0.5663     0.5459 </r>
       <r>   -10.1301     0.5934     0.6161 </r>
       <r>   -10.0093     0.6132     0.6890 </r>
       <r>    -9.8884     0.6352     0.7644 </r>
       <r>    -9.7675     0.6607     0.8427 </r>
       <r>    -9.6466     0.6882     0.9243 </r>
       <r>    -9.5257     0.7186     1.0093 </r>
       <r>    -9.4048     0.7273     1.0970 </r>
       <r>    -9.2839     0.7416     1.1861 </r>
       <r>    -9.1630     0.7595     1.2767 </r>
       <r>    -9.0421     0.7780     1.3696 </r>
       <r>    -8.9212     0.7991     1.4648 </r>
       <r>    -8.8003     0.8230     1.5630 </r>
       <r>    -8.6794     0.8434     1.6637 </r>
       <r>    -8.5586     0.8599     1.7666 </r>
       <r>    -8.4377     0.8836     1.8720 </r>
       <r>    -8.3168     0.9045     1.9801 </r>
       <r>    -8.1959     0.9242     2.0907 </r>
       <r>    -8.0750     0.9439     2.2036 </r>
       <r>    -7.9541     0.9611     2.3186 </r>
       <r>    -7.8332     1.0362     2.4382 </r>
       <r>    -7.7123     1.1151     2.5690 </r>
       <r>    -7.5914     1.1234     2.7048 </r>
       <r>    -7.4705     1.0938     2.8391 </r>
       <r>    -7.3496     1.0402     2.9685 </r>
       <r>    -7.2288     1.0369     3.0936 </r>
       <r>    -7.1079     1.0707     3.2203 </r>
       <r>    -6.9870     1.0917     3.3514 </r>
       <r>    -6.8661     1.1211     3.4844 </r>
       <r>    -6.7452     1.1998     3.6245 </r>
       <r>    -6.6243     1.2086     3.7696 </r>
       <r>    -6.5034     1.3094     3.9203 </r>
       <r>    -6.3825     1.3002     4.0777 </r>
       <r>    -6.2616     1.3797     4.2462 </r>
       <r>    -6.1407     1.4398     4.4161 </r>
       <r>    -6.0198     1.5658     4.5969 </r>
       <r>    -5.8989     1.5699     4.7880 </r>
       <r>    -5.7781     1.5272     4.9782 </r>
       <r>    -5.6572     1.3948     5.1538 </r>
       <r>    -5.5363     1.5097     5.3288 </r>
       <r>    -5.4154     1.4207     5.5027 </r>
       <r>    -5.2945     1.4557     5.6748 </r>
       <r>    -5.1736     1.3434     5.8448 </r>
       <r>    -5.0527     1.2810     6.0028 </r>
       <r>    -4.9318     1.2354     6.1551 </r>
       <r>    -4.8109     1.1898     6.3014 </r>
       <r>    -4.6900     1.1634     6.4437 </r>
       <r>    -4.5691     1.1178     6.5813 </r>
       <r>    -4.4482     1.0825     6.7149 </r>
       <r>    -4.3274     1.2270     6.8547 </r>
       <r>    -4.2065     1.0841     6.9886 </r>
       <r>    -4.0856     1.0062     7.1156 </r>
       <r>    -3.9647     0.9601     7.2344 </r>
       <r>    -3.8438     0.9154     7.3474 </r>
       <r>    -3.7229     0.8925     7.4570 </r>
       <r>    -3.6020     0.8673     7.5634 </r>
       <r>    -3.4811     1.0213     7.6775 </r>
       <r>    -3.3602     0.9586     7.7971 </r>
       <r>    -3.2393     1.1281     7.9202 </r>
       <r>    -3.1184     0.9263     8.0396 </r>
       <r>    -2.9975     0.9276     8.1489 </r>
       <r>    -2.8767     0.9591     8.2656 </r>
       <r>    -2.7558     0.9337     8.3805 </r>
       <r>    -2.6349     0.9344     8.4907 </r>
       <r>    -2.5140     1.0690     8.6115 </r>
       <r>    -2.3931     1.2750     8.7518 </r>
       <r>    -2.2722     1.5025     8.9178 </r>
       <r>    -2.1513     1.8387     9.1176 </r>
       <r>    -2.0304     2.2503     9.3635 </r>
       <r>    -1.9095     2.6948     9.6649 </r>
       <r>    -1.7886     2.4878     9.9877 </r>
       <r>    -1.6677     2.5859    10.2915 </r>
       <r>    -1.5468     2.0741    10.5776 </r>
       <r>    -1.4260     1.8274    10.8131 </r>
       <r>    -1.3051     1.7109    11.0268 </r>
       <r>    -1.1842     1.5885    11.2260 </r>
       <r>    -1.0633     1.4907    11.4118 </r>
       <r>    -0.9424     1.4196    11.5875 </r>
       <r>    -0.8215     1.3810    11.7562 </r>
       <r>    -0.7006     1.3526    11.9216 </r>
       <r>    -0.5797     1.3155    12.0827 </r>
       <r>    -0.4588     1.2530    12.2377 </r>
       <r>    -0.3379     1.1612    12.3955 </r>
       <r>    -0.2170     1.1065    12.5309 </r>
       <r>    -0.0961     1.0929    12.6637 </r>
       <r>     0.0247     1.0832    12.7953 </r>
       <r>     0.1456     1.0600    12.9251 </r>
       <r>     0.2665     0.9974    13.0506 </r>
       <r>     0.3874     1.0608    13.1701 </r>
       <r>     0.5083     1.4069    13.3193 </r>
       <r>     0.6292     1.7466    13.5104 </r>
       <r>     0.7501     1.9720    13.7368 </r>
       <r>     0.8710     2.1771    13.9995 </r>
       <r>     0.9919     2.2299    14.2678 </r>
       <r>     1.1128     2.1632    14.5322 </r>
       <r>     1.2337     2.2146    14.7983 </r>
       <r>     1.3546     2.2910    15.0701 </r>
       <r>     1.4754     2.1122    15.3409 </r>
       <r>     1.5963     1.4530    15.5567 </r>
       <r>     1.7172     1.4367    15.7291 </r>
       <r>     1.8381     1.6969    15.9224 </r>
       <r>     1.9590     2.0250    16.1453 </r>
       <r>     2.0799     2.3377    16.4124 </r>
       <r>     2.2008     2.4403    16.7051 </r>
       <r>     2.3217     2.4067    16.9956 </r>
       <r>     2.4426     2.2651    17.2771 </r>
       <r>     2.5635     2.3234    17.5531 </r>
       <r>     2.6844     2.5218    17.8430 </r>
       <r>     2.8053     2.7131    18.1654 </r>
       <r>     2.9261     2.8465    18.4989 </r>
       <r>     3.0470     3.2688    18.8762 </r>
       <r>     3.1679     2.3726    19.2047 </r>
       <r>     3.2888     2.9532    19.5119 </r>
       <r>     3.4097     2.7452    19.8468 </r>
       <r>     3.5306     2.6959    20.1696 </r>
       <r>     3.6515     3.3417    20.5320 </r>
       <r>     3.7724     3.7962    20.9606 </r>
       <r>     3.8933     3.5999    21.4187 </r>
       <r>     4.0142     3.2098    21.8224 </r>
       <r>     4.1351     2.9576    22.2039 </r>
       <r>     4.2560     2.7172    22.5413 </r>
       <r>     4.3768     2.8917    22.8802 </r>
       <r>     4.4977     2.9715    23.2346 </r>
       <r>     4.6186     2.8106    23.5826 </r>
       <r>     4.7395     2.9504    23.9294 </r>
       <r>     4.8604     2.9576    24.2876 </r>
       <r>     4.9813     3.0118    24.6462 </r>
       <r>     5.1022     3.0870    25.0167 </r>
       <r>     5.2231     3.0063    25.3888 </r>
       <r>     5.3440     2.9555    25.7467 </r>
       <r>     5.4649     2.5960    26.0808 </r>
       <r>     5.5858     2.3928    26.3725 </r>
       <r>     5.7066     2.5521    26.6691 </r>
       <r>     5.8275     2.5961    26.9815 </r>
       <r>     5.9484     2.7839    27.3077 </r>
       <r>     6.0693     2.8954    27.6558 </r>
       <r>     6.1902     2.7905    27.9963 </r>
       <r>     6.3111     2.5954    28.3249 </r>
       <r>     6.4320     2.6431    28.6376 </r>
       <r>     6.5529     2.6125    28.9523 </r>
       <r>     6.6738     2.4477    29.2770 </r>
       <r>     6.7947     1.8991    29.5238 </r>
       <r>     6.9156     2.1130    29.7705 </r>
       <r>     7.0365     1.8679    30.0196 </r>
       <r>     7.1573     1.6012    30.2272 </r>
       <r>     7.2782     1.4570    30.4117 </r>
       <r>     7.3991     1.3653    30.5821 </r>
       <r>     7.5200     1.2686    30.7411 </r>
       <r>     7.6409     1.1779    30.8902 </r>
       <r>     7.7618     1.0516    31.0247 </r>
       <r>     7.8827     0.9616    31.1457 </r>
       <r>     8.0036     0.9002    31.2580 </r>
       <r>     8.1245     0.8555    31.3640 </r>
       <r>     8.2454     0.7956    31.4646 </r>
       <r>     8.3663     0.7116    31.5556 </r>
       <r>     8.4872     0.6318    31.6366 </r>
       <r>     8.6080     0.5689    31.7087 </r>
       <r>     8.7289     0.5425    31.7771 </r>
       <r>     8.8498     0.4254    31.8359 </r>
       <r>     8.9707     0.3588    31.8824 </r>
       <r>     9.0916     0.3880    31.9283 </r>
       <r>     9.2125     0.2180    31.9663 </r>
       <r>     9.3334     0.1271    31.9869 </r>
       <r>     9.4543     0.0209    31.9996 </r>
       <r>     9.5752     0.0000    32.0000 </r>
       <r>     9.6961     0.0000    32.0000 </r>
       <r>     9.8170     0.0000    32.0000 </r>
       <r>     9.9379     0.0000    32.0000 </r>
       <r>    10.0587     0.0000    32.0000 </r>
       <r>    10.1796     0.0000    32.0000 </r>
       <r>    10.3005     0.0000    32.0000 </r>
       <r>    10.4214     0.0000    32.0000 </r>
       <r>    10.5423     0.0000    32.0000 </r>
       <r>    10.6632     0.0000    32.0000 </r>
       <r>    10.7841     0.0000    32.0000 </r>
       <r>    10.9050     0.0000    32.0000 </r>
       <r>    11.0259     0.0000    32.0000 </r>
       <r>    11.1468     0.0000    32.0000 </r>
       <r>    11.2677     0.0000    32.0000 </r>
       <r>    11.3886     0.0000    32.0000 </r>
       <r>    11.5094     0.0000    32.0000 </r>
       <r>    11.6303     0.0000    32.0000 </r>
       <r>    11.7512     0.0000    32.0000 </r>
       <r>    11.8721     0.0000    32.0000 </r>
       <r>    11.9930     0.0000    32.0000 </r>
       <r>    12.1139     0.0000    32.0000 </r>
       <r>    12.2348     0.0000    32.0000 </r>
       <r>    12.3557     0.0000    32.0000 </r>
       <r>    12.4766     0.0000    32.0000 </r>
       <r>    12.5975     0.0000    32.0000 </r>
       <r>    12.7184     0.0000    32.0000 </r>
       <r>    12.8393     0.0000    32.0000 </r>
       <r>    12.9601     0.0000    32.0000 </r>
       <r>    13.0810     0.0000    32.0000 </r>
       <r>    13.2019     0.0000    32.0000 </r>
       <r>    13.3228     0.0000    32.0000 </r>
       <r>    13.4437     0.0000    32.0000 </r>
       <r>    13.5646     0.0057    32.0000 </r>
       <r>    13.6855     0.1351    32.0074 </r>
       <r>    13.8064     0.4060    32.0383 </r>
       <r>    13.9273     0.6535    32.1124 </r>
       <r>    14.0482     0.6522    32.1848 </r>
       <r>    14.1691     0.6719    32.2628 </r>
       <r>    14.2900     0.8047    32.3515 </r>
       <r>    14.4108     0.9273    32.4626 </r>
       <r>    14.5317     1.0719    32.5833 </r>
       <r>    14.6526     1.3575    32.7288 </r>
       <r>    14.7735     1.5502    32.9098 </r>
       <r>    14.8944     1.4998    33.0958 </r>
       <r>    15.0153     1.4817    33.2757 </r>
       <r>    15.1362     1.5404    33.4581 </r>
       <r>    15.2571     1.5642    33.6446 </r>
       <r>    15.3780     1.7601    33.8433 </r>
       <r>    15.4989     1.9652    34.0710 </r>
       <r>    15.6198     2.1200    34.3184 </r>
       <r>    15.7407     2.1527    34.5768 </r>
       <r>    15.8615     2.1670    34.8413 </r>
       <r>    15.9824     2.1965    35.1073 </r>
       <r>    16.1033     2.1735    35.3692 </r>
       <r>    16.2242     2.2716    35.6390 </r>
       <r>    16.3451     2.3734    35.9194 </r>
       <r>    16.4660     2.5389    36.2155 </r>
       <r>    16.5869     2.7156    36.5338 </r>
       <r>    16.7078     2.8736    36.8700 </r>
       <r>    16.8287     3.1790    37.2358 </r>
       <r>    16.9496     3.2315    37.6273 </r>
       <r>    17.0705     3.3377    38.0209 </r>
       <r>    17.1914     3.7064    38.4435 </r>
       <r>    17.3122     4.5356    38.9693 </r>
       <r>    17.4331     3.6994    39.4868 </r>
       <r>    17.5540     3.5735    39.9076 </r>
       <r>    17.6749     2.8509    40.2843 </r>
       <r>    17.7958     3.0534    40.6410 </r>
       <r>    17.9167     3.4382    41.0285 </r>
       <r>    18.0376     4.0966    41.4788 </r>
       <r>    18.1585     4.2199    41.9908 </r>
       <r>    18.2794     4.0425    42.4780 </r>
       <r>    18.4003     3.8667    42.9689 </r>
       <r>    18.5212     3.5750    43.4140 </r>
       <r>    18.6420     3.4323    43.8412 </r>
       <r>    18.7629     3.1425    44.2364 </r>
       <r>    18.8838     2.8351    44.5936 </r>
       <r>    19.0047     2.7886    44.9330 </r>
       <r>    19.1256     2.7902    45.2718 </r>
       <r>    19.2465     2.6986    45.6045 </r>
       <r>    19.3674     2.6754    45.9244 </r>
       <r>    19.4883     2.8382    46.2558 </r>
       <r>    19.6092     2.8187    46.6054 </r>
       <r>    19.7301     2.6394    46.9325 </r>
       <r>    19.8510     2.3284    47.2349 </r>
       <r>    19.9719     1.8502    47.4893 </r>
       <r>    20.0927     1.3673    47.6884 </r>
       <r>    20.2136     0.6797    47.8071 </r>
       <r>    20.3345     0.4194    47.8748 </r>
       <r>    20.4554     0.2933    47.9179 </r>
       <r>    20.5763     0.1909    47.9467 </r>
       <r>    20.6972     0.1366    47.9663 </r>
       <r>    20.8181     0.0939    47.9801 </r>
       <r>    20.9390     0.0639    47.9896 </r>
       <r>    21.0599     0.0433    47.9960 </r>
       <r>    21.1808     0.0148    47.9997 </r>
       <r>    21.3017     0.0000    48.0000 </r>
       <r>    21.4226     0.0000    48.0000 </r>
       <r>    21.5434     0.0000    48.0000 </r>
       <r>    21.6643     0.0000    48.0000 </r>
       <r>    21.7852     0.0000    48.0000 </r>
       <r>    21.9061     0.0000    48.0000 </r>
       <r>    22.0270     0.0000    48.0000 </r>
       <r>    22.1479     0.0000    48.0000 </r>
       <r>    22.2688     0.0000    48.0000 </r>
       <r>    22.3897     0.0000    48.0000 </r>
       <r>    22.5106     0.0000    48.0000 </r>
       <r>    22.6315     0.0000    48.0000 </r>
       <r>    22.7524     0.0000    48.0000 </r>
       <r>    22.8733     0.0000    48.0000 </r>
      </set>
     </set>
    </array>
   </total>
  </dos>
 </calculation>
 <structure name="finalpos" >
  <crystal>
   <varray name="basis" >
    <v>       3.58999936       0.00000000       0.00000000 </v>
    <v>       0.07179979       3.58928110       0.00000000 </v>
    <v>       0.07179979       0.07037834       3.58859097 </v>
   </varray>
   <i name="volume">     46.24084938 </i>
   <varray name="rec_basis" >
    <v>       0.27855158      -0.00557213      -0.00546392 </v>
    <v>       0.00000000       0.27860732      -0.00546396 </v>
    <v>       0.00000000       0.00000000       0.27866090 </v>
   </varray>
  </crystal>
  <varray name="positions" >
   <v>       0.25000000       0.75000000       0.25000000 </v>
   <v>       0.00000000       0.00000000       0.50000000 </v>
   <v>       0.25000000       0.25000000       0.75000000 </v>
   <v>       0.00000000       0.50000000       0.00000000 </v>
   <v>       0.75000000       0.75000000       0.75000000 </v>
   <v>       0.50000000       0.00000000       0.00000000 </v>
   <v>       0.75000000       0.25000000       0.25000000 </v>
   <v>       0.50000000       0.50000000       0.50000000 </v>
  </varray>
 </structure>
</modeling>
