   8   8   0   0
  0.6361886E+01  0.3765223E-09  0.3765223E-09  0.3589999E-09  0.2000000E-16
  1.000000000000000E-004
  CAR 
 unknown system                          
     20.67517227    -13.37933959  301      8.64612543      1.00000000
    -13.379  0.0000E+00  0.0000E+00
    -13.266  0.0000E+00  0.0000E+00
    -13.152  0.0000E+00  0.0000E+00
    -13.039  0.0000E+00  0.0000E+00
    -12.925  0.0000E+00  0.0000E+00
    -12.812  0.0000E+00  0.0000E+00
    -12.698  0.0000E+00  0.0000E+00
    -12.585  0.0000E+00  0.0000E+00
    -12.471  0.0000E+00  0.0000E+00
    -12.358  0.0000E+00  0.0000E+00
    -12.244  0.0000E+00  0.0000E+00
    -12.131  0.0000E+00  0.0000E+00
    -12.017  0.0000E+00  0.0000E+00
    -11.904  0.0000E+00  0.0000E+00
    -11.790  0.3801E-01  0.5230E-03
    -11.677  0.1667E+00  0.1508E-01
    -11.563  0.2605E+00  0.3939E-01
    -11.450  0.2959E+00  0.7065E-01
    -11.336  0.3477E+00  0.1072E+00
    -11.223  0.3906E+00  0.1495E+00
    -11.109  0.4224E+00  0.1956E+00
    -10.996  0.4570E+00  0.2454E+00
    -10.882  0.4972E+00  0.2996E+00
    -10.768  0.5238E+00  0.3576E+00
    -10.655  0.5489E+00  0.4184E+00
    -10.541  0.5778E+00  0.4823E+00
    -10.428  0.6089E+00  0.5497E+00
    -10.314  0.6347E+00  0.6204E+00
    -10.201  0.6590E+00  0.6939E+00
    -10.087  0.6818E+00  0.7699E+00
     -9.974  0.7057E+00  0.8487E+00
     -9.860  0.7312E+00  0.9302E+00
     -9.747  0.7575E+00  0.1015E+01
     -9.633  0.7795E+00  0.1102E+01
     -9.520  0.8005E+00  0.1192E+01
     -9.406  0.8216E+00  0.1284E+01
     -9.293  0.8439E+00  0.1378E+01
     -9.179  0.8675E+00  0.1475E+01
     -9.066  0.8919E+00  0.1575E+01
     -8.952  0.9131E+00  0.1678E+01
     -8.839  0.9346E+00  0.1783E+01
     -8.725  0.9564E+00  0.1890E+01
     -8.612  0.9785E+00  0.2000E+01
     -8.498  0.1001E+01  0.2112E+01
     -8.385  0.1037E+01  0.2227E+01
     -8.271  0.1073E+01  0.2347E+01
     -8.158  0.1139E+01  0.2473E+01
     -8.044  0.1176E+01  0.2604E+01
     -7.931  0.1209E+01  0.2740E+01
     -7.817  0.1202E+01  0.2877E+01
     -7.704  0.1192E+01  0.3012E+01
     -7.590  0.1167E+01  0.3146E+01
     -7.477  0.1181E+01  0.3279E+01
     -7.363  0.1198E+01  0.3415E+01
     -7.250  0.1218E+01  0.3552E+01
     -7.136  0.1266E+01  0.3693E+01
     -7.022  0.1359E+01  0.3841E+01
     -6.909  0.1407E+01  0.3999E+01
     -6.795  0.1551E+01  0.4166E+01
     -6.682  0.1816E+01  0.4357E+01
     -6.568  0.1747E+01  0.4565E+01
     -6.455  0.1657E+01  0.4756E+01
     -6.341  0.1715E+01  0.4948E+01
     -6.228  0.1605E+01  0.5136E+01
     -6.114  0.1544E+01  0.5315E+01
     -6.001  0.1542E+01  0.5490E+01
     -5.887  0.1528E+01  0.5665E+01
     -5.774  0.1439E+01  0.5832E+01
     -5.660  0.1383E+01  0.5991E+01
     -5.547  0.1364E+01  0.6147E+01
     -5.433  0.1317E+01  0.6299E+01
     -5.320  0.1293E+01  0.6448E+01
     -5.206  0.1246E+01  0.6592E+01
     -5.093  0.1193E+01  0.6732E+01
     -4.979  0.1145E+01  0.6867E+01
     -4.866  0.1118E+01  0.6995E+01
     -4.752  0.1078E+01  0.7120E+01
     -4.639  0.1058E+01  0.7241E+01
     -4.525  0.1004E+01  0.7359E+01
     -4.412  0.9438E+00  0.7470E+01
     -4.298  0.8807E+00  0.7574E+01
     -4.185  0.8091E+00  0.7670E+01
     -4.071  0.7320E+00  0.7757E+01
     -3.958  0.6195E+00  0.7838E+01
     -3.844  0.7375E+00  0.7909E+01
     -3.731  0.6918E+00  0.7991E+01
     -3.617  0.8158E+00  0.8078E+01
     -3.504  0.7729E+00  0.8168E+01
     -3.390  0.8355E+00  0.8257E+01
     -3.277  0.1065E+01  0.8367E+01
     -3.163  0.1208E+01  0.8496E+01
     -3.049  0.1410E+01  0.8644E+01
     -2.936  0.1695E+01  0.8817E+01
     -2.822  0.2018E+01  0.9027E+01
     -2.709  0.2693E+01  0.9286E+01
     -2.595  0.2935E+01  0.9631E+01
     -2.482  0.2833E+01  0.9956E+01
     -2.368  0.2649E+01  0.1027E+02
     -2.255  0.2255E+01  0.1055E+02
     -2.141  0.1990E+01  0.1079E+02
     -2.028  0.1832E+01  0.1101E+02
     -1.914  0.1712E+01  0.1121E+02
     -1.801  0.1631E+01  0.1140E+02
     -1.687  0.1621E+01  0.1158E+02
     -1.574  0.1583E+01  0.1176E+02
     -1.460  0.1406E+01  0.1193E+02
     -1.347  0.1314E+01  0.1209E+02
     -1.233  0.1248E+01  0.1223E+02
     -1.120  0.1211E+01  0.1237E+02
     -1.006  0.1182E+01  0.1251E+02
     -0.893  0.1154E+01  0.1264E+02
     -0.779  0.1121E+01  0.1277E+02
     -0.666  0.1062E+01  0.1289E+02
     -0.552  0.1001E+01  0.1301E+02
     -0.439  0.1026E+01  0.1313E+02
     -0.325  0.1093E+01  0.1325E+02
     -0.212  0.1200E+01  0.1338E+02
     -0.098  0.1332E+01  0.1352E+02
      0.015  0.1424E+01  0.1367E+02
      0.129  0.1719E+01  0.1385E+02
      0.242  0.1944E+01  0.1406E+02
      0.356  0.2398E+01  0.1431E+02
      0.469  0.2788E+01  0.1460E+02
      0.583  0.2483E+01  0.1490E+02
      0.697  0.2197E+01  0.1517E+02
      0.810  0.2126E+01  0.1541E+02
      0.924  0.1979E+01  0.1565E+02
      1.037  0.1721E+01  0.1585E+02
      1.151  0.1827E+01  0.1606E+02
      1.264  0.2058E+01  0.1628E+02
      1.378  0.2448E+01  0.1653E+02
      1.491  0.2597E+01  0.1682E+02
      1.605  0.2573E+01  0.1711E+02
      1.718  0.2490E+01  0.1740E+02
      1.832  0.2415E+01  0.1768E+02
      1.945  0.2610E+01  0.1796E+02
      2.059  0.3095E+01  0.1828E+02
      2.172  0.3430E+01  0.1866E+02
      2.286  0.2985E+01  0.1903E+02
      2.399  0.2817E+01  0.1936E+02
      2.513  0.2778E+01  0.1968E+02
      2.626  0.2696E+01  0.1999E+02
      2.740  0.2915E+01  0.2030E+02
      2.853  0.3905E+01  0.2068E+02
      2.967  0.3874E+01  0.2113E+02
      3.080  0.3392E+01  0.2154E+02
      3.194  0.3624E+01  0.2194E+02
      3.307  0.3319E+01  0.2234E+02
      3.421  0.2959E+01  0.2269E+02
      3.534  0.3019E+01  0.2303E+02
      3.648  0.3108E+01  0.2338E+02
      3.761  0.3224E+01  0.2374E+02
      3.875  0.3313E+01  0.2411E+02
      3.988  0.3235E+01  0.2448E+02
      4.102  0.3231E+01  0.2485E+02
      4.215  0.3282E+01  0.2522E+02
      4.329  0.3277E+01  0.2560E+02
      4.443  0.3051E+01  0.2596E+02
      4.556  0.2896E+01  0.2629E+02
      4.670  0.2715E+01  0.2661E+02
      4.783  0.2673E+01  0.2691E+02
      4.897  0.2791E+01  0.2722E+02
      5.010  0.2883E+01  0.2754E+02
      5.124  0.3069E+01  0.2788E+02
      5.237  0.3093E+01  0.2823E+02
      5.351  0.2812E+01  0.2856E+02
      5.464  0.2591E+01  0.2886E+02
      5.578  0.2537E+01  0.2916E+02
      5.691  0.2229E+01  0.2943E+02
      5.805  0.2194E+01  0.2967E+02
      5.918  0.2459E+01  0.2994E+02
      6.032  0.1876E+01  0.3018E+02
      6.145  0.1644E+01  0.3038E+02
      6.259  0.1481E+01  0.3056E+02
      6.372  0.1370E+01  0.3072E+02
      6.486  0.1297E+01  0.3087E+02
      6.599  0.1203E+01  0.3101E+02
      6.713  0.1102E+01  0.3114E+02
      6.826  0.9794E+00  0.3126E+02
      6.940  0.8917E+00  0.3137E+02
      7.053  0.8254E+00  0.3146E+02
      7.167  0.7950E+00  0.3156E+02
      7.280  0.6936E+00  0.3164E+02
      7.394  0.6046E+00  0.3171E+02
      7.507  0.5237E+00  0.3178E+02
      7.621  0.4960E+00  0.3183E+02
      7.734  0.3757E+00  0.3189E+02
      7.848  0.2665E+00  0.3192E+02
      7.961  0.2043E+00  0.3195E+02
      8.075  0.1529E+00  0.3197E+02
      8.189  0.9886E-01  0.3198E+02
      8.302  0.6951E-01  0.3199E+02
      8.416  0.2660E-01  0.3200E+02
      8.529  0.2720E-02  0.3200E+02
      8.643  0.0000E+00  0.3200E+02
      8.756  0.0000E+00  0.3200E+02
      8.870  0.0000E+00  0.3200E+02
      8.983  0.0000E+00  0.3200E+02
      9.097  0.0000E+00  0.3200E+02
      9.210  0.0000E+00  0.3200E+02
      9.324  0.0000E+00  0.3200E+02
      9.437  0.0000E+00  0.3200E+02
      9.551  0.0000E+00  0.3200E+02
      9.664  0.0000E+00  0.3200E+02
      9.778  0.0000E+00  0.3200E+02
      9.891  0.0000E+00  0.3200E+02
     10.005  0.0000E+00  0.3200E+02
     10.118  0.0000E+00  0.3200E+02
     10.232  0.0000E+00  0.3200E+02
     10.345  0.0000E+00  0.3200E+02
     10.459  0.0000E+00  0.3200E+02
     10.572  0.0000E+00  0.3200E+02
     10.686  0.0000E+00  0.3200E+02
     10.799  0.0000E+00  0.3200E+02
     10.913  0.0000E+00  0.3200E+02
     11.026  0.0000E+00  0.3200E+02
     11.140  0.0000E+00  0.3200E+02
     11.253  0.0000E+00  0.3200E+02
     11.367  0.2925E-04  0.3200E+02
     11.480  0.3345E-01  0.3200E+02
     11.594  0.9701E-01  0.3201E+02
     11.707  0.1595E+00  0.3202E+02
     11.821  0.1793E+00  0.3204E+02
     11.935  0.2106E+00  0.3207E+02
     12.048  0.2630E+00  0.3209E+02
     12.162  0.3104E+00  0.3212E+02
     12.275  0.3539E+00  0.3216E+02
     12.389  0.4539E+00  0.3221E+02
     12.502  0.5331E+00  0.3226E+02
     12.616  0.6271E+00  0.3233E+02
     12.729  0.7560E+00  0.3241E+02
     12.843  0.9710E+00  0.3251E+02
     12.956  0.1029E+01  0.3262E+02
     13.070  0.1133E+01  0.3274E+02
     13.183  0.1368E+01  0.3288E+02
     13.297  0.1573E+01  0.3305E+02
     13.410  0.1865E+01  0.3325E+02
     13.524  0.1785E+01  0.3346E+02
     13.637  0.1806E+01  0.3366E+02
     13.751  0.1880E+01  0.3387E+02
     13.864  0.1956E+01  0.3409E+02
     13.978  0.2130E+01  0.3432E+02
     14.091  0.2357E+01  0.3458E+02
     14.205  0.2455E+01  0.3485E+02
     14.318  0.2561E+01  0.3514E+02
     14.432  0.2665E+01  0.3543E+02
     14.545  0.2677E+01  0.3573E+02
     14.659  0.2833E+01  0.3605E+02
     14.772  0.3050E+01  0.3638E+02
     14.886  0.3170E+01  0.3674E+02
     14.999  0.3414E+01  0.3711E+02
     15.113  0.4144E+01  0.3754E+02
     15.226  0.3779E+01  0.3800E+02
     15.340  0.4188E+01  0.3844E+02
     15.453  0.4720E+01  0.3895E+02
     15.567  0.4377E+01  0.3947E+02
     15.681  0.3902E+01  0.3993E+02
     15.794  0.3906E+01  0.4037E+02
     15.908  0.4162E+01  0.4083E+02
     16.021  0.4190E+01  0.4130E+02
     16.135  0.3897E+01  0.4176E+02
     16.248  0.3950E+01  0.4220E+02
     16.362  0.4250E+01  0.4266E+02
     16.475  0.4033E+01  0.4313E+02
     16.589  0.3834E+01  0.4357E+02
     16.702  0.3603E+01  0.4400E+02
     16.816  0.3229E+01  0.4439E+02
     16.929  0.3159E+01  0.4475E+02
     17.043  0.3096E+01  0.4510E+02
     17.156  0.2954E+01  0.4544E+02
     17.270  0.3006E+01  0.4578E+02
     17.383  0.2828E+01  0.4611E+02
     17.497  0.2608E+01  0.4642E+02
     17.610  0.2502E+01  0.4671E+02
     17.724  0.2385E+01  0.4698E+02
     17.837  0.2354E+01  0.4725E+02
     17.951  0.1675E+01  0.4749E+02
     18.064  0.1207E+01  0.4765E+02
     18.178  0.7716E+00  0.4776E+02
     18.291  0.5448E+00  0.4783E+02
     18.405  0.4096E+00  0.4788E+02
     18.518  0.3179E+00  0.4792E+02
     18.632  0.2351E+00  0.4796E+02
     18.745  0.1477E+00  0.4798E+02
     18.859  0.7295E-01  0.4799E+02
     18.972  0.4399E-01  0.4800E+02
     19.086  0.7358E-02  0.4800E+02
     19.199  0.0000E+00  0.4800E+02
     19.313  0.0000E+00  0.4800E+02
     19.427  0.0000E+00  0.4800E+02
     19.540  0.0000E+00  0.4800E+02
     19.654  0.0000E+00  0.4800E+02
     19.767  0.0000E+00  0.4800E+02
     19.881  0.0000E+00  0.4800E+02
     19.994  0.0000E+00  0.4800E+02
     20.108  0.0000E+00  0.4800E+02
     20.221  0.0000E+00  0.4800E+02
     20.335  0.0000E+00  0.4800E+02
     20.448  0.0000E+00  0.4800E+02
     20.562  0.0000E+00  0.4800E+02
     20.675  0.0000E+00  0.4800E+02
