       N       E                     dE             d eps       ncg     rms          rms(c)
DAV:   1     0.562027237909E+02    0.56203E+02   -0.14158E+04  9416   0.104E+03
DAV:   2    -0.692265513528E+02   -0.12543E+03   -0.11891E+03 13120   0.214E+02
DAV:   3    -0.735372696139E+02   -0.43107E+01   -0.42889E+01 12280   0.374E+01
DAV:   4    -0.735872291558E+02   -0.49960E-01   -0.49912E-01 12152   0.435E+00
DAV:   5    -0.735883030595E+02   -0.10739E-02   -0.10735E-02 12248   0.586E-01    0.824E+00
DAV:   6    -0.722971510456E+02    0.12912E+01   -0.87835E-01 11064   0.514E+00    0.461E+00
DAV:   7    -0.718596142524E+02    0.43754E+00   -0.10273E+00 11320   0.572E+00    0.655E-01
DAV:   8    -0.718656464980E+02   -0.60322E-02   -0.21510E-02 12088   0.833E-01    0.741E-02
DAV:   9    -0.718658757741E+02   -0.22928E-03   -0.43092E-04 11776   0.135E-01    0.268E-02
DAV:  10    -0.718659326367E+02   -0.56863E-04   -0.55681E-05 11904   0.544E-02    0.253E-03
DAV:  11    -0.718659329909E+02   -0.35412E-06   -0.10832E-06  8896   0.690E-03
   1 F= -.71865933E+02 E0= -.71865933E+02  d E =0.000000E+00
