 vasp.5.4.4.18Apr17-6-g9f103f2a35 (build Mar 12 2022 03:36:41) complex          
  
 executed on IFC19.0.3.199_CrayMP date 2022.12.01  10:33:56
 running on   16 total cores
 distrk:  each k-point on   16 cores,    1 groups
 distr:  one band on NCORES_PER_BAND=   4 cores,    4 groups


--------------------------------------------------------------------------------------------------------


 INCAR:
 POTCAR:   PAW_PBE C 08Apr2002                    
 POTCAR:   PAW_PBE C 08Apr2002                    
   VRHFIN =C: s2p2                                                              
   LEXCH  = PE                                                                  
   EATOM  =   147.1560 eV,   10.8157 Ry                                         
                                                                                
   TITEL  = PAW_PBE C 08Apr2002                                                 
   LULTRA =        F    use ultrasoft PP ?                                      
   IUNSCR =        0    unscreen: 0-lin 1-nonlin 2-no                           
   RPACOR =     .000    partial core radius                                     
   POMASS =   12.011; ZVAL   =    4.000    mass and valenz                      
   RCORE  =    1.500    outmost cutoff radius                                   
   RWIGS  =    1.630; RWIGS  =     .863    wigner-seitz radius (au A)           
   ENMAX  =  400.000; ENMIN  =  300.000 eV                                      
   ICORE  =        2    local potential                                         
   LCOR   =        T    correct aug charges                                     
   LPAW   =        T    paw PP                                                  
   EAUG   =  644.873                                                            
   DEXC   =     .000                                                            
   RMAX   =    2.266    core radius for proj-oper                               
   RAUG   =    1.300    factor for augmentation sphere                          
   RDEP   =    1.501    radius for radial grids                                 
   RDEPT  =    1.300    core radius for aug-charge                              
   QCUT   =   -5.516; QGAM   =   11.032    optimization parameters              
                                                                                
   Description                                                                  
     l     E      TYP  RCUT    TYP  RCUT                                        
     0   .000     23  1.200                                                     
     0   .000     23  1.200                                                     
     1   .000     23  1.500                                                     
     1  2.500     23  1.500                                                     
     2   .000      7  1.500                                                     
  local pseudopotential read in
  atomic valenz-charges read in
  non local Contribution for L=           0  read in
    real space projection operators read in
  non local Contribution for L=           0  read in
    real space projection operators read in
  non local Contribution for L=           1  read in
    real space projection operators read in
  non local Contribution for L=           1  read in
    real space projection operators read in
    PAW grid and wavefunctions read in
 
   number of l-projection  operators is LMAX  =           4
   number of lm-projection operators is LMMAX =           8
 
 PAW_PBE C 08Apr2002                    :
 energy of atom  1       EATOM= -147.1560
 kinetic energy error for atom=    0.0288 (will be added to EATOM!!)
 
 
 POSCAR: C8                                      
  positions in direct lattice
  No initial velocities read in
 exchange correlation table for  LEXCH =        8
   RHO(1)=    0.500       N(1)  =     2000
   RHO(2)=  100.500       N(2)  =     4000
 


--------------------------------------------------------------------------------------------------------


 ion  position               nearest neighbor table
   1  0.250  0.750  0.250-   2 1.61   4 1.61   6 1.61   8 1.61
   2  0.000  0.000  0.500-   1 1.61   3 1.61   5 1.61   7 1.61
   3  0.250  0.250  0.750-   2 1.61   4 1.61   6 1.61   8 1.61
   4  0.000  0.500  0.000-   1 1.61   3 1.61   5 1.61   7 1.61
   5  0.750  0.750  0.750-   2 1.61   4 1.61   6 1.61   8 1.61
   6  0.500  0.000  0.000-   1 1.61   3 1.61   5 1.61   7 1.61
   7  0.750  0.250  0.250-   2 1.61   4 1.61   6 1.61   8 1.61
   8  0.500  0.500  0.500-   1 1.61   3 1.61   5 1.61   7 1.61
 
  LATTYP: Found a simple tetragonal cell.
 ALAT       =     3.7652234253
 C/A-ratio  =     0.9534625050
  
  Lattice vectors:
  
 A1 = (   3.7652234253,   0.0000000000,   0.0000000000)
 A2 = (   0.0000000000,   3.7652234253,   0.0000000000)
 A3 = (   0.0000000000,   0.0000000000,   3.5899993590)


Analysis of symmetry for initial positions (statically):
=====================================================================
 Subroutine PRICEL returns following result:
 
  LATTYP: Found a body centered tetragonal cell.
 ALAT       =     2.6624150167
 C/A-ratio  =     1.3483996058
  
  Lattice vectors:
  
 A1 = (   1.8826117127,   0.0000000000,   1.7949996795)
 A2 = (  -1.8826117127,   0.0000000000,   1.7949996795)
 A3 = (   0.0000000000,  -1.8826117127,  -1.7949996795)
 
   4 primitive cells build up your supercell.
 

 Routine SETGRP: Setting up the symmetry group for a 
 simple tetragonal supercell.


 Subroutine GETGRP returns: Found 16 space group operations
 (whereof  8 operations were pure point group operations)
 out of a pool of 16 trial point group operations.


The static configuration has the point symmetry D_2d.
 The point group associated with its full space group is D_4h.


Analysis of symmetry for dynamics (positions and initial velocities):
=====================================================================
 Subroutine PRICEL returns following result:
 
  LATTYP: Found a body centered tetragonal cell.
 ALAT       =     2.6624150167
 C/A-ratio  =     1.3483996058
  
  Lattice vectors:
  
 A1 = (   1.8826117127,   0.0000000000,   1.7949996795)
 A2 = (  -1.8826117127,   0.0000000000,   1.7949996795)
 A3 = (   0.0000000000,  -1.8826117127,  -1.7949996795)
 
   4 primitive cells build up your supercell.
 

 Routine SETGRP: Setting up the symmetry group for a 
 simple tetragonal supercell.


 Subroutine GETGRP returns: Found 16 space group operations
 (whereof  8 operations were pure point group operations)
 out of a pool of 16 trial point group operations.


The dynamic configuration has the point symmetry D_2d.
 The point group associated with its full space group is D_4h.


 Subroutine INISYM returns: Found 16 space group operations
 (whereof  8 operations are pure point group operations),
 and found     4 'primitive' translations

 
 
 KPOINTS: kpt_density=1000                        

Automatic generation of k-mesh.
Space group operators:
 irot       det(A)        alpha          n_x          n_y          n_z        tau_x        tau_y        tau_z
    1     1.000000     0.000001     1.000000     0.000000     0.000000     0.000000     0.000000     0.000000
    2    -1.000000    90.000000     0.000000     0.000000    -1.000000     0.000000     0.000000     0.000000
    3     1.000000   180.000000     0.000000     0.000000     1.000000     0.000000     0.000000     0.000000
    4    -1.000000    90.000000     0.000000     0.000000     1.000000     0.000000     0.000000     0.000000
    5     1.000000   179.999999     0.000000     1.000000     0.000000     0.000000     0.000000     0.000000
    6    -1.000000   179.999999     0.707107     0.707107     0.000000     0.000000     0.000000     0.000000
    7     1.000000   179.999999     1.000000     0.000000     0.000000     0.000000     0.000000     0.000000
    8    -1.000000   179.999999     0.707107    -0.707107     0.000000     0.000000     0.000000     0.000000
    9    -1.000000     0.000001     1.000000     0.000000     0.000000    -0.250000    -0.250000     0.250000
   10     1.000000    90.000000     0.000000     0.000000    -1.000000    -0.250000    -0.250000     0.250000
   11    -1.000000   180.000000     0.000000     0.000000     1.000000    -0.250000    -0.250000     0.250000
   12     1.000000    90.000000     0.000000     0.000000     1.000000    -0.250000    -0.250000     0.250000
   13    -1.000000   179.999999     0.000000     1.000000     0.000000    -0.250000    -0.250000     0.250000
   14     1.000000   179.999999     0.707107     0.707107     0.000000    -0.250000    -0.250000     0.250000
   15    -1.000000   179.999999     1.000000     0.000000     0.000000    -0.250000    -0.250000     0.250000
   16     1.000000   179.999999     0.707107    -0.707107     0.000000    -0.250000    -0.250000     0.250000
 
 Subroutine IBZKPT returns following result:
 ===========================================
 
 Found    196 irreducible k-points:
 
 Following reciprocal coordinates:
            Coordinates               Weight
  0.000000  0.000000  0.000000      1.000000
  0.083333  0.000000  0.000000      4.000000
  0.166667  0.000000  0.000000      4.000000
  0.250000  0.000000  0.000000      4.000000
  0.333333  0.000000  0.000000      4.000000
  0.416667  0.000000  0.000000      4.000000
  0.500000  0.000000  0.000000      2.000000
  0.083333  0.083333  0.000000      4.000000
  0.166667  0.083333  0.000000      8.000000
  0.250000  0.083333  0.000000      8.000000
  0.333333  0.083333  0.000000      8.000000
  0.416667  0.083333  0.000000      8.000000
  0.500000  0.083333  0.000000      4.000000
  0.166667  0.166667  0.000000      4.000000
  0.250000  0.166667  0.000000      8.000000
  0.333333  0.166667  0.000000      8.000000
  0.416667  0.166667  0.000000      8.000000
  0.500000  0.166667  0.000000      4.000000
  0.250000  0.250000  0.000000      4.000000
  0.333333  0.250000  0.000000      8.000000
  0.416667  0.250000  0.000000      8.000000
  0.500000  0.250000  0.000000      4.000000
  0.333333  0.333333  0.000000      4.000000
  0.416667  0.333333  0.000000      8.000000
  0.500000  0.333333  0.000000      4.000000
  0.416667  0.416667  0.000000      4.000000
  0.500000  0.416667  0.000000      4.000000
  0.500000  0.500000  0.000000      1.000000
  0.000000  0.000000  0.083333      2.000000
  0.083333  0.000000  0.083333      8.000000
  0.166667  0.000000  0.083333      8.000000
  0.250000  0.000000  0.083333      8.000000
  0.333333  0.000000  0.083333      8.000000
  0.416667  0.000000  0.083333      8.000000
  0.500000  0.000000  0.083333      4.000000
  0.083333  0.083333  0.083333      8.000000
  0.166667  0.083333  0.083333     16.000000
  0.250000  0.083333  0.083333     16.000000
  0.333333  0.083333  0.083333     16.000000
  0.416667  0.083333  0.083333     16.000000
  0.500000  0.083333  0.083333      8.000000
  0.166667  0.166667  0.083333      8.000000
  0.250000  0.166667  0.083333     16.000000
  0.333333  0.166667  0.083333     16.000000
  0.416667  0.166667  0.083333     16.000000
  0.500000  0.166667  0.083333      8.000000
  0.250000  0.250000  0.083333      8.000000
  0.333333  0.250000  0.083333     16.000000
  0.416667  0.250000  0.083333     16.000000
  0.500000  0.250000  0.083333      8.000000
  0.333333  0.333333  0.083333      8.000000
  0.416667  0.333333  0.083333     16.000000
  0.500000  0.333333  0.083333      8.000000
  0.416667  0.416667  0.083333      8.000000
  0.500000  0.416667  0.083333      8.000000
  0.500000  0.500000  0.083333      2.000000
  0.000000  0.000000  0.166667      2.000000
  0.083333  0.000000  0.166667      8.000000
  0.166667  0.000000  0.166667      8.000000
  0.250000  0.000000  0.166667      8.000000
  0.333333  0.000000  0.166667      8.000000
  0.416667  0.000000  0.166667      8.000000
  0.500000  0.000000  0.166667      4.000000
  0.083333  0.083333  0.166667      8.000000
  0.166667  0.083333  0.166667     16.000000
  0.250000  0.083333  0.166667     16.000000
  0.333333  0.083333  0.166667     16.000000
  0.416667  0.083333  0.166667     16.000000
  0.500000  0.083333  0.166667      8.000000
  0.166667  0.166667  0.166667      8.000000
  0.250000  0.166667  0.166667     16.000000
  0.333333  0.166667  0.166667     16.000000
  0.416667  0.166667  0.166667     16.000000
  0.500000  0.166667  0.166667      8.000000
  0.250000  0.250000  0.166667      8.000000
  0.333333  0.250000  0.166667     16.000000
  0.416667  0.250000  0.166667     16.000000
  0.500000  0.250000  0.166667      8.000000
  0.333333  0.333333  0.166667      8.000000
  0.416667  0.333333  0.166667     16.000000
  0.500000  0.333333  0.166667      8.000000
  0.416667  0.416667  0.166667      8.000000
  0.500000  0.416667  0.166667      8.000000
  0.500000  0.500000  0.166667      2.000000
  0.000000  0.000000  0.250000      2.000000
  0.083333  0.000000  0.250000      8.000000
  0.166667  0.000000  0.250000      8.000000
  0.250000  0.000000  0.250000      8.000000
  0.333333  0.000000  0.250000      8.000000
  0.416667  0.000000  0.250000      8.000000
  0.500000  0.000000  0.250000      4.000000
  0.083333  0.083333  0.250000      8.000000
  0.166667  0.083333  0.250000     16.000000
  0.250000  0.083333  0.250000     16.000000
  0.333333  0.083333  0.250000     16.000000
  0.416667  0.083333  0.250000     16.000000
  0.500000  0.083333  0.250000      8.000000
  0.166667  0.166667  0.250000      8.000000
  0.250000  0.166667  0.250000     16.000000
  0.333333  0.166667  0.250000     16.000000
  0.416667  0.166667  0.250000     16.000000
  0.500000  0.166667  0.250000      8.000000
  0.250000  0.250000  0.250000      8.000000
  0.333333  0.250000  0.250000     16.000000
  0.416667  0.250000  0.250000     16.000000
  0.500000  0.250000  0.250000      8.000000
  0.333333  0.333333  0.250000      8.000000
  0.416667  0.333333  0.250000     16.000000
  0.500000  0.333333  0.250000      8.000000
  0.416667  0.416667  0.250000      8.000000
  0.500000  0.416667  0.250000      8.000000
  0.500000  0.500000  0.250000      2.000000
  0.000000  0.000000  0.333333      2.000000
  0.083333  0.000000  0.333333      8.000000
  0.166667  0.000000  0.333333      8.000000
  0.250000  0.000000  0.333333      8.000000
  0.333333  0.000000  0.333333      8.000000
  0.416667  0.000000  0.333333      8.000000
  0.500000  0.000000  0.333333      4.000000
  0.083333  0.083333  0.333333      8.000000
  0.166667  0.083333  0.333333     16.000000
  0.250000  0.083333  0.333333     16.000000
  0.333333  0.083333  0.333333     16.000000
  0.416667  0.083333  0.333333     16.000000
  0.500000  0.083333  0.333333      8.000000
  0.166667  0.166667  0.333333      8.000000
  0.250000  0.166667  0.333333     16.000000
  0.333333  0.166667  0.333333     16.000000
  0.416667  0.166667  0.333333     16.000000
  0.500000  0.166667  0.333333      8.000000
  0.250000  0.250000  0.333333      8.000000
  0.333333  0.250000  0.333333     16.000000
  0.416667  0.250000  0.333333     16.000000
  0.500000  0.250000  0.333333      8.000000
  0.333333  0.333333  0.333333      8.000000
  0.416667  0.333333  0.333333     16.000000
  0.500000  0.333333  0.333333      8.000000
  0.416667  0.416667  0.333333      8.000000
  0.500000  0.416667  0.333333      8.000000
  0.500000  0.500000  0.333333      2.000000
  0.000000  0.000000  0.416667      2.000000
  0.083333  0.000000  0.416667      8.000000
  0.166667  0.000000  0.416667      8.000000
  0.250000  0.000000  0.416667      8.000000
  0.333333  0.000000  0.416667      8.000000
  0.416667  0.000000  0.416667      8.000000
  0.500000  0.000000  0.416667      4.000000
  0.083333  0.083333  0.416667      8.000000
  0.166667  0.083333  0.416667     16.000000
  0.250000  0.083333  0.416667     16.000000
  0.333333  0.083333  0.416667     16.000000
  0.416667  0.083333  0.416667     16.000000
  0.500000  0.083333  0.416667      8.000000
  0.166667  0.166667  0.416667      8.000000
  0.250000  0.166667  0.416667     16.000000
  0.333333  0.166667  0.416667     16.000000
  0.416667  0.166667  0.416667     16.000000
  0.500000  0.166667  0.416667      8.000000
  0.250000  0.250000  0.416667      8.000000
  0.333333  0.250000  0.416667     16.000000
  0.416667  0.250000  0.416667     16.000000
  0.500000  0.250000  0.416667      8.000000
  0.333333  0.333333  0.416667      8.000000
  0.416667  0.333333  0.416667     16.000000
  0.500000  0.333333  0.416667      8.000000
  0.416667  0.416667  0.416667      8.000000
  0.500000  0.416667  0.416667      8.000000
  0.500000  0.500000  0.416667      2.000000
  0.000000  0.000000  0.500000      1.000000
  0.083333  0.000000  0.500000      4.000000
  0.166667  0.000000  0.500000      4.000000
  0.250000  0.000000  0.500000      4.000000
  0.333333  0.000000  0.500000      4.000000
  0.416667  0.000000  0.500000      4.000000
  0.500000  0.000000  0.500000      2.000000
  0.083333  0.083333  0.500000      4.000000
  0.166667  0.083333  0.500000      8.000000
  0.250000  0.083333  0.500000      8.000000
  0.333333  0.083333  0.500000      8.000000
  0.416667  0.083333  0.500000      8.000000
  0.500000  0.083333  0.500000      4.000000
  0.166667  0.166667  0.500000      4.000000
  0.250000  0.166667  0.500000      8.000000
  0.333333  0.166667  0.500000      8.000000
  0.416667  0.166667  0.500000      8.000000
  0.500000  0.166667  0.500000      4.000000
  0.250000  0.250000  0.500000      4.000000
  0.333333  0.250000  0.500000      8.000000
  0.416667  0.250000  0.500000      8.000000
  0.500000  0.250000  0.500000      4.000000
  0.333333  0.333333  0.500000      4.000000
  0.416667  0.333333  0.500000      8.000000
  0.500000  0.333333  0.500000      4.000000
  0.416667  0.416667  0.500000      4.000000
  0.500000  0.416667  0.500000      4.000000
  0.500000  0.500000  0.500000      1.000000
 
 Following cartesian coordinates:
            Coordinates               Weight
  0.000000  0.000000  0.000000      1.000000
  0.022233  0.000000  0.000000      4.000000
  0.044467  0.000000  0.000000      4.000000
  0.066700  0.000000  0.000000      4.000000
  0.088933  0.000000  0.000000      4.000000
  0.111166  0.000000  0.000000      4.000000
  0.133400  0.000000  0.000000      2.000000
  0.022233  0.022233  0.000000      4.000000
  0.044467  0.022233  0.000000      8.000000
  0.066700  0.022233  0.000000      8.000000
  0.088933  0.022233  0.000000      8.000000
  0.111166  0.022233  0.000000      8.000000
  0.133400  0.022233  0.000000      4.000000
  0.044467  0.044467  0.000000      4.000000
  0.066700  0.044467  0.000000      8.000000
  0.088933  0.044467  0.000000      8.000000
  0.111166  0.044467  0.000000      8.000000
  0.133400  0.044467  0.000000      4.000000
  0.066700  0.066700  0.000000      4.000000
  0.088933  0.066700  0.000000      8.000000
  0.111166  0.066700  0.000000      8.000000
  0.133400  0.066700  0.000000      4.000000
  0.088933  0.088933  0.000000      4.000000
  0.111166  0.088933  0.000000      8.000000
  0.133400  0.088933  0.000000      4.000000
  0.111166  0.111166  0.000000      4.000000
  0.133400  0.111166  0.000000      4.000000
  0.133400  0.133400  0.000000      1.000000
  0.000000  0.000000  0.023318      2.000000
  0.022233  0.000000  0.023318      8.000000
  0.044467  0.000000  0.023318      8.000000
  0.066700  0.000000  0.023318      8.000000
  0.088933  0.000000  0.023318      8.000000
  0.111166  0.000000  0.023318      8.000000
  0.133400  0.000000  0.023318      4.000000
  0.022233  0.022233  0.023318      8.000000
  0.044467  0.022233  0.023318     16.000000
  0.066700  0.022233  0.023318     16.000000
  0.088933  0.022233  0.023318     16.000000
  0.111166  0.022233  0.023318     16.000000
  0.133400  0.022233  0.023318      8.000000
  0.044467  0.044467  0.023318      8.000000
  0.066700  0.044467  0.023318     16.000000
  0.088933  0.044467  0.023318     16.000000
  0.111166  0.044467  0.023318     16.000000
  0.133400  0.044467  0.023318      8.000000
  0.066700  0.066700  0.023318      8.000000
  0.088933  0.066700  0.023318     16.000000
  0.111166  0.066700  0.023318     16.000000
  0.133400  0.066700  0.023318      8.000000
  0.088933  0.088933  0.023318      8.000000
  0.111166  0.088933  0.023318     16.000000
  0.133400  0.088933  0.023318      8.000000
  0.111166  0.111166  0.023318      8.000000
  0.133400  0.111166  0.023318      8.000000
  0.133400  0.133400  0.023318      2.000000
  0.000000  0.000000  0.046637      2.000000
  0.022233  0.000000  0.046637      8.000000
  0.044467  0.000000  0.046637      8.000000
  0.066700  0.000000  0.046637      8.000000
  0.088933  0.000000  0.046637      8.000000
  0.111166  0.000000  0.046637      8.000000
  0.133400  0.000000  0.046637      4.000000
  0.022233  0.022233  0.046637      8.000000
  0.044467  0.022233  0.046637     16.000000
  0.066700  0.022233  0.046637     16.000000
  0.088933  0.022233  0.046637     16.000000
  0.111166  0.022233  0.046637     16.000000
  0.133400  0.022233  0.046637      8.000000
  0.044467  0.044467  0.046637      8.000000
  0.066700  0.044467  0.046637     16.000000
  0.088933  0.044467  0.046637     16.000000
  0.111166  0.044467  0.046637     16.000000
  0.133400  0.044467  0.046637      8.000000
  0.066700  0.066700  0.046637      8.000000
  0.088933  0.066700  0.046637     16.000000
  0.111166  0.066700  0.046637     16.000000
  0.133400  0.066700  0.046637      8.000000
  0.088933  0.088933  0.046637      8.000000
  0.111166  0.088933  0.046637     16.000000
  0.133400  0.088933  0.046637      8.000000
  0.111166  0.111166  0.046637      8.000000
  0.133400  0.111166  0.046637      8.000000
  0.133400  0.133400  0.046637      2.000000
  0.000000  0.000000  0.069955      2.000000
  0.022233  0.000000  0.069955      8.000000
  0.044467  0.000000  0.069955      8.000000
  0.066700  0.000000  0.069955      8.000000
  0.088933  0.000000  0.069955      8.000000
  0.111166  0.000000  0.069955      8.000000
  0.133400  0.000000  0.069955      4.000000
  0.022233  0.022233  0.069955      8.000000
  0.044467  0.022233  0.069955     16.000000
  0.066700  0.022233  0.069955     16.000000
  0.088933  0.022233  0.069955     16.000000
  0.111166  0.022233  0.069955     16.000000
  0.133400  0.022233  0.069955      8.000000
  0.044467  0.044467  0.069955      8.000000
  0.066700  0.044467  0.069955     16.000000
  0.088933  0.044467  0.069955     16.000000
  0.111166  0.044467  0.069955     16.000000
  0.133400  0.044467  0.069955      8.000000
  0.066700  0.066700  0.069955      8.000000
  0.088933  0.066700  0.069955     16.000000
  0.111166  0.066700  0.069955     16.000000
  0.133400  0.066700  0.069955      8.000000
  0.088933  0.088933  0.069955      8.000000
  0.111166  0.088933  0.069955     16.000000
  0.133400  0.088933  0.069955      8.000000
  0.111166  0.111166  0.069955      8.000000
  0.133400  0.111166  0.069955      8.000000
  0.133400  0.133400  0.069955      2.000000
  0.000000  0.000000  0.093274      2.000000
  0.022233  0.000000  0.093274      8.000000
  0.044467  0.000000  0.093274      8.000000
  0.066700  0.000000  0.093274      8.000000
  0.088933  0.000000  0.093274      8.000000
  0.111166  0.000000  0.093274      8.000000
  0.133400  0.000000  0.093274      4.000000
  0.022233  0.022233  0.093274      8.000000
  0.044467  0.022233  0.093274     16.000000
  0.066700  0.022233  0.093274     16.000000
  0.088933  0.022233  0.093274     16.000000
  0.111166  0.022233  0.093274     16.000000
  0.133400  0.022233  0.093274      8.000000
  0.044467  0.044467  0.093274      8.000000
  0.066700  0.044467  0.093274     16.000000
  0.088933  0.044467  0.093274     16.000000
  0.111166  0.044467  0.093274     16.000000
  0.133400  0.044467  0.093274      8.000000
  0.066700  0.066700  0.093274      8.000000
  0.088933  0.066700  0.093274     16.000000
  0.111166  0.066700  0.093274     16.000000
  0.133400  0.066700  0.093274      8.000000
  0.088933  0.088933  0.093274      8.000000
  0.111166  0.088933  0.093274     16.000000
  0.133400  0.088933  0.093274      8.000000
  0.111166  0.111166  0.093274      8.000000
  0.133400  0.111166  0.093274      8.000000
  0.133400  0.133400  0.093274      2.000000
  0.000000  0.000000  0.116592      2.000000
  0.022233  0.000000  0.116592      8.000000
  0.044467  0.000000  0.116592      8.000000
  0.066700  0.000000  0.116592      8.000000
  0.088933  0.000000  0.116592      8.000000
  0.111166  0.000000  0.116592      8.000000
  0.133400  0.000000  0.116592      4.000000
  0.022233  0.022233  0.116592      8.000000
  0.044467  0.022233  0.116592     16.000000
  0.066700  0.022233  0.116592     16.000000
  0.088933  0.022233  0.116592     16.000000
  0.111166  0.022233  0.116592     16.000000
  0.133400  0.022233  0.116592      8.000000
  0.044467  0.044467  0.116592      8.000000
  0.066700  0.044467  0.116592     16.000000
  0.088933  0.044467  0.116592     16.000000
  0.111166  0.044467  0.116592     16.000000
  0.133400  0.044467  0.116592      8.000000
  0.066700  0.066700  0.116592      8.000000
  0.088933  0.066700  0.116592     16.000000
  0.111166  0.066700  0.116592     16.000000
  0.133400  0.066700  0.116592      8.000000
  0.088933  0.088933  0.116592      8.000000
  0.111166  0.088933  0.116592     16.000000
  0.133400  0.088933  0.116592      8.000000
  0.111166  0.111166  0.116592      8.000000
  0.133400  0.111166  0.116592      8.000000
  0.133400  0.133400  0.116592      2.000000
  0.000000  0.000000  0.139911      1.000000
  0.022233  0.000000  0.139911      4.000000
  0.044467  0.000000  0.139911      4.000000
  0.066700  0.000000  0.139911      4.000000
  0.088933  0.000000  0.139911      4.000000
  0.111166  0.000000  0.139911      4.000000
  0.133400  0.000000  0.139911      2.000000
  0.022233  0.022233  0.139911      4.000000
  0.044467  0.022233  0.139911      8.000000
  0.066700  0.022233  0.139911      8.000000
  0.088933  0.022233  0.139911      8.000000
  0.111166  0.022233  0.139911      8.000000
  0.133400  0.022233  0.139911      4.000000
  0.044467  0.044467  0.139911      4.000000
  0.066700  0.044467  0.139911      8.000000
  0.088933  0.044467  0.139911      8.000000
  0.111166  0.044467  0.139911      8.000000
  0.133400  0.044467  0.139911      4.000000
  0.066700  0.066700  0.139911      4.000000
  0.088933  0.066700  0.139911      8.000000
  0.111166  0.066700  0.139911      8.000000
  0.133400  0.066700  0.139911      4.000000
  0.088933  0.088933  0.139911      4.000000
  0.111166  0.088933  0.139911      8.000000
  0.133400  0.088933  0.139911      4.000000
  0.111166  0.111166  0.139911      4.000000
  0.133400  0.111166  0.139911      4.000000
  0.133400  0.133400  0.139911      1.000000
 
 TETIRR: Found   2592 inequivalent tetrahedra from    10368


--------------------------------------------------------------------------------------------------------




 Dimension of arrays:
   k-points           NKPTS =    196   k-points in BZ     NKDIM =    196   number of bands    NBANDS=     24
   number of dos      NEDOS =    301   number of ions     NIONS =      8
   non local maximal  LDIM  =      4   non local SUM 2l+1 LMDIM =      8
   total plane-waves  NPLWV =  18816
   max r-space proj   IRMAX =      1   max aug-charges    IRDMAX=   4562
   dimension x,y,z NGX =    28 NGY =   28 NGZ =   24
   dimension x,y,z NGXF=    56 NGYF=   56 NGZF=   48
   support grid    NGXF=    56 NGYF=   56 NGZF=   48
   ions per type =               8
   NGX,Y,Z   is equivalent  to a cutoff of  12.36, 12.36, 11.11 a.u.
   NGXF,Y,Z  is equivalent  to a cutoff of  24.73, 24.73, 22.23 a.u.

 SYSTEM =  unknown system                          
 POSCAR =  C8                                      

 Startparameter for this run:
   NWRITE =      2    write-flag & timer
   PREC   = accura    normal or accurate (medium, high low for compatibility)
   ISTART =      0    job   : 0-new  1-cont  2-samecut
   ICHARG =      2    charge: 1-file 2-atom 10-const
   ISPIN  =      1    spin polarized calculation?
   LNONCOLLINEAR =      F non collinear calculations
   LSORBIT =      F    spin-orbit coupling
   INIWAV =      1    electr: 0-lowe 1-rand  2-diag
   LASPH  =      F    aspherical Exc in radial PAW
   METAGGA=      F    non-selfconsistent MetaGGA calc.

 Electronic Relaxation 1
   ENCUT  =  400.0 eV  29.40 Ry    5.42 a.u.   6.14  6.14  5.85*2*pi/ulx,y,z
   ENINI  =  400.0     initial cutoff
   ENAUG  =  644.9 eV  augmentation charge cutoff
   NELM   =     60;   NELMIN=  2; NELMDL= -5     # of ELM steps 
   EDIFF  = 0.1E-05   stopping-criterion for ELM
   LREAL  =      F    real-space projection
   NLSPLINE    = F    spline interpolate recip. space projectors
   LCOMPAT=      F    compatible to vasp.4.4
   GGA_COMPAT  = T    GGA compatible to vasp.4.4-vasp.4.6
   LMAXPAW     = -100 max onsite density
   LMAXMIX     =    2 max onsite mixed and CHGCAR
   VOSKOWN=      0    Vosko Wilk Nusair interpolation
   ROPT   =    0.00000
 Ionic relaxation
   EDIFFG = 0.1E-04   stopping-criterion for IOM
   NSW    =      0    number of steps for IOM
   NBLOCK =      1;   KBLOCK =      1    inner block; outer block 
   IBRION =     -1    ionic relax: 0-MD 1-quasi-New 2-CG
   NFREE  =      0    steps in history (QN), initial steepest desc. (CG)
   ISIF   =      2    stress and relaxation
   IWAVPR =     10    prediction:  0-non 1-charg 2-wave 3-comb
   ISYM   =      2    0-nonsym 1-usesym 2-fastsym
   LCORR  =      T    Harris-Foulkes like correction to forces

   POTIM  = 0.0200    time-step for ionic-motion
   TEIN   =    0.0    initial temperature
   TEBEG  =    0.0;   TEEND  =   0.0 temperature during run
   SMASS  =  -3.00    Nose mass-parameter (am)
   estimated Nose-frequenzy (Omega)   =  0.10E-29 period in steps =****** mass=  -0.324E-27a.u.
   SCALEE = 1.0000    scale energy and forces
   NPACO  =    256;   APACO  = 16.0  distance and # of slots for P.C.
   PSTRESS=    0.0 pullay stress

  Mass of Ions in am
   POMASS =  12.01
  Ionic Valenz
   ZVAL   =   4.00
  Atomic Wigner-Seitz radii
   RWIGS  =  -1.00
  virtual crystal weights 
   VCA    =   1.00
   NELECT =      32.0000    total number of electrons
   NUPDOWN=      -1.0000    fix difference up-down

 DOS related values:
   EMIN   =  10.00;   EMAX   =-10.00  energy-range for DOS
   EFERMI =   0.00
   ISMEAR =    -5;   SIGMA  =   0.06  broadening in eV -4-tet -1-fermi 0-gaus

 Electronic relaxation 2 (details)
   IALGO  =     38    algorithm
   LDIAG  =      T    sub-space diagonalisation (order eigenvalues)
   LSUBROT=      F    optimize rotation matrix (better conditioning)
   TURBO    =      0    0=normal 1=particle mesh
   IRESTART =      0    0=no restart 2=restart with 2 vectors
   NREBOOT  =      0    no. of reboots
   NMIN     =      0    reboot dimension
   EREF     =   0.00    reference energy to select bands
   IMIX   =      4    mixing-type and parameters
     AMIX     =   0.40;   BMIX     =  1.00
     AMIX_MAG =   1.60;   BMIX_MAG =  1.00
     AMIN     =   0.10
     WC   =   100.;   INIMIX=   1;  MIXPRE=   1;  MAXMIX= -45

 Intra band minimization:
   WEIMIN = 0.0000     energy-eigenvalue tresh-hold
   EBREAK =  0.10E-07  absolut break condition
   DEPER  =   0.30     relativ break condition  

   TIME   =   0.40     timestep for ELM

  volume/ion in A,a.u.               =       6.36        42.93
  Fermi-wavevector in a.u.,A,eV,Ry     =   1.402489  2.650320 26.762333  1.966976
  Thomas-Fermi vector in A             =   2.525246
 
 Write flags
   LWAVE        =      F    write WAVECAR
   LDOWNSAMPLE  =      F    k-point downsampling of WAVECAR
   LCHARG       =      F    write CHGCAR
   LVTOT        =      F    write LOCPOT, total local potential
   LVHAR        =      F    write LOCPOT, Hartree potential only
   LELF         =      F    write electronic localiz. function (ELF)
   LORBIT       =      0    0 simple, 1 ext, 2 COOP (PROOUT), +10 PAW based schemes


 Dipole corrections
   LMONO  =      F    monopole corrections only (constant potential shift)
   LDIPOL =      F    correct potential (dipole corrections)
   IDIPOL =      0    1-x, 2-y, 3-z, 4-all directions 
   EPSILON=  1.0000000 bulk dielectric constant

 Exchange correlation treatment:
   GGA     =    --    GGA type
   LEXCH   =     8    internal setting for exchange type
   VOSKOWN=      0    Vosko Wilk Nusair interpolation
   LHFCALC =     F    Hartree Fock is set to
   LHFONE  =     F    Hartree Fock one center treatment
   AEXX    =    0.0000 exact exchange contribution

 Linear response parameters
   LEPSILON=     F    determine dielectric tensor
   LRPA    =     F    only Hartree local field effects (RPA)
   LNABLA  =     F    use nabla operator in PAW spheres
   LVEL    =     F    velocity operator in full k-point grid
   LINTERFAST=   F  fast interpolation
   KINTER  =     0    interpolate to denser k-point grid
   CSHIFT  =0.1000    complex shift for real part using Kramers Kronig
   OMEGAMAX=  -1.0    maximum frequency
   DEG_THRESHOLD= 0.2000000E-02 threshold for treating states as degnerate
   RTIME   =   -0.100 relaxation time in fs
  (WPLASMAI=    0.000 imaginary part of plasma frequency in eV, 0.658/RTIME)
   DFIELD  = 0.0000000 0.0000000 0.0000000 field for delta impulse in time
 
 Orbital magnetization related:
   ORBITALMAG=     F  switch on orbital magnetization
   LCHIMAG   =     F  perturbation theory with respect to B field
   DQ        =  0.001000  dq finite difference perturbation B field
   LLRAUG    =     F  two centre corrections for induced B field



--------------------------------------------------------------------------------------------------------


 Static calculation
 charge density and potential will be updated during run
 non-spin polarized calculation
 Variant of blocked Davidson
 Davidson routine will perform the subspace rotation
 perform sub-space diagonalisation
    after iterative eigenvector-optimisation
 modified Broyden-mixing scheme, WC =      100.0
 initial mixing is a Kerker type mixing with AMIX =  0.4000 and BMIX =      1.0000
 Hartree-type preconditioning will be used
 using additional bands            8
 reciprocal scheme for non local part
 calculate Harris-corrections to forces 
   (improved forces if not selfconsistent)
 use gradient corrections 
 use of overlap-Matrix (Vanderbilt PP)
 Fermi weights with tetrahedron method with Bloechl corrections


--------------------------------------------------------------------------------------------------------


  energy-cutoff  :      400.00
  volume of cell :       50.90
      direct lattice vectors                 reciprocal lattice vectors
     3.765223425  0.000000000  0.000000000     0.265588489  0.000000000  0.000000000
     0.000000000  3.765223425  0.000000000     0.000000000  0.265588489  0.000000000
     0.000000000  0.000000000  3.589999359     0.000000000  0.000000000  0.278551582

  length of vectors
     3.765223425  3.765223425  3.589999359     0.265588489  0.265588489  0.278551582


 
 k-points in units of 2pi/SCALE and weight: kpt_density=1000                        
   0.00000000  0.00000000  0.00000000       0.001
   0.02223326  0.00000000  0.00000000       0.002
   0.04446651  0.00000000  0.00000000       0.002
   0.06669977  0.00000000  0.00000000       0.002
   0.08893302  0.00000000  0.00000000       0.002
   0.11116628  0.00000000  0.00000000       0.002
   0.13339954  0.00000000  0.00000000       0.001
   0.02223326  0.02223326  0.00000000       0.002
   0.04446651  0.02223326  0.00000000       0.005
   0.06669977  0.02223326  0.00000000       0.005
   0.08893302  0.02223326  0.00000000       0.005
   0.11116628  0.02223326  0.00000000       0.005
   0.13339954  0.02223326  0.00000000       0.002
   0.04446651  0.04446651  0.00000000       0.002
   0.06669977  0.04446651  0.00000000       0.005
   0.08893302  0.04446651  0.00000000       0.005
   0.11116628  0.04446651  0.00000000       0.005
   0.13339954  0.04446651  0.00000000       0.002
   0.06669977  0.06669977  0.00000000       0.002
   0.08893302  0.06669977  0.00000000       0.005
   0.11116628  0.06669977  0.00000000       0.005
   0.13339954  0.06669977  0.00000000       0.002
   0.08893302  0.08893302  0.00000000       0.002
   0.11116628  0.08893302  0.00000000       0.005
   0.13339954  0.08893302  0.00000000       0.002
   0.11116628  0.11116628  0.00000000       0.002
   0.13339954  0.11116628  0.00000000       0.002
   0.13339954  0.13339954  0.00000000       0.001
   0.00000000  0.00000000  0.02331844       0.001
   0.02223326  0.00000000  0.02331844       0.005
   0.04446651  0.00000000  0.02331844       0.005
   0.06669977  0.00000000  0.02331844       0.005
   0.08893302  0.00000000  0.02331844       0.005
   0.11116628  0.00000000  0.02331844       0.005
   0.13339954  0.00000000  0.02331844       0.002
   0.02223326  0.02223326  0.02331844       0.005
   0.04446651  0.02223326  0.02331844       0.009
   0.06669977  0.02223326  0.02331844       0.009
   0.08893302  0.02223326  0.02331844       0.009
   0.11116628  0.02223326  0.02331844       0.009
   0.13339954  0.02223326  0.02331844       0.005
   0.04446651  0.04446651  0.02331844       0.005
   0.06669977  0.04446651  0.02331844       0.009
   0.08893302  0.04446651  0.02331844       0.009
   0.11116628  0.04446651  0.02331844       0.009
   0.13339954  0.04446651  0.02331844       0.005
   0.06669977  0.06669977  0.02331844       0.005
   0.08893302  0.06669977  0.02331844       0.009
   0.11116628  0.06669977  0.02331844       0.009
   0.13339954  0.06669977  0.02331844       0.005
   0.08893302  0.08893302  0.02331844       0.005
   0.11116628  0.08893302  0.02331844       0.009
   0.13339954  0.08893302  0.02331844       0.005
   0.11116628  0.11116628  0.02331844       0.005
   0.13339954  0.11116628  0.02331844       0.005
   0.13339954  0.13339954  0.02331844       0.001
   0.00000000  0.00000000  0.04663688       0.001
   0.02223326  0.00000000  0.04663688       0.005
   0.04446651  0.00000000  0.04663688       0.005
   0.06669977  0.00000000  0.04663688       0.005
   0.08893302  0.00000000  0.04663688       0.005
   0.11116628  0.00000000  0.04663688       0.005
   0.13339954  0.00000000  0.04663688       0.002
   0.02223326  0.02223326  0.04663688       0.005
   0.04446651  0.02223326  0.04663688       0.009
   0.06669977  0.02223326  0.04663688       0.009
   0.08893302  0.02223326  0.04663688       0.009
   0.11116628  0.02223326  0.04663688       0.009
   0.13339954  0.02223326  0.04663688       0.005
   0.04446651  0.04446651  0.04663688       0.005
   0.06669977  0.04446651  0.04663688       0.009
   0.08893302  0.04446651  0.04663688       0.009
   0.11116628  0.04446651  0.04663688       0.009
   0.13339954  0.04446651  0.04663688       0.005
   0.06669977  0.06669977  0.04663688       0.005
   0.08893302  0.06669977  0.04663688       0.009
   0.11116628  0.06669977  0.04663688       0.009
   0.13339954  0.06669977  0.04663688       0.005
   0.08893302  0.08893302  0.04663688       0.005
   0.11116628  0.08893302  0.04663688       0.009
   0.13339954  0.08893302  0.04663688       0.005
   0.11116628  0.11116628  0.04663688       0.005
   0.13339954  0.11116628  0.04663688       0.005
   0.13339954  0.13339954  0.04663688       0.001
   0.00000000  0.00000000  0.06995531       0.001
   0.02223326  0.00000000  0.06995531       0.005
   0.04446651  0.00000000  0.06995531       0.005
   0.06669977  0.00000000  0.06995531       0.005
   0.08893302  0.00000000  0.06995531       0.005
   0.11116628  0.00000000  0.06995531       0.005
   0.13339954  0.00000000  0.06995531       0.002
   0.02223326  0.02223326  0.06995531       0.005
   0.04446651  0.02223326  0.06995531       0.009
   0.06669977  0.02223326  0.06995531       0.009
   0.08893302  0.02223326  0.06995531       0.009
   0.11116628  0.02223326  0.06995531       0.009
   0.13339954  0.02223326  0.06995531       0.005
   0.04446651  0.04446651  0.06995531       0.005
   0.06669977  0.04446651  0.06995531       0.009
   0.08893302  0.04446651  0.06995531       0.009
   0.11116628  0.04446651  0.06995531       0.009
   0.13339954  0.04446651  0.06995531       0.005
   0.06669977  0.06669977  0.06995531       0.005
   0.08893302  0.06669977  0.06995531       0.009
   0.11116628  0.06669977  0.06995531       0.009
   0.13339954  0.06669977  0.06995531       0.005
   0.08893302  0.08893302  0.06995531       0.005
   0.11116628  0.08893302  0.06995531       0.009
   0.13339954  0.08893302  0.06995531       0.005
   0.11116628  0.11116628  0.06995531       0.005
   0.13339954  0.11116628  0.06995531       0.005
   0.13339954  0.13339954  0.06995531       0.001
   0.00000000  0.00000000  0.09327375       0.001
   0.02223326  0.00000000  0.09327375       0.005
   0.04446651  0.00000000  0.09327375       0.005
   0.06669977  0.00000000  0.09327375       0.005
   0.08893302  0.00000000  0.09327375       0.005
   0.11116628  0.00000000  0.09327375       0.005
   0.13339954  0.00000000  0.09327375       0.002
   0.02223326  0.02223326  0.09327375       0.005
   0.04446651  0.02223326  0.09327375       0.009
   0.06669977  0.02223326  0.09327375       0.009
   0.08893302  0.02223326  0.09327375       0.009
   0.11116628  0.02223326  0.09327375       0.009
   0.13339954  0.02223326  0.09327375       0.005
   0.04446651  0.04446651  0.09327375       0.005
   0.06669977  0.04446651  0.09327375       0.009
   0.08893302  0.04446651  0.09327375       0.009
   0.11116628  0.04446651  0.09327375       0.009
   0.13339954  0.04446651  0.09327375       0.005
   0.06669977  0.06669977  0.09327375       0.005
   0.08893302  0.06669977  0.09327375       0.009
   0.11116628  0.06669977  0.09327375       0.009
   0.13339954  0.06669977  0.09327375       0.005
   0.08893302  0.08893302  0.09327375       0.005
   0.11116628  0.08893302  0.09327375       0.009
   0.13339954  0.08893302  0.09327375       0.005
   0.11116628  0.11116628  0.09327375       0.005
   0.13339954  0.11116628  0.09327375       0.005
   0.13339954  0.13339954  0.09327375       0.001
   0.00000000  0.00000000  0.11659219       0.001
   0.02223326  0.00000000  0.11659219       0.005
   0.04446651  0.00000000  0.11659219       0.005
   0.06669977  0.00000000  0.11659219       0.005
   0.08893302  0.00000000  0.11659219       0.005
   0.11116628  0.00000000  0.11659219       0.005
   0.13339954  0.00000000  0.11659219       0.002
   0.02223326  0.02223326  0.11659219       0.005
   0.04446651  0.02223326  0.11659219       0.009
   0.06669977  0.02223326  0.11659219       0.009
   0.08893302  0.02223326  0.11659219       0.009
   0.11116628  0.02223326  0.11659219       0.009
   0.13339954  0.02223326  0.11659219       0.005
   0.04446651  0.04446651  0.11659219       0.005
   0.06669977  0.04446651  0.11659219       0.009
   0.08893302  0.04446651  0.11659219       0.009
   0.11116628  0.04446651  0.11659219       0.009
   0.13339954  0.04446651  0.11659219       0.005
   0.06669977  0.06669977  0.11659219       0.005
   0.08893302  0.06669977  0.11659219       0.009
   0.11116628  0.06669977  0.11659219       0.009
   0.13339954  0.06669977  0.11659219       0.005
   0.08893302  0.08893302  0.11659219       0.005
   0.11116628  0.08893302  0.11659219       0.009
   0.13339954  0.08893302  0.11659219       0.005
   0.11116628  0.11116628  0.11659219       0.005
   0.13339954  0.11116628  0.11659219       0.005
   0.13339954  0.13339954  0.11659219       0.001
   0.00000000  0.00000000  0.13991063       0.001
   0.02223326  0.00000000  0.13991063       0.002
   0.04446651  0.00000000  0.13991063       0.002
   0.06669977  0.00000000  0.13991063       0.002
   0.08893302  0.00000000  0.13991063       0.002
   0.11116628  0.00000000  0.13991063       0.002
   0.13339954  0.00000000  0.13991063       0.001
   0.02223326  0.02223326  0.13991063       0.002
   0.04446651  0.02223326  0.13991063       0.005
   0.06669977  0.02223326  0.13991063       0.005
   0.08893302  0.02223326  0.13991063       0.005
   0.11116628  0.02223326  0.13991063       0.005
   0.13339954  0.02223326  0.13991063       0.002
   0.04446651  0.04446651  0.13991063       0.002
   0.06669977  0.04446651  0.13991063       0.005
   0.08893302  0.04446651  0.13991063       0.005
   0.11116628  0.04446651  0.13991063       0.005
   0.13339954  0.04446651  0.13991063       0.002
   0.06669977  0.06669977  0.13991063       0.002
   0.08893302  0.06669977  0.13991063       0.005
   0.11116628  0.06669977  0.13991063       0.005
   0.13339954  0.06669977  0.13991063       0.002
   0.08893302  0.08893302  0.13991063       0.002
   0.11116628  0.08893302  0.13991063       0.005
   0.13339954  0.08893302  0.13991063       0.002
   0.11116628  0.11116628  0.13991063       0.002
   0.13339954  0.11116628  0.13991063       0.002
   0.13339954  0.13339954  0.13991063       0.001
 
 k-points in reciprocal lattice and weights: kpt_density=1000                        
   0.00000000  0.00000000  0.00000000       0.001
   0.08333333  0.00000000  0.00000000       0.002
   0.16666667  0.00000000  0.00000000       0.002
   0.25000000  0.00000000  0.00000000       0.002
   0.33333333  0.00000000  0.00000000       0.002
   0.41666667  0.00000000  0.00000000       0.002
   0.50000000  0.00000000  0.00000000       0.001
   0.08333333  0.08333333  0.00000000       0.002
   0.16666667  0.08333333  0.00000000       0.005
   0.25000000  0.08333333  0.00000000       0.005
   0.33333333  0.08333333  0.00000000       0.005
   0.41666667  0.08333333  0.00000000       0.005
   0.50000000  0.08333333  0.00000000       0.002
   0.16666667  0.16666667  0.00000000       0.002
   0.25000000  0.16666667  0.00000000       0.005
   0.33333333  0.16666667  0.00000000       0.005
   0.41666667  0.16666667  0.00000000       0.005
   0.50000000  0.16666667  0.00000000       0.002
   0.25000000  0.25000000  0.00000000       0.002
   0.33333333  0.25000000  0.00000000       0.005
   0.41666667  0.25000000  0.00000000       0.005
   0.50000000  0.25000000  0.00000000       0.002
   0.33333333  0.33333333  0.00000000       0.002
   0.41666667  0.33333333  0.00000000       0.005
   0.50000000  0.33333333  0.00000000       0.002
   0.41666667  0.41666667  0.00000000       0.002
   0.50000000  0.41666667  0.00000000       0.002
   0.50000000  0.50000000  0.00000000       0.001
   0.00000000  0.00000000  0.08333333       0.001
   0.08333333  0.00000000  0.08333333       0.005
   0.16666667  0.00000000  0.08333333       0.005
   0.25000000  0.00000000  0.08333333       0.005
   0.33333333  0.00000000  0.08333333       0.005
   0.41666667  0.00000000  0.08333333       0.005
   0.50000000  0.00000000  0.08333333       0.002
   0.08333333  0.08333333  0.08333333       0.005
   0.16666667  0.08333333  0.08333333       0.009
   0.25000000  0.08333333  0.08333333       0.009
   0.33333333  0.08333333  0.08333333       0.009
   0.41666667  0.08333333  0.08333333       0.009
   0.50000000  0.08333333  0.08333333       0.005
   0.16666667  0.16666667  0.08333333       0.005
   0.25000000  0.16666667  0.08333333       0.009
   0.33333333  0.16666667  0.08333333       0.009
   0.41666667  0.16666667  0.08333333       0.009
   0.50000000  0.16666667  0.08333333       0.005
   0.25000000  0.25000000  0.08333333       0.005
   0.33333333  0.25000000  0.08333333       0.009
   0.41666667  0.25000000  0.08333333       0.009
   0.50000000  0.25000000  0.08333333       0.005
   0.33333333  0.33333333  0.08333333       0.005
   0.41666667  0.33333333  0.08333333       0.009
   0.50000000  0.33333333  0.08333333       0.005
   0.41666667  0.41666667  0.08333333       0.005
   0.50000000  0.41666667  0.08333333       0.005
   0.50000000  0.50000000  0.08333333       0.001
   0.00000000  0.00000000  0.16666667       0.001
   0.08333333  0.00000000  0.16666667       0.005
   0.16666667  0.00000000  0.16666667       0.005
   0.25000000  0.00000000  0.16666667       0.005
   0.33333333  0.00000000  0.16666667       0.005
   0.41666667  0.00000000  0.16666667       0.005
   0.50000000  0.00000000  0.16666667       0.002
   0.08333333  0.08333333  0.16666667       0.005
   0.16666667  0.08333333  0.16666667       0.009
   0.25000000  0.08333333  0.16666667       0.009
   0.33333333  0.08333333  0.16666667       0.009
   0.41666667  0.08333333  0.16666667       0.009
   0.50000000  0.08333333  0.16666667       0.005
   0.16666667  0.16666667  0.16666667       0.005
   0.25000000  0.16666667  0.16666667       0.009
   0.33333333  0.16666667  0.16666667       0.009
   0.41666667  0.16666667  0.16666667       0.009
   0.50000000  0.16666667  0.16666667       0.005
   0.25000000  0.25000000  0.16666667       0.005
   0.33333333  0.25000000  0.16666667       0.009
   0.41666667  0.25000000  0.16666667       0.009
   0.50000000  0.25000000  0.16666667       0.005
   0.33333333  0.33333333  0.16666667       0.005
   0.41666667  0.33333333  0.16666667       0.009
   0.50000000  0.33333333  0.16666667       0.005
   0.41666667  0.41666667  0.16666667       0.005
   0.50000000  0.41666667  0.16666667       0.005
   0.50000000  0.50000000  0.16666667       0.001
   0.00000000  0.00000000  0.25000000       0.001
   0.08333333  0.00000000  0.25000000       0.005
   0.16666667  0.00000000  0.25000000       0.005
   0.25000000  0.00000000  0.25000000       0.005
   0.33333333  0.00000000  0.25000000       0.005
   0.41666667  0.00000000  0.25000000       0.005
   0.50000000  0.00000000  0.25000000       0.002
   0.08333333  0.08333333  0.25000000       0.005
   0.16666667  0.08333333  0.25000000       0.009
   0.25000000  0.08333333  0.25000000       0.009
   0.33333333  0.08333333  0.25000000       0.009
   0.41666667  0.08333333  0.25000000       0.009
   0.50000000  0.08333333  0.25000000       0.005
   0.16666667  0.16666667  0.25000000       0.005
   0.25000000  0.16666667  0.25000000       0.009
   0.33333333  0.16666667  0.25000000       0.009
   0.41666667  0.16666667  0.25000000       0.009
   0.50000000  0.16666667  0.25000000       0.005
   0.25000000  0.25000000  0.25000000       0.005
   0.33333333  0.25000000  0.25000000       0.009
   0.41666667  0.25000000  0.25000000       0.009
   0.50000000  0.25000000  0.25000000       0.005
   0.33333333  0.33333333  0.25000000       0.005
   0.41666667  0.33333333  0.25000000       0.009
   0.50000000  0.33333333  0.25000000       0.005
   0.41666667  0.41666667  0.25000000       0.005
   0.50000000  0.41666667  0.25000000       0.005
   0.50000000  0.50000000  0.25000000       0.001
   0.00000000  0.00000000  0.33333333       0.001
   0.08333333  0.00000000  0.33333333       0.005
   0.16666667  0.00000000  0.33333333       0.005
   0.25000000  0.00000000  0.33333333       0.005
   0.33333333  0.00000000  0.33333333       0.005
   0.41666667  0.00000000  0.33333333       0.005
   0.50000000  0.00000000  0.33333333       0.002
   0.08333333  0.08333333  0.33333333       0.005
   0.16666667  0.08333333  0.33333333       0.009
   0.25000000  0.08333333  0.33333333       0.009
   0.33333333  0.08333333  0.33333333       0.009
   0.41666667  0.08333333  0.33333333       0.009
   0.50000000  0.08333333  0.33333333       0.005
   0.16666667  0.16666667  0.33333333       0.005
   0.25000000  0.16666667  0.33333333       0.009
   0.33333333  0.16666667  0.33333333       0.009
   0.41666667  0.16666667  0.33333333       0.009
   0.50000000  0.16666667  0.33333333       0.005
   0.25000000  0.25000000  0.33333333       0.005
   0.33333333  0.25000000  0.33333333       0.009
   0.41666667  0.25000000  0.33333333       0.009
   0.50000000  0.25000000  0.33333333       0.005
   0.33333333  0.33333333  0.33333333       0.005
   0.41666667  0.33333333  0.33333333       0.009
   0.50000000  0.33333333  0.33333333       0.005
   0.41666667  0.41666667  0.33333333       0.005
   0.50000000  0.41666667  0.33333333       0.005
   0.50000000  0.50000000  0.33333333       0.001
   0.00000000  0.00000000  0.41666667       0.001
   0.08333333  0.00000000  0.41666667       0.005
   0.16666667  0.00000000  0.41666667       0.005
   0.25000000  0.00000000  0.41666667       0.005
   0.33333333  0.00000000  0.41666667       0.005
   0.41666667  0.00000000  0.41666667       0.005
   0.50000000  0.00000000  0.41666667       0.002
   0.08333333  0.08333333  0.41666667       0.005
   0.16666667  0.08333333  0.41666667       0.009
   0.25000000  0.08333333  0.41666667       0.009
   0.33333333  0.08333333  0.41666667       0.009
   0.41666667  0.08333333  0.41666667       0.009
   0.50000000  0.08333333  0.41666667       0.005
   0.16666667  0.16666667  0.41666667       0.005
   0.25000000  0.16666667  0.41666667       0.009
   0.33333333  0.16666667  0.41666667       0.009
   0.41666667  0.16666667  0.41666667       0.009
   0.50000000  0.16666667  0.41666667       0.005
   0.25000000  0.25000000  0.41666667       0.005
   0.33333333  0.25000000  0.41666667       0.009
   0.41666667  0.25000000  0.41666667       0.009
   0.50000000  0.25000000  0.41666667       0.005
   0.33333333  0.33333333  0.41666667       0.005
   0.41666667  0.33333333  0.41666667       0.009
   0.50000000  0.33333333  0.41666667       0.005
   0.41666667  0.41666667  0.41666667       0.005
   0.50000000  0.41666667  0.41666667       0.005
   0.50000000  0.50000000  0.41666667       0.001
   0.00000000  0.00000000  0.50000000       0.001
   0.08333333  0.00000000  0.50000000       0.002
   0.16666667  0.00000000  0.50000000       0.002
   0.25000000  0.00000000  0.50000000       0.002
   0.33333333  0.00000000  0.50000000       0.002
   0.41666667  0.00000000  0.50000000       0.002
   0.50000000  0.00000000  0.50000000       0.001
   0.08333333  0.08333333  0.50000000       0.002
   0.16666667  0.08333333  0.50000000       0.005
   0.25000000  0.08333333  0.50000000       0.005
   0.33333333  0.08333333  0.50000000       0.005
   0.41666667  0.08333333  0.50000000       0.005
   0.50000000  0.08333333  0.50000000       0.002
   0.16666667  0.16666667  0.50000000       0.002
   0.25000000  0.16666667  0.50000000       0.005
   0.33333333  0.16666667  0.50000000       0.005
   0.41666667  0.16666667  0.50000000       0.005
   0.50000000  0.16666667  0.50000000       0.002
   0.25000000  0.25000000  0.50000000       0.002
   0.33333333  0.25000000  0.50000000       0.005
   0.41666667  0.25000000  0.50000000       0.005
   0.50000000  0.25000000  0.50000000       0.002
   0.33333333  0.33333333  0.50000000       0.002
   0.41666667  0.33333333  0.50000000       0.005
   0.50000000  0.33333333  0.50000000       0.002
   0.41666667  0.41666667  0.50000000       0.002
   0.50000000  0.41666667  0.50000000       0.002
   0.50000000  0.50000000  0.50000000       0.001
 
 position of ions in fractional coordinates (direct lattice) 
   0.25000000  0.75000000  0.25000000
   0.00000000  0.00000000  0.50000000
   0.25000000  0.25000000  0.75000000
   0.00000000  0.50000000  0.00000000
   0.75000000  0.75000000  0.75000000
   0.50000000  0.00000000  0.00000000
   0.75000000  0.25000000  0.25000000
   0.50000000  0.50000000  0.50000000
 
 position of ions in cartesian coordinates  (Angst):
   0.94130586  2.82391757  0.89749984
   0.00000000  0.00000000  1.79499968
   0.94130586  0.94130586  2.69249952
   0.00000000  1.88261171  0.00000000
   2.82391757  2.82391757  2.69249952
   1.88261171  0.00000000  0.00000000
   2.82391757  0.94130586  0.89749984
   1.88261171  1.88261171  1.79499968
 


--------------------------------------------------------------------------------------------------------


 k-point  1 :   0.0000 0.0000 0.0000  plane waves:     939
 k-point  2 :   0.0833 0.0000 0.0000  plane waves:     931
 k-point  3 :   0.1667 0.0000 0.0000  plane waves:     930
 k-point  4 :   0.2500 0.0000 0.0000  plane waves:     932
 k-point  5 :   0.3333 0.0000 0.0000  plane waves:     932
 k-point  6 :   0.4167 0.0000 0.0000  plane waves:     916
 k-point  7 :   0.5000 0.0000 0.0000  plane waves:     912
 k-point  8 :   0.0833 0.0833 0.0000  plane waves:     925
 k-point  9 :   0.1667 0.0833 0.0000  plane waves:     932
 k-point 10 :   0.2500 0.0833 0.0000  plane waves:     929
 k-point 11 :   0.3333 0.0833 0.0000  plane waves:     926
 k-point 12 :   0.4167 0.0833 0.0000  plane waves:     915
 k-point 13 :   0.5000 0.0833 0.0000  plane waves:     912
 k-point 14 :   0.1667 0.1667 0.0000  plane waves:     921
 k-point 15 :   0.2500 0.1667 0.0000  plane waves:     921
 k-point 16 :   0.3333 0.1667 0.0000  plane waves:     916
 k-point 17 :   0.4167 0.1667 0.0000  plane waves:     918
 k-point 18 :   0.5000 0.1667 0.0000  plane waves:     910
 k-point 19 :   0.2500 0.2500 0.0000  plane waves:     923
 k-point 20 :   0.3333 0.2500 0.0000  plane waves:     920
 k-point 21 :   0.4167 0.2500 0.0000  plane waves:     920
 k-point 22 :   0.5000 0.2500 0.0000  plane waves:     904
 k-point 23 :   0.3333 0.3333 0.0000  plane waves:     923
 k-point 24 :   0.4167 0.3333 0.0000  plane waves:     923
 k-point 25 :   0.5000 0.3333 0.0000  plane waves:     922
 k-point 26 :   0.4167 0.4167 0.0000  plane waves:     934
 k-point 27 :   0.5000 0.4167 0.0000  plane waves:     936
 k-point 28 :   0.5000 0.5000 0.0000  plane waves:     944
 k-point 29 :   0.0000 0.0000 0.0833  plane waves:     923
 k-point 30 :   0.0833 0.0000 0.0833  plane waves:     930
 k-point 31 :   0.1667 0.0000 0.0833  plane waves:     929
 k-point 32 :   0.2500 0.0000 0.0833  plane waves:     927
 k-point 33 :   0.3333 0.0000 0.0833  plane waves:     922
 k-point 34 :   0.4167 0.0000 0.0833  plane waves:     919
 k-point 35 :   0.5000 0.0000 0.0833  plane waves:     918
 k-point 36 :   0.0833 0.0833 0.0833  plane waves:     926
 k-point 37 :   0.1667 0.0833 0.0833  plane waves:     927
 k-point 38 :   0.2500 0.0833 0.0833  plane waves:     924
 k-point 39 :   0.3333 0.0833 0.0833  plane waves:     917
 k-point 40 :   0.4167 0.0833 0.0833  plane waves:     919
 k-point 41 :   0.5000 0.0833 0.0833  plane waves:     914
 k-point 42 :   0.1667 0.1667 0.0833  plane waves:     921
 k-point 43 :   0.2500 0.1667 0.0833  plane waves:     921
 k-point 44 :   0.3333 0.1667 0.0833  plane waves:     918
 k-point 45 :   0.4167 0.1667 0.0833  plane waves:     916
 k-point 46 :   0.5000 0.1667 0.0833  plane waves:     918
 k-point 47 :   0.2500 0.2500 0.0833  plane waves:     923
 k-point 48 :   0.3333 0.2500 0.0833  plane waves:     921
 k-point 49 :   0.4167 0.2500 0.0833  plane waves:     921
 k-point 50 :   0.5000 0.2500 0.0833  plane waves:     916
 k-point 51 :   0.3333 0.3333 0.0833  plane waves:     926
 k-point 52 :   0.4167 0.3333 0.0833  plane waves:     919
 k-point 53 :   0.5000 0.3333 0.0833  plane waves:     918
 k-point 54 :   0.4167 0.4167 0.0833  plane waves:     924
 k-point 55 :   0.5000 0.4167 0.0833  plane waves:     934
 k-point 56 :   0.5000 0.5000 0.0833  plane waves:     944
 k-point 57 :   0.0000 0.0000 0.1667  plane waves:     928
 k-point 58 :   0.0833 0.0000 0.1667  plane waves:     924
 k-point 59 :   0.1667 0.0000 0.1667  plane waves:     923
 k-point 60 :   0.2500 0.0000 0.1667  plane waves:     922
 k-point 61 :   0.3333 0.0000 0.1667  plane waves:     922
 k-point 62 :   0.4167 0.0000 0.1667  plane waves:     922
 k-point 63 :   0.5000 0.0000 0.1667  plane waves:     920
 k-point 64 :   0.0833 0.0833 0.1667  plane waves:     921
 k-point 65 :   0.1667 0.0833 0.1667  plane waves:     919
 k-point 66 :   0.2500 0.0833 0.1667  plane waves:     921
 k-point 67 :   0.3333 0.0833 0.1667  plane waves:     921
 k-point 68 :   0.4167 0.0833 0.1667  plane waves:     921
 k-point 69 :   0.5000 0.0833 0.1667  plane waves:     924
 k-point 70 :   0.1667 0.1667 0.1667  plane waves:     918
 k-point 71 :   0.2500 0.1667 0.1667  plane waves:     921
 k-point 72 :   0.3333 0.1667 0.1667  plane waves:     924
 k-point 73 :   0.4167 0.1667 0.1667  plane waves:     920
 k-point 74 :   0.5000 0.1667 0.1667  plane waves:     916
 k-point 75 :   0.2500 0.2500 0.1667  plane waves:     923
 k-point 76 :   0.3333 0.2500 0.1667  plane waves:     923
 k-point 77 :   0.4167 0.2500 0.1667  plane waves:     923
 k-point 78 :   0.5000 0.2500 0.1667  plane waves:     922
 k-point 79 :   0.3333 0.3333 0.1667  plane waves:     922
 k-point 80 :   0.4167 0.3333 0.1667  plane waves:     924
 k-point 81 :   0.5000 0.3333 0.1667  plane waves:     924
 k-point 82 :   0.4167 0.4167 0.1667  plane waves:     925
 k-point 83 :   0.5000 0.4167 0.1667  plane waves:     928
 k-point 84 :   0.5000 0.5000 0.1667  plane waves:     936
 k-point 85 :   0.0000 0.0000 0.2500  plane waves:     936
 k-point 86 :   0.0833 0.0000 0.2500  plane waves:     925
 k-point 87 :   0.1667 0.0000 0.2500  plane waves:     920
 k-point 88 :   0.2500 0.0000 0.2500  plane waves:     923
 k-point 89 :   0.3333 0.0000 0.2500  plane waves:     918
 k-point 90 :   0.4167 0.0000 0.2500  plane waves:     927
 k-point 91 :   0.5000 0.0000 0.2500  plane waves:     930
 k-point 92 :   0.0833 0.0833 0.2500  plane waves:     921
 k-point 93 :   0.1667 0.0833 0.2500  plane waves:     920
 k-point 94 :   0.2500 0.0833 0.2500  plane waves:     922
 k-point 95 :   0.3333 0.0833 0.2500  plane waves:     927
 k-point 96 :   0.4167 0.0833 0.2500  plane waves:     927
 k-point 97 :   0.5000 0.0833 0.2500  plane waves:     928
 k-point 98 :   0.1667 0.1667 0.2500  plane waves:     916
 k-point 99 :   0.2500 0.1667 0.2500  plane waves:     919
 k-point ** :   0.3333 0.1667 0.2500  plane waves:     925
 k-point ** :   0.4167 0.1667 0.2500  plane waves:     930
 k-point ** :   0.5000 0.1667 0.2500  plane waves:     926
 k-point ** :   0.2500 0.2500 0.2500  plane waves:     921
 k-point ** :   0.3333 0.2500 0.2500  plane waves:     925
 k-point ** :   0.4167 0.2500 0.2500  plane waves:     924
 k-point ** :   0.5000 0.2500 0.2500  plane waves:     928
 k-point ** :   0.3333 0.3333 0.2500  plane waves:     928
 k-point ** :   0.4167 0.3333 0.2500  plane waves:     924
 k-point ** :   0.5000 0.3333 0.2500  plane waves:     932
 k-point ** :   0.4167 0.4167 0.2500  plane waves:     927
 k-point ** :   0.5000 0.4167 0.2500  plane waves:     926
 k-point ** :   0.5000 0.5000 0.2500  plane waves:     920
 k-point ** :   0.0000 0.0000 0.3333  plane waves:     936
 k-point ** :   0.0833 0.0000 0.3333  plane waves:     926
 k-point ** :   0.1667 0.0000 0.3333  plane waves:     920
 k-point ** :   0.2500 0.0000 0.3333  plane waves:     921
 k-point ** :   0.3333 0.0000 0.3333  plane waves:     918
 k-point ** :   0.4167 0.0000 0.3333  plane waves:     927
 k-point ** :   0.5000 0.0000 0.3333  plane waves:     936
 k-point ** :   0.0833 0.0833 0.3333  plane waves:     922
 k-point ** :   0.1667 0.0833 0.3333  plane waves:     917
 k-point ** :   0.2500 0.0833 0.3333  plane waves:     921
 k-point ** :   0.3333 0.0833 0.3333  plane waves:     923
 k-point ** :   0.4167 0.0833 0.3333  plane waves:     927
 k-point ** :   0.5000 0.0833 0.3333  plane waves:     932
 k-point ** :   0.1667 0.1667 0.3333  plane waves:     921
 k-point ** :   0.2500 0.1667 0.3333  plane waves:     924
 k-point ** :   0.3333 0.1667 0.3333  plane waves:     926
 k-point ** :   0.4167 0.1667 0.3333  plane waves:     927
 k-point ** :   0.5000 0.1667 0.3333  plane waves:     930
 k-point ** :   0.2500 0.2500 0.3333  plane waves:     921
 k-point ** :   0.3333 0.2500 0.3333  plane waves:     930
 k-point ** :   0.4167 0.2500 0.3333  plane waves:     934
 k-point ** :   0.5000 0.2500 0.3333  plane waves:     930
 k-point ** :   0.3333 0.3333 0.3333  plane waves:     930
 k-point ** :   0.4167 0.3333 0.3333  plane waves:     935
 k-point ** :   0.5000 0.3333 0.3333  plane waves:     930
 k-point ** :   0.4167 0.4167 0.3333  plane waves:     933
 k-point ** :   0.5000 0.4167 0.3333  plane waves:     926
 k-point ** :   0.5000 0.5000 0.3333  plane waves:     920
 k-point ** :   0.0000 0.0000 0.4167  plane waves:     916
 k-point ** :   0.0833 0.0000 0.4167  plane waves:     917
 k-point ** :   0.1667 0.0000 0.4167  plane waves:     914
 k-point ** :   0.2500 0.0000 0.4167  plane waves:     921
 k-point ** :   0.3333 0.0000 0.4167  plane waves:     920
 k-point ** :   0.4167 0.0000 0.4167  plane waves:     921
 k-point ** :   0.5000 0.0000 0.4167  plane waves:     928
 k-point ** :   0.0833 0.0833 0.4167  plane waves:     913
 k-point ** :   0.1667 0.0833 0.4167  plane waves:     916
 k-point ** :   0.2500 0.0833 0.4167  plane waves:     924
 k-point ** :   0.3333 0.0833 0.4167  plane waves:     923
 k-point ** :   0.4167 0.0833 0.4167  plane waves:     927
 k-point ** :   0.5000 0.0833 0.4167  plane waves:     930
 k-point ** :   0.1667 0.1667 0.4167  plane waves:     925
 k-point ** :   0.2500 0.1667 0.4167  plane waves:     923
 k-point ** :   0.3333 0.1667 0.4167  plane waves:     928
 k-point ** :   0.4167 0.1667 0.4167  plane waves:     931
 k-point ** :   0.5000 0.1667 0.4167  plane waves:     922
 k-point ** :   0.2500 0.2500 0.4167  plane waves:     929
 k-point ** :   0.3333 0.2500 0.4167  plane waves:     934
 k-point ** :   0.4167 0.2500 0.4167  plane waves:     937
 k-point ** :   0.5000 0.2500 0.4167  plane waves:     940
 k-point ** :   0.3333 0.3333 0.4167  plane waves:     935
 k-point ** :   0.4167 0.3333 0.4167  plane waves:     933
 k-point ** :   0.5000 0.3333 0.4167  plane waves:     932
 k-point ** :   0.4167 0.4167 0.4167  plane waves:     932
 k-point ** :   0.5000 0.4167 0.4167  plane waves:     928
 k-point ** :   0.5000 0.5000 0.4167  plane waves:     936
 k-point ** :   0.0000 0.0000 0.5000  plane waves:     908
 k-point ** :   0.0833 0.0000 0.5000  plane waves:     910
 k-point ** :   0.1667 0.0000 0.5000  plane waves:     922
 k-point ** :   0.2500 0.0000 0.5000  plane waves:     922
 k-point ** :   0.3333 0.0000 0.5000  plane waves:     922
 k-point ** :   0.4167 0.0000 0.5000  plane waves:     922
 k-point ** :   0.5000 0.0000 0.5000  plane waves:     924
 k-point ** :   0.0833 0.0833 0.5000  plane waves:     914
 k-point ** :   0.1667 0.0833 0.5000  plane waves:     920
 k-point ** :   0.2500 0.0833 0.5000  plane waves:     926
 k-point ** :   0.3333 0.0833 0.5000  plane waves:     920
 k-point ** :   0.4167 0.0833 0.5000  plane waves:     926
 k-point ** :   0.5000 0.0833 0.5000  plane waves:     924
 k-point ** :   0.1667 0.1667 0.5000  plane waves:     922
 k-point ** :   0.2500 0.1667 0.5000  plane waves:     930
 k-point ** :   0.3333 0.1667 0.5000  plane waves:     932
 k-point ** :   0.4167 0.1667 0.5000  plane waves:     936
 k-point ** :   0.5000 0.1667 0.5000  plane waves:     932
 k-point ** :   0.2500 0.2500 0.5000  plane waves:     930
 k-point ** :   0.3333 0.2500 0.5000  plane waves:     934
 k-point ** :   0.4167 0.2500 0.5000  plane waves:     932
 k-point ** :   0.5000 0.2500 0.5000  plane waves:     936
 k-point ** :   0.3333 0.3333 0.5000  plane waves:     932
 k-point ** :   0.4167 0.3333 0.5000  plane waves:     934
 k-point ** :   0.5000 0.3333 0.5000  plane waves:     940
 k-point ** :   0.4167 0.4167 0.5000  plane waves:     932
 k-point ** :   0.5000 0.4167 0.5000  plane waves:     940
 k-point ** :   0.5000 0.5000 0.5000  plane waves:     936

 maximum and minimum number of plane-waves per node :       244      212

 maximum number of plane-waves:       944
 maximum index in each direction: 
   IXMAX=    6   IYMAX=    6   IZMAX=    5
   IXMIN=   -6   IYMIN=   -6   IZMIN=   -6


 parallel 3D FFT for wavefunctions:
    minimum data exchange during FFTs selected (reduces bandwidth)
 parallel 3D FFT for charge:
    minimum data exchange during FFTs selected (reduces bandwidth)


 total amount of memory used by VASP MPI-rank0    39086. kBytes
=======================================================================

   base      :      30000. kBytes
   nonl-proj :       3041. kBytes
   fftplans  :        502. kBytes
   grid      :        721. kBytes
   one-center:          6. kBytes
   wavefun   :       4816. kBytes
 
     INWAV:  cpu time    0.0004: real time    0.0006
 Broyden mixing: mesh for mixing (old mesh)
   NGX = 13   NGY = 13   NGZ = 11
  (NGX  = 56   NGY  = 56   NGZ  = 48)
  gives a total of   1859 points

 initial charge density was supplied:
 charge density of overlapping atoms calculated
 number of electron      32.0000000 magnetization 
 keeping initial charge density in first step


--------------------------------------------------------------------------------------------------------


 Maximum index for augmentation-charges          422 (set IRDMAX)


--------------------------------------------------------------------------------------------------------


 First call to EWALD:  gamma=   0.478
 Maximum number of real-space cells 3x 3x 3
 Maximum number of reciprocal cells 3x 3x 3

    FEWALD:  cpu time    0.0052: real time    0.0052


--------------------------------------- Iteration      1(   1)  ---------------------------------------


    POTLOK:  cpu time    0.0321: real time    0.0363
    SETDIJ:  cpu time    0.0064: real time    0.0064
     EDDAV:  cpu time    9.4323: real time    9.4429
 BZINTS: Fermi energy: 16.786083; 32.000000 electrons
         Band energy:  95.116282;  BLOECHL correction: -0.198636
       DOS:  cpu time    0.5124: real time    0.5124
    --------------------------------------------
      LOOP:  cpu time    9.9833: real time    9.9981

 eigenvalue-minimisations  :  9416
 total energy-change (2. order) : 0.5620272E+02  (-0.1415824E+04)
 number of electron      32.0000000 magnetization 
 augmentation part       32.0000000 magnetization 

 Free energy of the ion-electron system (eV)
  ---------------------------------------------------
  alpha Z        PSCENC =       102.46038736
  Ewald energy   TEWEN  =     -1340.06346539
  -Hartree energ DENC   =       -80.68670177
  -exchange      EXHF   =         0.00000000
  -V(xc)+E(xc)   XCENC  =       111.56226823
  PAW double counting   =       302.65154477     -311.85538214
  entropy T*S    EENTRO =         0.00000000
  eigenvalues    EBANDS =        95.11628175
  atomic energy  EATOM  =      1177.01779097
  Solvation  Ediel_sol  =         0.00000000
  ---------------------------------------------------
  free energy    TOTEN  =        56.20272379 eV

  energy without entropy =       56.20272379  energy(sigma->0) =       56.20272379


--------------------------------------------------------------------------------------------------------




--------------------------------------- Iteration      1(   2)  ---------------------------------------


     EDDAV:  cpu time   11.8492: real time   11.8526
 BZINTS: Fermi energy:  7.971635; 32.000000 electrons
         Band energy: -30.312993;  BLOECHL correction:  0.000000
       DOS:  cpu time    0.1509: real time    0.1509
    --------------------------------------------
      LOOP:  cpu time   12.0001: real time   12.0035

 eigenvalue-minimisations  : 13120
 total energy-change (2. order) :-0.1254293E+03  (-0.1189133E+03)
 number of electron      32.0000000 magnetization 
 augmentation part       32.0000000 magnetization 

 Free energy of the ion-electron system (eV)
  ---------------------------------------------------
  alpha Z        PSCENC =       102.46038736
  Ewald energy   TEWEN  =     -1340.06346539
  -Hartree energ DENC   =       -80.68670177
  -exchange      EXHF   =         0.00000000
  -V(xc)+E(xc)   XCENC  =       111.56226823
  PAW double counting   =       302.65154477     -311.85538214
  entropy T*S    EENTRO =         0.00000000
  eigenvalues    EBANDS =       -30.31299340
  atomic energy  EATOM  =      1177.01779097
  Solvation  Ediel_sol  =         0.00000000
  ---------------------------------------------------
  free energy    TOTEN  =       -69.22655135 eV

  energy without entropy =      -69.22655135  energy(sigma->0) =      -69.22655135


--------------------------------------------------------------------------------------------------------




--------------------------------------- Iteration      1(   3)  ---------------------------------------


     EDDAV:  cpu time   11.4256: real time   11.4266
 BZINTS: Fermi energy:  7.390610; 32.000000 electrons
         Band energy: -34.623712;  BLOECHL correction:  0.000000
       DOS:  cpu time    0.1230: real time    0.1230
    --------------------------------------------
      LOOP:  cpu time   11.5486: real time   11.5496

 eigenvalue-minimisations  : 12280
 total energy-change (2. order) :-0.4310718E+01  (-0.4288853E+01)
 number of electron      32.0000000 magnetization 
 augmentation part       32.0000000 magnetization 

 Free energy of the ion-electron system (eV)
  ---------------------------------------------------
  alpha Z        PSCENC =       102.46038736
  Ewald energy   TEWEN  =     -1340.06346539
  -Hartree energ DENC   =       -80.68670177
  -exchange      EXHF   =         0.00000000
  -V(xc)+E(xc)   XCENC  =       111.56226823
  PAW double counting   =       302.65154477     -311.85538214
  entropy T*S    EENTRO =         0.00000000
  eigenvalues    EBANDS =       -34.62371166
  atomic energy  EATOM  =      1177.01779097
  Solvation  Ediel_sol  =         0.00000000
  ---------------------------------------------------
  free energy    TOTEN  =       -73.53726961 eV

  energy without entropy =      -73.53726961  energy(sigma->0) =      -73.53726961


--------------------------------------------------------------------------------------------------------




--------------------------------------- Iteration      1(   4)  ---------------------------------------


     EDDAV:  cpu time   11.2072: real time   11.2081
 BZINTS: Fermi energy:  7.473479; 32.000000 electrons
         Band energy: -34.673671;  BLOECHL correction:  0.000000
       DOS:  cpu time    0.1368: real time    0.1369
    --------------------------------------------
      LOOP:  cpu time   11.3440: real time   11.3450

 eigenvalue-minimisations  : 12152
 total energy-change (2. order) :-0.4995954E-01  (-0.4991177E-01)
 number of electron      32.0000000 magnetization 
 augmentation part       32.0000000 magnetization 

 Free energy of the ion-electron system (eV)
  ---------------------------------------------------
  alpha Z        PSCENC =       102.46038736
  Ewald energy   TEWEN  =     -1340.06346539
  -Hartree energ DENC   =       -80.68670177
  -exchange      EXHF   =         0.00000000
  -V(xc)+E(xc)   XCENC  =       111.56226823
  PAW double counting   =       302.65154477     -311.85538214
  entropy T*S    EENTRO =         0.00000000
  eigenvalues    EBANDS =       -34.67367120
  atomic energy  EATOM  =      1177.01779097
  Solvation  Ediel_sol  =         0.00000000
  ---------------------------------------------------
  free energy    TOTEN  =       -73.58722916 eV

  energy without entropy =      -73.58722916  energy(sigma->0) =      -73.58722916


--------------------------------------------------------------------------------------------------------




--------------------------------------- Iteration      1(   5)  ---------------------------------------


     EDDAV:  cpu time   11.3297: real time   11.3306
 BZINTS: Fermi energy:  7.454197; 32.000000 electrons
         Band energy: -34.674745;  BLOECHL correction:  0.000000
       DOS:  cpu time    0.1365: real time    0.1365
    CHARGE:  cpu time    0.3011: real time    0.3011
    MIXING:  cpu time    0.0017: real time    0.0017
    --------------------------------------------
      LOOP:  cpu time   11.7689: real time   11.7698

 eigenvalue-minimisations  : 12248
 total energy-change (2. order) :-0.1073904E-02  (-0.1073548E-02)
 number of electron      32.0000010 magnetization 
 augmentation part        0.6970627 magnetization 

 Broyden mixing:
  rms(total) = 0.82443E+00    rms(broyden)= 0.82431E+00
  rms(prec ) = 0.18677E+01
  weight for this iteration     100.00

 Free energy of the ion-electron system (eV)
  ---------------------------------------------------
  alpha Z        PSCENC =       102.46038736
  Ewald energy   TEWEN  =     -1340.06346539
  -Hartree energ DENC   =       -80.68670177
  -exchange      EXHF   =         0.00000000
  -V(xc)+E(xc)   XCENC  =       111.56226823
  PAW double counting   =       302.65154477     -311.85538214
  entropy T*S    EENTRO =         0.00000000
  eigenvalues    EBANDS =       -34.67474510
  atomic energy  EATOM  =      1177.01779097
  Solvation  Ediel_sol  =         0.00000000
  ---------------------------------------------------
  free energy    TOTEN  =       -73.58830306 eV

  energy without entropy =      -73.58830306  energy(sigma->0) =      -73.58830306


--------------------------------------------------------------------------------------------------------




--------------------------------------- Iteration      1(   6)  ---------------------------------------


    POTLOK:  cpu time    0.0248: real time    0.0251
    SETDIJ:  cpu time    0.0059: real time    0.0059
     EDDAV:  cpu time   10.7240: real time   10.7246
 BZINTS: Fermi energy:  8.000097; 32.000000 electrons
         Band energy: -20.765492;  BLOECHL correction:  0.000000
       DOS:  cpu time    0.1366: real time    0.1366
    CHARGE:  cpu time    0.2977: real time    0.2977
    MIXING:  cpu time    0.0020: real time    0.0020
    --------------------------------------------
      LOOP:  cpu time   11.1910: real time   11.1918

 eigenvalue-minimisations  : 11064
 total energy-change (2. order) : 0.1291152E+01  (-0.8783463E-01)
 number of electron      32.0000010 magnetization 
 augmentation part        0.6829805 magnetization 

 Broyden mixing:
  rms(total) = 0.46147E+00    rms(broyden)= 0.46146E+00
  rms(prec ) = 0.10265E+01
  weight for this iteration     100.00

 eigenvalues of (default mixing * dielectric matrix)
  average eigenvalue GAMMA=   2.2150
  2.2150

 Free energy of the ion-electron system (eV)
  ---------------------------------------------------
  alpha Z        PSCENC =       102.46038736
  Ewald energy   TEWEN  =     -1340.06346539
  -Hartree energ DENC   =       -94.15112649
  -exchange      EXHF   =         0.00000000
  -V(xc)+E(xc)   XCENC  =       112.80788857
  PAW double counting   =       373.69778709     -383.30092110
  entropy T*S    EENTRO =         0.00000000
  eigenvalues    EBANDS =       -20.76549206
  atomic energy  EATOM  =      1177.01779097
  Solvation  Ediel_sol  =         0.00000000
  ---------------------------------------------------
  free energy    TOTEN  =       -72.29715105 eV

  energy without entropy =      -72.29715105  energy(sigma->0) =      -72.29715105


--------------------------------------------------------------------------------------------------------




--------------------------------------- Iteration      1(   7)  ---------------------------------------


    POTLOK:  cpu time    0.0267: real time    0.0270
    SETDIJ:  cpu time    0.0059: real time    0.0059
     EDDAV:  cpu time   10.6676: real time   10.6682
 BZINTS: Fermi energy:  8.650519; 32.000000 electrons
         Band energy:  -4.259329;  BLOECHL correction:  0.000000
       DOS:  cpu time    0.1370: real time    0.1370
    CHARGE:  cpu time    0.3039: real time    0.3039
    MIXING:  cpu time    0.0022: real time    0.0022
    --------------------------------------------
      LOOP:  cpu time   11.1433: real time   11.1442

 eigenvalue-minimisations  : 11320
 total energy-change (2. order) : 0.4375368E+00  (-0.1027279E+00)
 number of electron      32.0000010 magnetization 
 augmentation part        0.6679288 magnetization 

 Broyden mixing:
  rms(total) = 0.65538E-01    rms(broyden)= 0.65424E-01
  rms(prec ) = 0.11287E+00
  weight for this iteration     100.00

 eigenvalues of (default mixing * dielectric matrix)
  average eigenvalue GAMMA=   2.2630
  1.9962  2.5298

 Free energy of the ion-electron system (eV)
  ---------------------------------------------------
  alpha Z        PSCENC =       102.46038736
  Ewald energy   TEWEN  =     -1340.06346539
[...]

 k-point   184 :       0.3333    0.1667    0.5000
  band No.  band energies     occupation 
      1      -8.5177      2.00000
      2      -8.5177      2.00000
      3      -6.2091      2.00000
      4      -6.2091      2.00000
      5      -2.5523      2.00000
      6      -2.5523      2.00000
      7      -0.2735      2.00000
      8      -0.2735      2.00000
      9       1.8230      2.00000
     10       1.8230      2.00000
     11       3.8255      2.00000
     12       3.8255      2.00000
     13       4.4570      2.00000
     14       4.4570      2.00000
     15       5.9308      2.00000
     16       5.9308      2.00000
     17      14.6619      0.00000
     18      14.6619      0.00000
     19      16.1379      0.00000
     20      16.1379      0.00000
     21      16.7350      0.00000
     22      16.7350      0.00000
     23      17.7505      0.00000
     24      17.7637      0.00000

 k-point   185 :       0.4167    0.1667    0.5000
  band No.  band energies     occupation 
      1      -8.0501      2.00000
      2      -8.0501      2.00000
      3      -6.8710      2.00000
      4      -6.8710      2.00000
      5      -2.1621      2.00000
      6      -2.1621      2.00000
      7      -1.0004      2.00000
      8      -1.0004      2.00000
      9       2.2934      2.00000
     10       2.2934      2.00000
     11       3.3119      2.00000
     12       3.3119      2.00000
     13       5.1943      2.00000
     14       5.1943      2.00000
     15       5.9769      2.00000
     16       5.9769      2.00000
     17      15.6136      0.00000
     18      15.6136      0.00000
     19      15.8709      0.00000
     20      15.8709      0.00000
     21      16.2605      0.00000
     22      16.2605      0.00000
     23      17.6234      0.00000
     24      17.6237      0.00000

 k-point   186 :       0.5000    0.1667    0.5000
  band No.  band energies     occupation 
      1      -7.4955      2.00000
      2      -7.4955      2.00000
      3      -7.4955      2.00000
      4      -7.4955      2.00000
      5      -1.6361      2.00000
      6      -1.6361      2.00000
      7      -1.6361      2.00000
      8      -1.6361      2.00000
      9       2.7915      2.00000
     10       2.7915      2.00000
     11       2.7915      2.00000
     12       2.7915      2.00000
     13       5.7292      2.00000
     14       5.7292      2.00000
     15       5.7292      2.00000
     16       5.7292      2.00000
     17      15.8567      0.00000
     18      15.8567      0.00000
     19      15.8567      0.00000
     20      15.8567      0.00000
     21      16.7992      0.00000
     22      16.7992      0.00000
     23      16.7992      0.00000
     24      16.7992      0.00000

 k-point   187 :       0.2500    0.2500    0.5000
  band No.  band energies     occupation 
      1      -8.6252      2.00000
      2      -8.6252      2.00000
      3      -5.7660      2.00000
      4      -5.7660      2.00000
      5      -3.1728      2.00000
      6      -3.1728      2.00000
      7      -0.3519      2.00000
      8      -0.3519      2.00000
      9       2.1271      2.00000
     10       2.1271      2.00000
     11       4.1124      2.00000
     12       4.1124      2.00000
     13       4.6969      2.00000
     14       4.6969      2.00000
     15       5.6203      2.00000
     16       5.6203      2.00000
     17      14.1254      0.00000
     18      14.1254      0.00000
     19      16.4495      0.00000
     20      16.4495      0.00000
     21      17.2992      0.00000
     22      17.3130      0.00000
     23      17.3864      0.00000
     24      17.4153      0.00000

 k-point   188 :       0.3333    0.2500    0.5000
  band No.  band energies     occupation 
      1      -8.2631      2.00000
      2      -8.2631      2.00000
      3      -6.1721      2.00000
      4      -6.1721      2.00000
      5      -3.2283      2.00000
      6      -3.2283      2.00000
      7      -1.1672      2.00000
      8      -1.1672      2.00000
      9       2.7586      2.00000
     10       2.7586      2.00000
     11       4.5827      2.00000
     12       4.5827      2.00000
     13       4.7268      2.00000
     14       4.7268      2.00000
     15       5.8346      2.00000
     16       5.8346      2.00000
     17      14.6244      0.00000
     18      14.6244      0.00000
     19      16.1598      0.00000
     20      16.1598      0.00000
     21      16.7797      0.00000
     22      16.7798      0.00000
     23      17.2486      0.00000
     24      17.2643      0.00000

 k-point   189 :       0.4167    0.2500    0.5000
  band No.  band energies     occupation 
      1      -7.8107      2.00000
      2      -7.8107      2.00000
      3      -6.7160      2.00000
      4      -6.7160      2.00000
      5      -2.9727      2.00000
      6      -2.9727      2.00000
      7      -1.8936      2.00000
      8      -1.8936      2.00000
      9       3.2885      2.00000
     10       3.2885      2.00000
     11       4.2152      2.00000
     12       4.2152      2.00000
     13       5.3406      2.00000
     14       5.3406      2.00000
     15       5.9543      2.00000
     16       5.9543      2.00000
     17      15.3011      0.00000
     18      15.3011      0.00000
     19      15.9255      0.00000
     20      15.9255      0.00000
     21      16.3353      0.00000
     22      16.3353      0.00000
     23      17.2504      0.00000
     24      17.2592      0.00000

 k-point   190 :       0.5000    0.2500    0.5000
  band No.  band energies     occupation 
      1      -7.2843      2.00000
      2      -7.2843      2.00000
      3      -7.2843      2.00000
      4      -7.2843      2.00000
      5      -2.5069      2.00000
      6      -2.5069      2.00000
      7      -2.5069      2.00000
      8      -2.5069      2.00000
      9       3.7698      2.00000
     10       3.7698      2.00000
     11       3.7698      2.00000
     12       3.7698      2.00000
     13       5.7860      2.00000
     14       5.7860      2.00000
     15       5.7860      2.00000
     16       5.7860      2.00000
     17      15.8185      0.00000
     18      15.8185      0.00000
     19      15.8185      0.00000
     20      15.8185      0.00000
     21      16.4356      0.00000
     22      16.4356      0.00000
     23      16.4356      0.00000
     24      16.4356      0.00000

 k-point   191 :       0.3333    0.3333    0.5000
  band No.  band energies     occupation 
      1      -7.9166      2.00000
      2      -7.9166      2.00000
      3      -6.2693      2.00000
      4      -6.2693      2.00000
      5      -3.6094      2.00000
      6      -3.6094      2.00000
      7      -1.9841      2.00000
      8      -1.9841      2.00000
      9       3.5514      2.00000
     10       3.5514      2.00000
     11       4.9803      2.00000
     12       4.9803      2.00000
     13       5.1128      2.00000
     14       5.1128      2.00000
     15       5.8290      2.00000
     16       5.8290      2.00000
     17      14.7425      0.00000
     18      14.7425      0.00000
     19      16.1112      0.00000
     20      16.1112      0.00000
     21      16.7306      0.00000
     22      16.7364      0.00000
     23      16.8335      0.00000
     24      16.8676      0.00000

 k-point   192 :       0.4167    0.3333    0.5000
  band No.  band energies     occupation 
      1      -7.4936      2.00000
      2      -7.4936      2.00000
      3      -6.5788      2.00000
      4      -6.5788      2.00000
      5      -3.5958      2.00000
      6      -3.5958      2.00000
      7      -2.6922      2.00000
      8      -2.6922      2.00000
      9       4.1502      2.00000
     10       4.1502      2.00000
     11       4.9015      2.00000
     12       4.9015      2.00000
     13       5.5463      2.00000
     14       5.5463      2.00000
     15       5.9389      2.00000
     16       5.9389      2.00000
     17      15.0634      0.00000
     18      15.0634      0.00000
     19      15.9538      0.00000
     20      15.9538      0.00000
     21      16.3468      0.00000
     22      16.3473      0.00000
     23      16.4075      0.00000
     24      16.4082      0.00000

 k-point   193 :       0.5000    0.3333    0.5000
  band No.  band energies     occupation 
      1      -7.0254      2.00000
      2      -7.0254      2.00000
      3      -7.0254      2.00000
      4      -7.0254      2.00000
      5      -3.2524      2.00000
      6      -3.2524      2.00000
      7      -3.2524      2.00000
      8      -3.2524      2.00000
      9       4.5917      2.00000
     10       4.5917      2.00000
     11       4.5917      2.00000
     12       4.5917      2.00000
     13       5.8645      2.00000
     14       5.8645      2.00000
     15       5.8645      2.00000
     16       5.8645      2.00000
     17      15.5529      0.00000
     18      15.5529      0.00000
     19      15.5529      0.00000
     20      15.5529      0.00000
     21      16.1718      0.00000
     22      16.1718      0.00000
     23      16.1718      0.00000
     24      16.1718      0.00000

 k-point   194 :       0.4167    0.4167    0.5000
  band No.  band energies     occupation 
      1      -7.1293      2.00000
      2      -7.1293      2.00000
      3      -6.5749      2.00000
      4      -6.5749      2.00000
      5      -3.8973      2.00000
      6      -3.8973      2.00000
      7      -3.3489      2.00000
      8      -3.3489      2.00000
      9       4.7726      2.00000
     10       4.7726      2.00000
     11       5.2040      2.00000
     12       5.2040      2.00000
     13       5.7876      2.00000
     14       5.7876      2.00000
     15       5.9735      2.00000
     16       5.9735      2.00000
     17      14.9988      0.00000
     18      14.9988      0.00000
     19      15.6593      0.00000
     20      15.6593      0.00000
     21      16.0044      0.00000
     22      16.0044      0.00000
     23      16.1897      0.00000
     24      16.1897      0.00000

 k-point   195 :       0.5000    0.4167    0.5000
  band No.  band energies     occupation 
      1      -6.7841      2.00000
      2      -6.7841      2.00000
      3      -6.7841      2.00000
      4      -6.7841      2.00000
      5      -3.7905      2.00000
      6      -3.7905      2.00000
      7      -3.7905      2.00000
      8      -3.7905      2.00000
      9       5.1220      2.00000
     10       5.1220      2.00000
     11       5.1220      2.00000
     12       5.1220      2.00000
     13       5.9641      2.00000
     14       5.9641      2.00000
     15       5.9641      2.00000
     16       5.9641      2.00000
     17      15.1914      0.00000
     18      15.1914      0.00000
     19      15.1914      0.00000
     20      15.1914      0.00000
     21      16.0392      0.00000
     22      16.0392      0.00000
     23      16.0392      0.00000
     24      16.0392      0.00000

 k-point   196 :       0.5000    0.5000    0.5000
  band No.  band energies     occupation 
      1      -6.6773      2.00000
      2      -6.6773      2.00000
      3      -6.6773      2.00000
      4      -6.6773      2.00000
      5      -3.9966      2.00000
      6      -3.9966      2.00000
      7      -3.9966      2.00000
      8      -3.9966      2.00000
      9       5.2898      2.00000
     10       5.2898      2.00000
     11       5.2898      2.00000
     12       5.2898      2.00000
     13       6.0258      2.00000
     14       6.0258      2.00000
     15       6.0258      2.00000
     16       6.0258      2.00000
     17      15.0381      0.00000
     18      15.0381      0.00000
     19      15.0381      0.00000
     20      15.0381      0.00000
     21      15.9890      0.00000
     22      15.9890      0.00000
     23      15.9891      0.00000
     24      15.9892      0.00000


--------------------------------------------------------------------------------------------------------


 soft charge-density along one line, spin component           1
         0         1         2         3         4         5         6         7         8         9
 total charge-density along one line
 
 pseudopotential strength for first ion, spin component:           1
  9.528  -0.002   0.000  -0.000   0.000  -0.000   0.000  -0.000
 -0.002  -0.002  -0.000   0.000  -0.000  -0.000   0.000  -0.000
  0.000  -0.000  -3.751  -0.000  -0.000  -0.005  -0.000  -0.000
 -0.000   0.000  -0.000  -3.751   0.000  -0.000  -0.005   0.000
  0.000  -0.000  -0.000   0.000  -3.751  -0.000   0.000  -0.005
 -0.000  -0.000  -0.005  -0.000  -0.000  -0.759  -0.000  -0.000
  0.000   0.000  -0.000  -0.005   0.000  -0.000  -0.759   0.000
 -0.000  -0.000  -0.000   0.000  -0.005  -0.000   0.000  -0.759
 total augmentation occupancy for first ion, spin component:           1
  1.416  -0.877   0.000   0.000   0.000   0.000  -0.000   0.000
 -0.877   0.806  -0.000  -0.000   0.000   0.000  -0.000   0.000
  0.000   0.000   1.031  -0.000   0.000   0.166  -0.000   0.000
 -0.000   0.000  -0.000   1.045   0.000  -0.000   0.161   0.000
  0.000  -0.000  -0.000   0.000   1.031   0.000  -0.000   0.166
  0.000   0.000   0.166   0.000   0.000   0.031  -0.000  -0.000
  0.000  -0.000  -0.000   0.161   0.000  -0.000   0.029   0.000
  0.000  -0.000   0.000   0.000   0.166  -0.000   0.000   0.031


------------------------ aborting loop because EDIFF is reached ----------------------------------------


    CHARGE:  cpu time    0.2973: real time    0.2973
    FORLOC:  cpu time    0.0026: real time    0.0026
    FORNL :  cpu time    0.4692: real time    0.4693
    STRESS:  cpu time    1.1049: real time    1.1051
    FORHAR:  cpu time    0.0065: real time    0.0065
    MIXING:  cpu time    0.0022: real time    0.0022
    OFIELD:  cpu time    0.0001: real time    0.0001

  FORCE on cell =-STRESS in cart. coord.  units (eV):
  Direction    XX          YY          ZZ          XY          YZ          ZX
  --------------------------------------------------------------------------------------
  Alpha Z   102.46039   102.46039   102.46039
  Ewald    -436.95534  -436.95534  -466.15476     0.00000     0.00000    -0.00000
  Hartree    39.52837    39.52837    32.73904    -0.00000    -0.00000    -0.00000
  E(xc)    -116.56003  -116.56003  -116.78662     0.00000    -0.00000     0.00000
  Local     -65.74113   -65.74113   -31.49526    -0.00000     0.00000    -0.00000
  n-local   -23.24245   -22.88361   -24.24857     0.65625     0.75958     0.63158
  augment    -2.42502    -2.42502    -2.41063    -0.00000     0.00000     0.00000
  Kinetic   482.31032   488.33523   500.24164    -4.71892    -5.40328    -4.27421
  Fock        0.00000     0.00000     0.00000     0.00000     0.00000     0.00000
  -------------------------------------------------------------------------------------
  Total     -17.43303   -17.43303    -5.65478     0.00000     0.00000     0.00000
  in kB    -548.79174  -548.79174  -178.01235     0.00000     0.00000     0.00000
  external pressure =     -425.20 kB  Pullay stress =        0.00 kB


 VOLUME and BASIS-vectors are now :
 -----------------------------------------------------------------------------
  energy-cutoff  :      400.00
  volume of cell :       50.90
      direct lattice vectors                 reciprocal lattice vectors
     3.765223425  0.000000000  0.000000000     0.265588489  0.000000000  0.000000000
     0.000000000  3.765223425  0.000000000     0.000000000  0.265588489  0.000000000
     0.000000000  0.000000000  3.589999359     0.000000000  0.000000000  0.278551582

  length of vectors
     3.765223425  3.765223425  3.589999359     0.265588489  0.265588489  0.278551582


 FORCES acting on ions
    electron-ion (+dipol)            ewald-force                    non-local-force                 convergence-correction
 -----------------------------------------------------------------------------------------------
   0.353E-13 -.141E-12 0.112E-13   -.426E-13 -.711E-14 0.711E-14   0.126E-16 0.885E-17 0.859E-17   0.234E-14 0.341E-15 -.391E-14
   -.264E-13 -.379E-15 0.180E-13   -.167E-13 -.465E-15 -.708E-14   0.622E-17 -.460E-17 -.161E-18   -.861E-14 0.849E-14 -.363E-14
   0.429E-13 -.166E-12 0.335E-13   -.284E-13 -.284E-13 -.142E-13   0.122E-16 -.489E-17 0.597E-20   0.182E-14 -.411E-14 -.229E-14
   -.269E-13 0.194E-13 -.513E-16   -.300E-14 -.213E-13 -.280E-13   0.114E-16 0.198E-16 -.889E-17   -.829E-14 0.773E-14 -.428E-14
   0.566E-13 0.274E-12 -.360E-12   0.000E+00 0.213E-13 0.284E-13   -.114E-16 0.869E-17 -.553E-17   0.498E-14 0.661E-15 -.261E-14
   -.132E-13 0.773E-16 -.425E-12   0.213E-13 0.279E-13 0.146E-13   -.134E-16 -.541E-17 -.110E-16   -.161E-14 0.837E-14 -.424E-14
   0.566E-13 0.503E-12 0.242E-13   0.213E-13 0.000E+00 0.711E-14   -.788E-17 -.198E-16 0.285E-17   0.500E-14 -.387E-14 -.367E-14
   -.554E-14 0.367E-12 0.190E-13   0.426E-13 0.701E-14 -.695E-14   -.155E-16 0.118E-16 -.174E-17   -.122E-14 0.824E-14 -.409E-14
 -----------------------------------------------------------------------------------------------
   0.119E-12 0.855E-12 -.680E-12   -.548E-14 -.107E-14 0.945E-15   -.573E-17 0.145E-16 -.159E-16   -.560E-14 0.258E-13 -.287E-13
 
 
 POSITION                                       TOTAL-FORCE (eV/Angst)
 -----------------------------------------------------------------------------------
      0.94131      2.82392      0.89750         0.000000      0.000000      0.000000
      0.00000      0.00000      1.79500        -0.000000     -0.000000      0.000000
      0.94131      0.94131      2.69250         0.000000     -0.000000     -0.000000
      0.00000      1.88261      0.00000         0.000000      0.000000     -0.000000
      2.82392      2.82392      2.69250         0.000000      0.000000     -0.000000
      1.88261      0.00000      0.00000         0.000000     -0.000000     -0.000000
      2.82392      0.94131      0.89750        -0.000000     -0.000000      0.000000
      1.88261      1.88261      1.79500        -0.000000      0.000000     -0.000000
 -----------------------------------------------------------------------------------
    total drift:                                0.000000      0.000000     -0.000000


--------------------------------------------------------------------------------------------------------



  FREE ENERGIE OF THE ION-ELECTRON SYSTEM (eV)
  ---------------------------------------------------
  free  energy   TOTEN  =       -71.86593299 eV

  energy  without entropy=      -71.86593299  energy(sigma->0) =      -71.86593299
 


--------------------------------------------------------------------------------------------------------


    POTLOK:  cpu time    0.0334: real time    0.0334


--------------------------------------------------------------------------------------------------------


     LOOP+:  cpu time  125.3596: real time  125.3915
    4ORBIT:  cpu time    0.0000: real time    0.0000
 BZINTS: Fermi energy:  8.646125; 32.000000 electrons
         Band energy:  -4.101906;  BLOECHL correction:  0.000000

 total amount of memory used by VASP MPI-rank0    39086. kBytes
=======================================================================

   base      :      30000. kBytes
   nonl-proj :       3041. kBytes
   fftplans  :        502. kBytes
   grid      :        721. kBytes
   one-center:          6. kBytes
   wavefun   :       4816. kBytes
 
  
  
 General timing and accounting informations for this job:
 ========================================================
  
                  Total CPU time used (sec):      129.269
                            User time (sec):      125.008
                          System time (sec):        4.261
                         Elapsed time (sec):      129.454
  
                   Maximum memory used (kb):      195736.
                   Average memory used (kb):           0.
  
                          Minor page faults:        36905
                          Major page faults:           36
                 Voluntary context switches:          786
