<?xml version="1.0" encoding="ISO-8859-1"?>
<modeling>
 <generator>
  <i name="program" type="string">vasp </i>
  <i name="version" type="string">5.4.4.18Apr17-6-g9f103f2a35  </i>
  <i name="subversion" type="string">(build Mar 12 2022 03:36:41) complex            parallel </i>
  <i name="platform" type="string">IFC19.0.3.199_CrayMPICH7.7.19 </i>
  <i name="date" type="string">2022 12 01 </i>
  <i name="time" type="string">10:33:56 </i>
 </generator>
 <incar>
  <i type="int" name="ISTART">     0</i>
  <i type="string" name="PREC">accurate</i>
  <i name="EDIFF">      0.00000100</i>
  <i name="POTIM">      0.02000000</i>
  <i type="int" name="ISMEAR">    -5</i>
  <i name="SIGMA">      0.06000000</i>
  <i type="logical" name="LWAVE"> F  </i>
  <i type="logical" name="LCHARG"> F  </i>
  <v type="int" name="KPOINT_BSE">    -1     0     0     0</v>
 </incar>
 <structure name="primitive_cell" >
  <crystal>
   <varray name="basis" >
    <v>       1.88261171       0.00000000       1.79499968 </v>
    <v>      -1.88261171       0.00000000       1.79499968 </v>
    <v>       0.00000000      -1.88261171      -1.79499968 </v>
   </varray>
   <i name="volume">     12.72377216 </i>
   <varray name="rec_basis" >
    <v>       0.26558849      -0.26558849       0.27855158 </v>
    <v>      -0.26558849      -0.26558849       0.27855158 </v>
    <v>       0.00000000      -0.53117698       0.00000000 </v>
   </varray>
  </crystal>
  <varray name="positions" >
   <v>      -0.25000000       0.25000000      -0.50000000 </v>
   <v>      -0.50000000      -0.50000000       0.00000000 </v>
  </varray>
 </structure>
 <varray name="primitive_index" >
  <v type="int" >        1 </v>
  <v type="int" >        2 </v>
 </varray>
 <kpoints>
  <generation param="Gamma">
   <v type="int" name="divisions">      12       12       12 </v>
   <v name="usershift">      0.00000000       0.00000000       0.00000000 </v>
   <v name="genvec1">      0.08333333       0.00000000       0.00000000 </v>
   <v name="genvec2">      0.00000000       0.08333333       0.00000000 </v>
   <v name="genvec3">      0.00000000       0.00000000       0.08333333 </v>
   <v name="shift">      0.00000000       0.00000000       0.00000000 </v>
  </generation>
  <varray name="kpointlist" >
   <v>       0.00000000       0.00000000       0.00000000 </v>
   <v>       0.08333333       0.00000000       0.00000000 </v>
   <v>       0.16666667       0.00000000       0.00000000 </v>
   <v>       0.25000000       0.00000000       0.00000000 </v>
   <v>       0.33333333       0.00000000       0.00000000 </v>
   <v>       0.41666667       0.00000000       0.00000000 </v>
   <v>       0.50000000       0.00000000       0.00000000 </v>
   <v>       0.08333333       0.08333333       0.00000000 </v>
   <v>       0.16666667       0.08333333       0.00000000 </v>
   <v>       0.25000000       0.08333333       0.00000000 </v>
   <v>       0.33333333       0.08333333       0.00000000 </v>
   <v>       0.41666667       0.08333333       0.00000000 </v>
   <v>       0.50000000       0.08333333       0.00000000 </v>
   <v>       0.16666667       0.16666667       0.00000000 </v>
   <v>       0.25000000       0.16666667       0.00000000 </v>
   <v>       0.33333333       0.16666667       0.00000000 </v>
   <v>       0.41666667       0.16666667       0.00000000 </v>
   <v>       0.50000000       0.16666667       0.00000000 </v>
   <v>       0.25000000       0.25000000       0.00000000 </v>
   <v>       0.33333333       0.25000000       0.00000000 </v>
   <v>       0.41666667       0.25000000       0.00000000 </v>
   <v>       0.50000000       0.25000000       0.00000000 </v>
   <v>       0.33333333       0.33333333       0.00000000 </v>
   <v>       0.41666667       0.33333333       0.00000000 </v>
   <v>       0.50000000       0.33333333       0.00000000 </v>
   <v>       0.41666667       0.41666667       0.00000000 </v>
   <v>       0.50000000       0.41666667       0.00000000 </v>
   <v>       0.50000000       0.50000000       0.00000000 </v>
   <v>       0.00000000       0.00000000       0.08333333 </v>
   <v>       0.08333333       0.00000000       0.08333333 </v>
   <v>       0.16666667       0.00000000       0.08333333 </v>
   <v>       0.25000000       0.00000000       0.08333333 </v>
   <v>       0.33333333       0.00000000       0.08333333 </v>
   <v>       0.41666667       0.00000000       0.08333333 </v>
   <v>       0.50000000       0.00000000       0.08333333 </v>
   <v>       0.08333333       0.08333333       0.08333333 </v>
   <v>       0.16666667       0.08333333       0.08333333 </v>
   <v>       0.25000000       0.08333333       0.08333333 </v>
   <v>       0.33333333       0.08333333       0.08333333 </v>
   <v>       0.41666667       0.08333333       0.08333333 </v>
   <v>       0.50000000       0.08333333       0.08333333 </v>
   <v>       0.16666667       0.16666667       0.08333333 </v>
   <v>       0.25000000       0.16666667       0.08333333 </v>
   <v>       0.33333333       0.16666667       0.08333333 </v>
   <v>       0.41666667       0.16666667       0.08333333 </v>
   <v>       0.50000000       0.16666667       0.08333333 </v>
   <v>       0.25000000       0.25000000       0.08333333 </v>
   <v>       0.33333333       0.25000000       0.08333333 </v>
   <v>       0.41666667       0.25000000       0.08333333 </v>
   <v>       0.50000000       0.25000000       0.08333333 </v>
   <v>       0.33333333       0.33333333       0.08333333 </v>
   <v>       0.41666667       0.33333333       0.08333333 </v>
   <v>       0.50000000       0.33333333       0.08333333 </v>
   <v>       0.41666667       0.41666667       0.08333333 </v>
   <v>       0.50000000       0.41666667       0.08333333 </v>
   <v>       0.50000000       0.50000000       0.08333333 </v>
   <v>       0.00000000       0.00000000       0.16666667 </v>
   <v>       0.08333333       0.00000000       0.16666667 </v>
   <v>       0.16666667       0.00000000       0.16666667 </v>
   <v>       0.25000000       0.00000000       0.16666667 </v>
   <v>       0.33333333       0.00000000       0.16666667 </v>
   <v>       0.41666667       0.00000000       0.16666667 </v>
   <v>       0.50000000       0.00000000       0.16666667 </v>
   <v>       0.08333333       0.08333333       0.16666667 </v>
   <v>       0.16666667       0.08333333       0.16666667 </v>
   <v>       0.25000000       0.08333333       0.16666667 </v>
   <v>       0.33333333       0.08333333       0.16666667 </v>
   <v>       0.41666667       0.08333333       0.16666667 </v>
   <v>       0.50000000       0.08333333       0.16666667 </v>
   <v>       0.16666667       0.16666667       0.16666667 </v>
   <v>       0.25000000       0.16666667       0.16666667 </v>
   <v>       0.33333333       0.16666667       0.16666667 </v>
   <v>       0.41666667       0.16666667       0.16666667 </v>
   <v>       0.50000000       0.16666667       0.16666667 </v>
   <v>       0.25000000       0.25000000       0.16666667 </v>
   <v>       0.33333333       0.25000000       0.16666667 </v>
   <v>       0.41666667       0.25000000       0.16666667 </v>
   <v>       0.50000000       0.25000000       0.16666667 </v>
   <v>       0.33333333       0.33333333       0.16666667 </v>
   <v>       0.41666667       0.33333333       0.16666667 </v>
   <v>       0.50000000       0.33333333       0.16666667 </v>
   <v>       0.41666667       0.41666667       0.16666667 </v>
   <v>       0.50000000       0.41666667       0.16666667 </v>
   <v>       0.50000000       0.50000000       0.16666667 </v>
   <v>       0.00000000       0.00000000       0.25000000 </v>
   <v>       0.08333333       0.00000000       0.25000000 </v>
   <v>       0.16666667       0.00000000       0.25000000 </v>
   <v>       0.25000000       0.00000000       0.25000000 </v>
   <v>       0.33333333       0.00000000       0.25000000 </v>
   <v>       0.41666667       0.00000000       0.25000000 </v>
   <v>       0.50000000       0.00000000       0.25000000 </v>
   <v>       0.08333333       0.08333333       0.25000000 </v>
   <v>       0.16666667       0.08333333       0.25000000 </v>
   <v>       0.25000000       0.08333333       0.25000000 </v>
   <v>       0.33333333       0.08333333       0.25000000 </v>
   <v>       0.41666667       0.08333333       0.25000000 </v>
   <v>       0.50000000       0.08333333       0.25000000 </v>
   <v>       0.16666667       0.16666667       0.25000000 </v>
   <v>       0.25000000       0.16666667       0.25000000 </v>
   <v>       0.33333333       0.16666667       0.25000000 </v>
   <v>       0.41666667       0.16666667       0.25000000 </v>
   <v>       0.50000000       0.16666667       0.25000000 </v>
   <v>       0.25000000       0.25000000       0.25000000 </v>
   <v>       0.33333333       0.25000000       0.25000000 </v>
   <v>       0.41666667       0.25000000       0.25000000 </v>
   <v>       0.50000000       0.25000000       0.25000000 </v>
   <v>       0.33333333       0.33333333       0.25000000 </v>
   <v>       0.41666667       0.33333333       0.25000000 </v>
   <v>       0.50000000       0.33333333       0.25000000 </v>
   <v>       0.41666667       0.41666667       0.25000000 </v>
   <v>       0.50000000       0.41666667       0.25000000 </v>
   <v>       0.50000000       0.50000000       0.25000000 </v>
   <v>       0.00000000       0.00000000       0.33333333 </v>
   <v>       0.08333333       0.00000000       0.33333333 </v>
   <v>       0.16666667       0.00000000       0.33333333 </v>
   <v>       0.25000000       0.00000000       0.33333333 </v>
   <v>       0.33333333       0.00000000       0.33333333 </v>
   <v>       0.41666667       0.00000000       0.33333333 </v>
   <v>       0.50000000       0.00000000       0.33333333 </v>
   <v>       0.08333333       0.08333333       0.33333333 </v>
   <v>       0.16666667       0.08333333       0.33333333 </v>
   <v>       0.25000000       0.08333333       0.33333333 </v>
   <v>       0.33333333       0.08333333       0.33333333 </v>
   <v>       0.41666667       0.08333333       0.33333333 </v>
   <v>       0.50000000       0.08333333       0.33333333 </v>
   <v>       0.16666667       0.16666667       0.33333333 </v>
   <v>       0.25000000       0.16666667       0.33333333 </v>
   <v>       0.33333333       0.16666667       0.33333333 </v>
   <v>       0.41666667       0.16666667       0.33333333 </v>
   <v>       0.50000000       0.16666667       0.33333333 </v>
   <v>       0.25000000       0.25000000       0.33333333 </v>
   <v>       0.33333333       0.25000000       0.33333333 </v>
   <v>       0.41666667       0.25000000       0.33333333 </v>
   <v>       0.50000000       0.25000000       0.33333333 </v>
   <v>       0.33333333       0.33333333       0.33333333 </v>
   <v>       0.41666667       0.33333333       0.33333333 </v>
   <v>       0.50000000       0.33333333       0.33333333 </v>
   <v>       0.41666667       0.41666667       0.33333333 </v>
   <v>       0.50000000       0.41666667       0.33333333 </v>
   <v>       0.50000000       0.50000000       0.33333333 </v>
   <v>       0.00000000       0.00000000       0.41666667 </v>
   <v>       0.08333333       0.00000000       0.41666667 </v>
   <v>       0.16666667       0.00000000       0.41666667 </v>
   <v>       0.25000000       0.00000000       0.41666667 </v>
   <v>       0.33333333       0.00000000       0.41666667 </v>
   <v>       0.41666667       0.00000000       0.41666667 </v>
   <v>       0.50000000       0.00000000       0.41666667 </v>
   <v>       0.08333333       0.08333333       0.41666667 </v>
   <v>       0.16666667       0.08333333       0.41666667 </v>
   <v>       0.25000000       0.08333333       0.41666667 </v>
   <v>       0.33333333       0.08333333       0.41666667 </v>
   <v>       0.41666667       0.08333333       0.41666667 </v>
   <v>       0.50000000       0.08333333       0.41666667 </v>
   <v>       0.16666667       0.16666667       0.41666667 </v>
   <v>       0.25000000       0.16666667       0.41666667 </v>
   <v>       0.33333333       0.16666667       0.41666667 </v>
   <v>       0.41666667       0.16666667       0.41666667 </v>
   <v>       0.50000000       0.16666667       0.41666667 </v>
   <v>       0.25000000       0.25000000       0.41666667 </v>
   <v>       0.33333333       0.25000000       0.41666667 </v>
   <v>       0.41666667       0.25000000       0.41666667 </v>
   <v>       0.50000000       0.25000000       0.41666667 </v>
   <v>       0.33333333       0.33333333       0.41666667 </v>
   <v>       0.41666667       0.33333333       0.41666667 </v>
   <v>       0.50000000       0.33333333       0.41666667 </v>
   <v>       0.41666667       0.41666667       0.41666667 </v>
   <v>       0.50000000       0.41666667       0.41666667 </v>
   <v>       0.50000000       0.50000000       0.41666667 </v>
   <v>       0.00000000       0.00000000       0.50000000 </v>
   <v>       0.08333333       0.00000000       0.50000000 </v>
   <v>       0.16666667       0.00000000       0.50000000 </v>
   <v>       0.25000000       0.00000000       0.50000000 </v>
   <v>       0.33333333       0.00000000       0.50000000 </v>
   <v>       0.41666667       0.00000000       0.50000000 </v>
   <v>       0.50000000       0.00000000       0.50000000 </v>
   <v>       0.08333333       0.08333333       0.50000000 </v>
   <v>       0.16666667       0.08333333       0.50000000 </v>
   <v>       0.25000000       0.08333333       0.50000000 </v>
   <v>       0.33333333       0.08333333       0.50000000 </v>
   <v>       0.41666667       0.08333333       0.50000000 </v>
   <v>       0.50000000       0.08333333       0.50000000 </v>
   <v>       0.16666667       0.16666667       0.50000000 </v>
   <v>       0.25000000       0.16666667       0.50000000 </v>
   <v>       0.33333333       0.16666667       0.50000000 </v>
   <v>       0.41666667       0.16666667       0.50000000 </v>
   <v>       0.50000000       0.16666667       0.50000000 </v>
   <v>       0.25000000       0.25000000       0.50000000 </v>
   <v>       0.33333333       0.25000000       0.50000000 </v>
   <v>       0.41666667       0.25000000       0.50000000 </v>
   <v>       0.50000000       0.25000000       0.50000000 </v>
   <v>       0.33333333       0.33333333       0.50000000 </v>
   <v>       0.41666667       0.33333333       0.50000000 </v>
   <v>       0.50000000       0.33333333       0.50000000 </v>
   <v>       0.41666667       0.41666667       0.50000000 </v>
   <v>       0.50000000       0.41666667       0.50000000 </v>
   <v>       0.50000000       0.50000000       0.50000000 </v>
  </varray>
  <varray name="weights" >
   <v>       0.00057870 </v>
   <v>       0.00231481 </v>
   <v>       0.00231481 </v>
   <v>       0.00231481 </v>
   <v>       0.00231481 </v>
   <v>       0.00231481 </v>
   <v>       0.00115741 </v>
   <v>       0.00231481 </v>
   <v>       0.00462963 </v>
   <v>       0.00462963 </v>
   <v>       0.00462963 </v>
   <v>       0.00462963 </v>
   <v>       0.00231481 </v>
   <v>       0.00231481 </v>
   <v>       0.00462963 </v>
   <v>       0.00462963 </v>
   <v>       0.00462963 </v>
   <v>       0.00231481 </v>
   <v>       0.00231481 </v>
   <v>       0.00462963 </v>
   <v>       0.00462963 </v>
   <v>       0.00231481 </v>
   <v>       0.00231481 </v>
   <v>       0.00462963 </v>
   <v>       0.00231481 </v>
   <v>       0.00231481 </v>
   <v>       0.00231481 </v>
   <v>       0.00057870 </v>
   <v>       0.00115741 </v>
   <v>       0.00462963 </v>
   <v>       0.00462963 </v>
   <v>       0.00462963 </v>
   <v>       0.00462963 </v>
   <v>       0.00462963 </v>
   <v>       0.00231481 </v>
   <v>       0.00462963 </v>
   <v>       0.00925926 </v>
   <v>       0.00925926 </v>
   <v>       0.00925926 </v>
   <v>       0.00925926 </v>
   <v>       0.00462963 </v>
   <v>       0.00462963 </v>
   <v>       0.00925926 </v>
   <v>       0.00925926 </v>
   <v>       0.00925926 </v>
   <v>       0.00462963 </v>
   <v>       0.00462963 </v>
   <v>       0.00925926 </v>
   <v>       0.00925926 </v>
   <v>       0.00462963 </v>
   <v>       0.00462963 </v>
   <v>       0.00925926 </v>
   <v>       0.00462963 </v>
   <v>       0.00462963 </v>
   <v>       0.00462963 </v>
   <v>       0.00115741 </v>
   <v>       0.00115741 </v>
   <v>       0.00462963 </v>
   <v>       0.00462963 </v>
   <v>       0.00462963 </v>
   <v>       0.00462963 </v>
   <v>       0.00462963 </v>
   <v>       0.00231481 </v>
   <v>       0.00462963 </v>
   <v>       0.00925926 </v>
   <v>       0.00925926 </v>
   <v>       0.00925926 </v>
   <v>       0.00925926 </v>
   <v>       0.00462963 </v>
   <v>       0.00462963 </v>
   <v>       0.00925926 </v>
   <v>       0.00925926 </v>
   <v>       0.00925926 </v>
   <v>       0.00462963 </v>
   <v>       0.00462963 </v>
   <v>       0.00925926 </v>
   <v>       0.00925926 </v>
   <v>       0.00462963 </v>
   <v>       0.00462963 </v>
   <v>       0.00925926 </v>
   <v>       0.00462963 </v>
   <v>       0.00462963 </v>
   <v>       0.00462963 </v>
   <v>       0.00115741 </v>
   <v>       0.00115741 </v>
   <v>       0.00462963 </v>
   <v>       0.00462963 </v>
   <v>       0.00462963 </v>
   <v>       0.00462963 </v>
   <v>       0.00462963 </v>
   <v>       0.00231481 </v>
   <v>       0.00462963 </v>
   <v>       0.00925926 </v>
   <v>       0.00925926 </v>
   <v>       0.00925926 </v>
   <v>       0.00925926 </v>
   <v>       0.00462963 </v>
   <v>       0.00462963 </v>
   <v>       0.00925926 </v>
   <v>       0.00925926 </v>
   <v>       0.00925926 </v>
   <v>       0.00462963 </v>
   <v>       0.00462963 </v>
   <v>       0.00925926 </v>
   <v>       0.00925926 </v>
   <v>       0.00462963 </v>
   <v>       0.00462963 </v>
   <v>       0.00925926 </v>
   <v>       0.00462963 </v>
   <v>       0.00462963 </v>
   <v>       0.00462963 </v>
   <v>       0.00115741 </v>
   <v>       0.00115741 </v>
   <v>       0.00462963 </v>
   <v>       0.00462963 </v>
   <v>       0.00462963 </v>
   <v>       0.00462963 </v>
   <v>       0.00462963 </v>
   <v>       0.00231481 </v>
   <v>       0.00462963 </v>
   <v>       0.00925926 </v>
   <v>       0.00925926 </v>
   <v>       0.00925926 </v>
   <v>       0.00925926 </v>
   <v>       0.00462963 </v>
   <v>       0.00462963 </v>
   <v>       0.00925926 </v>
   <v>       0.00925926 </v>
   <v>       0.00925926 </v>
   <v>       0.00462963 </v>
   <v>       0.00462963 </v>
   <v>       0.00925926 </v>
   <v>       0.00925926 </v>
   <v>       0.00462963 </v>
   <v>       0.00462963 </v>
   <v>       0.00925926 </v>
   <v>       0.00462963 </v>
   <v>       0.00462963 </v>
   <v>       0.00462963 </v>
   <v>       0.00115741 </v>
   <v>       0.00115741 </v>
   <v>       0.00462963 </v>
   <v>       0.00462963 </v>
   <v>       0.00462963 </v>
   <v>       0.00462963 </v>
   <v>       0.00462963 </v>
   <v>       0.00231481 </v>
   <v>       0.00462963 </v>
   <v>       0.00925926 </v>
   <v>       0.00925926 </v>
   <v>       0.00925926 </v>
   <v>       0.00925926 </v>
   <v>       0.00462963 </v>
   <v>       0.00462963 </v>
   <v>       0.00925926 </v>
   <v>       0.00925926 </v>
   <v>       0.00925926 </v>
   <v>       0.00462963 </v>
   <v>       0.00462963 </v>
   <v>       0.00925926 </v>
   <v>       0.00925926 </v>
   <v>       0.00462963 </v>
   <v>       0.00462963 </v>
   <v>       0.00925926 </v>
   <v>       0.00462963 </v>
   <v>       0.00462963 </v>
   <v>       0.00462963 </v>
   <v>       0.00115741 </v>
   <v>       0.00057870 </v>
   <v>       0.00231481 </v>
   <v>       0.00231481 </v>
   <v>       0.00231481 </v>
   <v>       0.00231481 </v>
   <v>       0.00231481 </v>
   <v>       0.00115741 </v>
   <v>       0.00231481 </v>
   <v>       0.00462963 </v>
   <v>       0.00462963 </v>
   <v>       0.00462963 </v>
   <v>       0.00462963 </v>
   <v>       0.00231481 </v>
   <v>       0.00231481 </v>
   <v>       0.00462963 </v>
   <v>       0.00462963 </v>
   <v>       0.00462963 </v>
   <v>       0.00231481 </v>
   <v>       0.00231481 </v>
   <v>       0.00462963 </v>
   <v>       0.00462963 </v>
   <v>       0.00231481 </v>
   <v>       0.00231481 </v>
   <v>       0.00462963 </v>
   <v>       0.00231481 </v>
   <v>       0.00231481 </v>
   <v>       0.00231481 </v>
   <v>       0.00057870 </v>
  </varray>
  <varray name="tetrahedronlist"  type="int" >
   <v type="int" >        4        1        2        8       29 </v>
   <v type="int" >        4        2        8       29       30 </v>
   <v type="int" >        4        8       29       30       36 </v>
   <v type="int" >        4        2        3        9       30 </v>
   <v type="int" >        4        2        8        9       30 </v>
   <v type="int" >        4        8        9       30       36 </v>
   <v type="int" >        4        3        9       30       31 </v>
   <v type="int" >        4        9       30       31       37 </v>
   <v type="int" >        4        9       30       36       37 </v>
   <v type="int" >        4        3        4       10       31 </v>
   <v type="int" >        4        3        9       10       31 </v>
   <v type="int" >        4        9       10       31       37 </v>
   <v type="int" >        4        4       10       31       32 </v>
   <v type="int" >        4       10       31       32       38 </v>
   <v type="int" >        4       10       31       37       38 </v>
   <v type="int" >        4        4        5       11       32 </v>
   <v type="int" >        4        4       10       11       32 </v>
   <v type="int" >        4       10       11       32       38 </v>
   <v type="int" >        4        5       11       32       33 </v>
   <v type="int" >        4       11       32       33       39 </v>
   <v type="int" >        4       11       32       38       39 </v>
   <v type="int" >        4        5        6       12       33 </v>
   <v type="int" >        4        5       11       12       33 </v>
   <v type="int" >        4       11       12       33       39 </v>
   <v type="int" >        4        6       12       33       34 </v>
   <v type="int" >        4       12       33       34       40 </v>
   <v type="int" >        4       12       33       39       40 </v>
   <v type="int" >        4        6        7       13       34 </v>
   <v type="int" >        4        6       12       13       34 </v>
   <v type="int" >        4       12       13       34       40 </v>
   <v type="int" >        4        7       13       34       35 </v>
   <v type="int" >        4       13       34       35       41 </v>
   <v type="int" >        4       13       34       40       41 </v>
   <v type="int" >        4        6        7       12       35 </v>
   <v type="int" >        4        7       12       13       35 </v>
   <v type="int" >        4       12       13       35       41 </v>
   <v type="int" >        4        6       12       34       35 </v>
   <v type="int" >        4       12       34       35       40 </v>
   <v type="int" >        4       12       35       40       41 </v>
   <v type="int" >        4        5        6       11       34 </v>
   <v type="int" >        4        6       11       12       34 </v>
   <v type="int" >        4       11       12       34       40 </v>
   <v type="int" >        4        5       11       33       34 </v>
   <v type="int" >        4       11       33       34       39 </v>
   <v type="int" >        4       11       34       39       40 </v>
   <v type="int" >        4        4        5       10       33 </v>
   <v type="int" >        4        5       10       11       33 </v>
   <v type="int" >        4       10       11       33       39 </v>
   <v type="int" >        4        4       10       32       33 </v>
   <v type="int" >        4       10       32       33       38 </v>
   <v type="int" >        4       10       33       38       39 </v>
   <v type="int" >        4        3        4        9       32 </v>
   <v type="int" >        4        4        9       10       32 </v>
   <v type="int" >        4        9       10       32       38 </v>
   <v type="int" >        4        3        9       31       32 </v>
   <v type="int" >        4        9       31       32       37 </v>
   <v type="int" >        4        9       32       37       38 </v>
   <v type="int" >        4        2        3        8       31 </v>
   <v type="int" >        4        3        8        9       31 </v>
   <v type="int" >        4        8        9       31       37 </v>
   <v type="int" >        4        2        8       30       31 </v>
   <v type="int" >        4        8       30       31       36 </v>
   <v type="int" >        4        8       31       36       37 </v>
   <v type="int" >        4        1        2        2       30 </v>
   <v type="int" >        4        2        2        8       30 </v>
   <v type="int" >        4        2        8       30       36 </v>
   <v type="int" >        4        1        2       29       30 </v>
   <v type="int" >        4        2       29       30       30 </v>
   <v type="int" >        4        2       30       30       36 </v>
   <v type="int" >        4        8        9       14       36 </v>
   <v type="int" >        4        9       14       36       37 </v>
   <v type="int" >        4       14       36       37       42 </v>
   <v type="int" >        4        9       10       15       37 </v>
   <v type="int" >        4        9       14       15       37 </v>
   <v type="int" >        4       14       15       37       42 </v>
   <v type="int" >        4       10       15       37       38 </v>
   <v type="int" >        4       15       37       38       43 </v>
   <v type="int" >        4       15       37       42       43 </v>
   <v type="int" >        4       10       11       16       38 </v>
   <v type="int" >        4       10       15       16       38 </v>
   <v type="int" >        4       15       16       38       43 </v>
   <v type="int" >        4       11       16       38       39 </v>
   <v type="int" >        4       16       38       39       44 </v>
   <v type="int" >        4       16       38       43       44 </v>
   <v type="int" >        4       11       12       17       39 </v>
   <v type="int" >        4       11       16       17       39 </v>
   <v type="int" >        4       16       17       39       44 </v>
   <v type="int" >        4       12       17       39       40 </v>
   <v type="int" >        4       17       39       40       45 </v>
   <v type="int" >        4       17       39       44       45 </v>
   <v type="int" >        4       12       13       18       40 </v>
   <v type="int" >        4       12       17       18       40 </v>
   <v type="int" >        4       17       18       40       45 </v>
   <v type="int" >        4       13       18       40       41 </v>
   <v type="int" >        4       18       40       41       46 </v>
   <v type="int" >        4       18       40       45       46 </v>
   <v type="int" >        4       12       13       17       41 </v>
   <v type="int" >        4       13       17       18       41 </v>
   <v type="int" >        4       17       18       41       46 </v>
   <v type="int" >        4       12       17       40       41 </v>
   <v type="int" >        4       17       40       41       45 </v>
   <v type="int" >        4       17       41       45       46 </v>
   <v type="int" >        4       11       12       16       40 </v>
   <v type="int" >        4       12       16       17       40 </v>
   <v type="int" >        4       16       17       40       45 </v>
   <v type="int" >        4       11       16       39       40 </v>
   <v type="int" >        4       16       39       40       44 </v>
   <v type="int" >        4       16       40       44       45 </v>
   <v type="int" >        4       10       11       15       39 </v>
   <v type="int" >        4       11       15       16       39 </v>
   <v type="int" >        4       15       16       39       44 </v>
   <v type="int" >        4       10       15       38       39 </v>
   <v type="int" >        4       15       38       39       43 </v>
   <v type="int" >        4       15       39       43       44 </v>
   <v type="int" >        4        9       10       14       38 </v>
   <v type="int" >        4       10       14       15       38 </v>
   <v type="int" >        4       14       15       38       43 </v>
   <v type="int" >        4        9       14       37       38 </v>
   <v type="int" >        4       14       37       38       42 </v>
   <v type="int" >        4       14       38       42       43 </v>
   <v type="int" >        4        8        9        9       37 </v>
   <v type="int" >        4        9        9       14       37 </v>
   <v type="int" >        4        9       14       37       42 </v>
   <v type="int" >        4        8        9       36       37 </v>
   <v type="int" >        4        9       36       37       37 </v>
   <v type="int" >        4        9       37       37       42 </v>
   <v type="int" >        4        2        3        8       36 </v>
   <v type="int" >        4        3        8        9       36 </v>
   <v type="int" >        4        3        9       36       37 </v>
   <v type="int" >        4        2        3       30       36 </v>
   <v type="int" >        4        3       30       31       36 </v>
   <v type="int" >        4        3       31       36       37 </v>
   <v type="int" >        4       14       15       19       42 </v>
   <v type="int" >        4       15       19       42       43 </v>
   <v type="int" >        4       19       42       43       47 </v>
   <v type="int" >        4       15       16       20       43 </v>
   <v type="int" >        4       15       19       20       43 </v>
   <v type="int" >        4       19       20       43       47 </v>
   <v type="int" >        4       16       20       43       44 </v>
   <v type="int" >        4       20       43       44       48 </v>
   <v type="int" >        4       20       43       47       48 </v>
   <v type="int" >        4       16       17       21       44 </v>
   <v type="int" >        4       16       20       21       44 </v>
   <v type="int" >        4       20       21       44       48 </v>
   <v type="int" >        4       17       21       44       45 </v>
   <v type="int" >        4       21       44       45       49 </v>
   <v type="int" >        4       21       44       48       49 </v>
   <v type="int" >        4       17       18       22       45 </v>
   <v type="int" >        4       17       21       22       45 </v>
   <v type="int" >        4       21       22       45       49 </v>
   <v type="int" >        4       18       22       45       46 </v>
   <v type="int" >        4       22       45       46       50 </v>
   <v type="int" >        4       22       45       49       50 </v>
   <v type="int" >        4       17       18       21       46 </v>
   <v type="int" >        4       18       21       22       46 </v>
   <v type="int" >        4       21       22       46       50 </v>
   <v type="int" >        4       17       21       45       46 </v>
   <v type="int" >        4       21       45       46       49 </v>
   <v type="int" >        4       21       46       49       50 </v>
   <v type="int" >        4       16       17       20       45 </v>
   <v type="int" >        4       17       20       21       45 </v>
   <v type="int" >        4       20       21       45       49 </v>
   <v type="int" >        4       16       20       44       45 </v>
   <v type="int" >        4       20       44       45       48 </v>
   <v type="int" >        4       20       45       48       49 </v>
   <v type="int" >        4       15       16       19       44 </v>
   <v type="int" >        4       16       19       20       44 </v>
   <v type="int" >        4       19       20       44       48 </v>
   <v type="int" >        4       15       19       43       44 </v>
   <v type="int" >        4       19       43       44       47 </v>
   <v type="int" >        4       19       44       47       48 </v>
   <v type="int" >        4       14       15       15       43 </v>
   <v type="int" >        4       15       15       19       43 </v>
   <v type="int" >        4       15       19       43       47 </v>
   <v type="int" >        4       14       15       42       43 </v>
   <v type="int" >        4       15       42       43       43 </v>
   <v type="int" >        4       15       43       43       47 </v>
   <v type="int" >        4        9       10       14       42 </v>
   <v type="int" >        4       10       14       15       42 </v>
   <v type="int" >        4       10       15       42       43 </v>
   <v type="int" >        4        9       10       37       42 </v>
   <v type="int" >        4       10       37       38       42 </v>
   <v type="int" >        4       10       38       42       43 </v>
   <v type="int" >        4        3        4        9       37 </v>
   <v type="int" >        4        4        9       10       37 </v>
   <v type="int" >        4        4       10       37       38 </v>
   <v type="int" >        4        3        4       31       37 </v>
   <v type="int" >        4        4       31       32       37 </v>
   <v type="int" >        4        4       32       37       38 </v>
   <v type="int" >        4       19       20       23       47 </v>
   <v type="int" >        4       20       23       47       48 </v>
   <v type="int" >        4       23       47       48       51 </v>
   <v type="int" >        4       20       21       24       48 </v>
   <v type="int" >        4       20       23       24       48 </v>
   <v type="int" >        4       23       24       48       51 </v>
   <v type="int" >        4       21       24       48       49 </v>
   <v type="int" >        4       24       48       49       52 </v>
   <v type="int" >        4       24       48       51       52 </v>
   <v type="int" >        4       21       22       25       49 </v>
   <v type="int" >        4       21       24       25       49 </v>
   <v type="int" >        4       24       25       49       52 </v>
   <v type="int" >        4       22       25       49       50 </v>
   <v type="int" >        4       25       49       50       53 </v>
   <v type="int" >        4       25       49       52       53 </v>
   <v type="int" >        4       21       22       24       50 </v>
   <v type="int" >        4       22       24       25       50 </v>
   <v type="int" >        4       24       25       50       53 </v>
   <v type="int" >        4       21       24       49       50 </v>
   <v type="int" >        4       24       49       50       52 </v>
   <v type="int" >        4       24       50       52       53 </v>
   <v type="int" >        4       20       21       23       49 </v>
   <v type="int" >        4       21       23       24       49 </v>
   <v type="int" >        4       23       24       49       52 </v>
   <v type="int" >        4       20       23       48       49 </v>
   <v type="int" >        4       23       48       49       51 </v>
   <v type="int" >        4       23       49       51       52 </v>
   <v type="int" >        4       19       20       20       48 </v>
   <v type="int" >        4       20       20       23       48 </v>
   <v type="int" >        4       20       23       48       51 </v>
   <v type="int" >        4       19       20       47       48 </v>
   <v type="int" >        4       20       47       48       48 </v>
   <v type="int" >        4       20       48       48       51 </v>
   <v type="int" >        4       15       16       19       47 </v>
   <v type="int" >        4       16       19       20       47 </v>
   <v type="int" >        4       16       20       47       48 </v>
   <v type="int" >        4       15       16       43       47 </v>
   <v type="int" >        4       16       43       44       47 </v>
   <v type="int" >        4       16       44       47       48 </v>
   <v type="int" >        4       10       11       15       43 </v>
   <v type="int" >        4       11       15       16       43 </v>
   <v type="int" >        4       11       16       43       44 </v>
   <v type="int" >        4       10       11       38       43 </v>
   <v type="int" >        4       11       38       39       43 </v>
   <v type="int" >        4       11       39       43       44 </v>
   <v type="int" >        4        4        5       10       38 </v>
   <v type="int" >        4        5       10       11       38 </v>
   <v type="int" >        4        5       11       38       39 </v>
   <v type="int" >        4        4        5       32       38 </v>
   <v type="int" >        4        5       32       33       38 </v>
   <v type="int" >        4        5       33       38       39 </v>
   <v type="int" >        4       23       24       26       51 </v>
   <v type="int" >        4       24       26       51       52 </v>
   <v type="int" >        4       26       51       52       54 </v>
   <v type="int" >        4       24       25       27       52 </v>
   <v type="int" >        4       24       26       27       52 </v>
   <v type="int" >        4       26       27       52       54 </v>
   <v type="int" >        4       25       27       52       53 </v>
   <v type="int" >        4       27       52       53       55 </v>
   <v type="int" >        4       27       52       54       55 </v>
   <v type="int" >        4       24       25       26       53 </v>
   <v type="int" >        4       25       26       27       53 </v>
   <v type="int" >        4       26       27       53       55 </v>
   <v type="int" >        4       24       26       52       53 </v>
   <v type="int" >        4       26       52       53       54 </v>
   <v type="int" >        4       26       53       54       55 </v>
   <v type="int" >        4       23       24       24       52 </v>
   <v type="int" >        4       24       24       26       52 </v>
   <v type="int" >        4       24       26       52       54 </v>
   <v type="int" >        4       23       24       51       52 </v>
   <v type="int" >        4       24       51       52       52 </v>
   <v type="int" >        4       24       52       52       54 </v>
   <v type="int" >        4       20       21       23       51 </v>
   <v type="int" >        4       21       23       24       51 </v>
   <v type="int" >        4       21       24       51       52 </v>
   <v type="int" >        4       20       21       48       51 </v>
   <v type="int" >        4       21       48       49       51 </v>
   <v type="int" >        4       21       49       51       52 </v>
   <v type="int" >        4       16       17       20       48 </v>
   <v type="int" >        4       17       20       21       48 </v>
   <v type="int" >        4       17       21       48       49 </v>
   <v type="int" >        4       16       17       44       48 </v>
   <v type="int" >        4       17       44       45       48 </v>
   <v type="int" >        4       17       45       48       49 </v>
   <v type="int" >        4       11       12       16       44 </v>
   <v type="int" >        4       12       16       17       44 </v>
   <v type="int" >        4       12       17       44       45 </v>
   <v type="int" >        4       11       12       39       44 </v>
   <v type="int" >        4       12       39       40       44 </v>
   <v type="int" >        4       12       40       44       45 </v>
   <v type="int" >        4        5        6       11       39 </v>
   <v type="int" >        4        6       11       12       39 </v>
   <v type="int" >        4        6       12       39       40 </v>
   <v type="int" >        4        5        6       33       39 </v>
   <v type="int" >        4        6       33       34       39 </v>
   <v type="int" >        4        6       34       39       40 </v>
   <v type="int" >        4       26       27       28       54 </v>
   <v type="int" >        4       27       28       54       55 </v>
   <v type="int" >        4       28       54       55       56 </v>
   <v type="int" >        4       26       27       27       55 </v>
   <v type="int" >        4       27       27       28       55 </v>
   <v type="int" >        4       27       28       55       56 </v>
   <v type="int" >        4       26       27       54       55 </v>
   <v type="int" >        4       27       54       55       55 </v>
   <v type="int" >        4       27       55       55       56 </v>
   <v type="int" >        4       24       25       26       54 </v>
   <v type="int" >        4       25       26       27       54 </v>
   <v type="int" >        4       25       27       54       55 </v>
   <v type="int" >        4       24       25       52       54 </v>
   <v type="int" >        4       25       52       53       54 </v>
   <v type="int" >        4       25       53       54       55 </v>
   <v type="int" >        4       21       22       24       52 </v>
   <v type="int" >        4       22       24       25       52 </v>
   <v type="int" >        4       22       25       52       53 </v>
   <v type="int" >        4       21       22       49       52 </v>
   <v type="int" >        4       22       49       50       52 </v>
   <v type="int" >        4       22       50       52       53 </v>
   <v type="int" >        4       17       18       21       49 </v>
   <v type="int" >        4       18       21       22       49 </v>
   <v type="int" >        4       18       22       49       50 </v>
   <v type="int" >        4       17       18       45       49 </v>
   <v type="int" >        4       18       45       46       49 </v>
   <v type="int" >        4       18       46       49       50 </v>
   <v type="int" >        4       12       13       17       45 </v>
   <v type="int" >        4       13       17       18       45 </v>
   <v type="int" >        4       13       18       45       46 </v>
   <v type="int" >        4       12       13       40       45 </v>
   <v type="int" >        4       13       40       41       45 </v>
   <v type="int" >        4       13       41       45       46 </v>
   <v type="int" >        4        6        7       12       40 </v>
   <v type="int" >        4        7       12       13       40 </v>
   <v type="int" >        4        7       13       40       41 </v>
   <v type="int" >        4        6        7       34       40 </v>
   <v type="int" >        4        7       34       35       40 </v>
   <v type="int" >        4        7       35       40       41 </v>
   <v type="int" >        4       26       27       28       56 </v>
   <v type="int" >        4       26       27       55       56 </v>
   <v type="int" >        4       26       54       55       56 </v>
   <v type="int" >        4       24       25       27       55 </v>
   <v type="int" >        4       24       26       27       55 </v>
   <v type="int" >        4       24       26       54       55 </v>
   <v type="int" >        4       24       25       53       55 </v>
   <v type="int" >        4       24       52       53       55 </v>
   <v type="int" >        4       24       52       54       55 </v>
   <v type="int" >        4       21       22       25       53 </v>
   <v type="int" >        4       21       24       25       53 </v>
   <v type="int" >        4       21       24       52       53 </v>
   <v type="int" >        4       21       22       50       53 </v>
   <v type="int" >        4       21       49       50       53 </v>
   <v type="int" >        4       21       49       52       53 </v>
   <v type="int" >        4       17       18       22       50 </v>
   <v type="int" >        4       17       21       22       50 </v>
   <v type="int" >        4       17       21       49       50 </v>
   <v type="int" >        4       17       18       46       50 </v>
   <v type="int" >        4       17       45       46       50 </v>
   <v type="int" >        4       17       45       49       50 </v>
   <v type="int" >        4       12       13       18       46 </v>
   <v type="int" >        4       12       17       18       46 </v>
   <v type="int" >        4       12       17       45       46 </v>
   <v type="int" >        4       12       13       41       46 </v>
   <v type="int" >        4       12       40       41       46 </v>
   <v type="int" >        4       12       40       45       46 </v>
   <v type="int" >        4        6        7       13       41 </v>
   <v type="int" >        4        6       12       13       41 </v>
   <v type="int" >        4        6       12       40       41 </v>
   <v type="int" >        4        6        7       35       41 </v>
   <v type="int" >        4        6       34       35       41 </v>
   <v type="int" >        4        6       34       40       41 </v>
   <v type="int" >        4       23       24       26       54 </v>
   <v type="int" >        4       23       24       52       54 </v>
   <v type="int" >        4       23       51       52       54 </v>
   <v type="int" >        4       20       21       24       52 </v>
   <v type="int" >        4       20       23       24       52 </v>
   <v type="int" >        4       20       23       51       52 </v>
   <v type="int" >        4       20       21       49       52 </v>
   <v type="int" >        4       20       48       49       52 </v>
   <v type="int" >        4       20       48       51       52 </v>
   <v type="int" >        4       16       17       21       49 </v>
   <v type="int" >        4       16       20       21       49 </v>
   <v type="int" >        4       16       20       48       49 </v>
   <v type="int" >        4       16       17       45       49 </v>
   <v type="int" >        4       16       44       45       49 </v>
   <v type="int" >        4       16       44       48       49 </v>
   <v type="int" >        4       11       12       17       45 </v>
   <v type="int" >        4       11       16       17       45 </v>
   <v type="int" >        4       11       16       44       45 </v>
   <v type="int" >        4       11       12       40       45 </v>
   <v type="int" >        4       11       39       40       45 </v>
   <v type="int" >        4       11       39       44       45 </v>
   <v type="int" >        4        5        6       12       40 </v>
   <v type="int" >        4        5       11       12       40 </v>
   <v type="int" >        4        5       11       39       40 </v>
   <v type="int" >        4        5        6       34       40 </v>
   <v type="int" >        4        5       33       34       40 </v>
   <v type="int" >        4        5       33       39       40 </v>
   <v type="int" >        4       19       20       23       51 </v>
   <v type="int" >        4       19       20       48       51 </v>
   <v type="int" >        4       19       47       48       51 </v>
   <v type="int" >        4       15       16       20       48 </v>
   <v type="int" >        4       15       19       20       48 </v>
   <v type="int" >        4       15       19       47       48 </v>
   <v type="int" >        4       15       16       44       48 </v>
   <v type="int" >        4       15       43       44       48 </v>
   <v type="int" >        4       15       43       47       48 </v>
   <v type="int" >        4       10       11       16       44 </v>
   <v type="int" >        4       10       15       16       44 </v>
   <v type="int" >        4       10       15       43       44 </v>
   <v type="int" >        4       10       11       39       44 </v>
   <v type="int" >        4       10       38       39       44 </v>
   <v type="int" >        4       10       38       43       44 </v>
   <v type="int" >        4        4        5       11       39 </v>
   <v type="int" >        4        4       10       11       39 </v>
   <v type="int" >        4        4       10       38       39 </v>
   <v type="int" >        4        4        5       33       39 </v>
   <v type="int" >        4        4       32       33       39 </v>
   <v type="int" >        4        4       32       38       39 </v>
   <v type="int" >        4       14       15       19       47 </v>
   <v type="int" >        4       14       15       43       47 </v>
   <v type="int" >        4       14       42       43       47 </v>
   <v type="int" >        4        9       10       15       43 </v>
   <v type="int" >        4        9       14       15       43 </v>
   <v type="int" >        4        9       14       42       43 </v>
   <v type="int" >        4        9       10       38       43 </v>
   <v type="int" >        4        9       37       38       43 </v>
   <v type="int" >        4        9       37       42       43 </v>
   <v type="int" >        4        3        4       10       38 </v>
   <v type="int" >        4        3        9       10       38 </v>
   <v type="int" >        4        3        9       37       38 </v>
   <v type="int" >        4        3        4       32       38 </v>
   <v type="int" >        4        3       31       32       38 </v>
   <v type="int" >        4        3       31       37       38 </v>
   <v type="int" >        4        8        9       14       42 </v>
   <v type="int" >        4        8        9       37       42 </v>
   <v type="int" >        4        8       36       37       42 </v>
   <v type="int" >        4        2        3        9       37 </v>
   <v type="int" >        4        2        8        9       37 </v>
   <v type="int" >        4        2        8       36       37 </v>
   <v type="int" >        4        2        3       31       37 </v>
   <v type="int" >        4        2       30       31       37 </v>
   <v type="int" >        4        2       30       36       37 </v>
   <v type="int" >        4        1        2        8       36 </v>
   <v type="int" >        4        1        2       30       36 </v>
   <v type="int" >        4        1       29       30       36 </v>
   <v type="int" >        4       29       30       36       57 </v>
   <v type="int" >        4       30       36       57       58 </v>
   <v type="int" >        4       36       57       58       64 </v>
   <v type="int" >        4       30       31       37       58 </v>
   <v type="int" >        4       30       36       37       58 </v>
   <v type="int" >        4       36       37       58       64 </v>
   <v type="int" >        4       31       37       58       59 </v>
   <v type="int" >        4       37       58       59       65 </v>
   <v type="int" >        4       37       58       64       65 </v>
   <v type="int" >        4       31       32       38       59 </v>
   <v type="int" >        4       31       37       38       59 </v>
   <v type="int" >        4       37       38       59       65 </v>
   <v type="int" >        4       32       38       59       60 </v>
   <v type="int" >        4       38       59       60       66 </v>
   <v type="int" >        4       38       59       65       66 </v>
   <v type="int" >        4       32       33       39       60 </v>
   <v type="int" >        4       32       38       39       60 </v>
   <v type="int" >        4       38       39       60       66 </v>
   <v type="int" >        4       33       39       60       61 </v>
   <v type="int" >        4       39       60       61       67 </v>
   <v type="int" >        4       39       60       66       67 </v>
   <v type="int" >        4       33       34       40       61 </v>
   <v type="int" >        4       33       39       40       61 </v>
   <v type="int" >        4       39       40       61       67 </v>
   <v type="int" >        4       34       40       61       62 </v>
   <v type="int" >        4       40       61       62       68 </v>
   <v type="int" >        4       40       61       67       68 </v>
   <v type="int" >        4       34       35       41       62 </v>
   <v type="int" >        4       34       40       41       62 </v>
   <v type="int" >        4       40       41       62       68 </v>
   <v type="int" >        4       35       41       62       63 </v>
   <v type="int" >        4       41       62       63       69 </v>
   <v type="int" >        4       41       62       68       69 </v>
   <v type="int" >        4       34       35       40       63 </v>
   <v type="int" >        4       35       40       41       63 </v>
   <v type="int" >        4       40       41       63       69 </v>
   <v type="int" >        4       34       40       62       63 </v>
   <v type="int" >        4       40       62       63       68 </v>
   <v type="int" >        4       40       63       68       69 </v>
   <v type="int" >        4       33       34       39       62 </v>
   <v type="int" >        4       34       39       40       62 </v>
   <v type="int" >        4       39       40       62       68 </v>
   <v type="int" >        4       33       39       61       62 </v>
   <v type="int" >        4       39       61       62       67 </v>
   <v type="int" >        4       39       62       67       68 </v>
   <v type="int" >        4       32       33       38       61 </v>
   <v type="int" >        4       33       38       39       61 </v>
   <v type="int" >        4       38       39       61       67 </v>
   <v type="int" >        4       32       38       60       61 </v>
   <v type="int" >        4       38       60       61       66 </v>
   <v type="int" >        4       38       61       66       67 </v>
   <v type="int" >        4       31       32       37       60 </v>
   <v type="int" >        4       32       37       38       60 </v>
   <v type="int" >        4       37       38       60       66 </v>
   <v type="int" >        4       31       37       59       60 </v>
   <v type="int" >        4       37       59       60       65 </v>
   <v type="int" >        4       37       60       65       66 </v>
   <v type="int" >        4       30       31       36       59 </v>
   <v type="int" >        4       31       36       37       59 </v>
   <v type="int" >        4       36       37       59       65 </v>
   <v type="int" >        4       30       36       58       59 </v>
   <v type="int" >        4       36       58       59       64 </v>
   <v type="int" >        4       36       59       64       65 </v>
   <v type="int" >        4       29       30       30       58 </v>
   <v type="int" >        4       30       30       36       58 </v>
   <v type="int" >        4       30       36       58       64 </v>
   <v type="int" >        4       29       30       57       58 </v>
   <v type="int" >        4       30       57       58       58 </v>
   <v type="int" >        4       30       58       58       64 </v>
   <v type="int" >        4       36       37       42       64 </v>
   <v type="int" >        4       37       42       64       65 </v>
   <v type="int" >        4       42       64       65       70 </v>
   <v type="int" >        4       37       38       43       65 </v>
   <v type="int" >        4       37       42       43       65 </v>
   <v type="int" >        4       42       43       65       70 </v>
   <v type="int" >        4       38       43       65       66 </v>
   <v type="int" >        4       43       65       66       71 </v>
   <v type="int" >        4       43       65       70       71 </v>
   <v type="int" >        4       38       39       44       66 </v>
   <v type="int" >        4       38       43       44       66 </v>
   <v type="int" >        4       43       44       66       71 </v>
   <v type="int" >        4       39       44       66       67 </v>
   <v type="int" >        4       44       66       67       72 </v>
   <v type="int" >        4       44       66       71       72 </v>
   <v type="int" >        4       39       40       45       67 </v>
   <v type="int" >        4       39       44       45       67 </v>
   <v type="int" >        4       44       45       67       72 </v>
   <v type="int" >        4       40       45       67       68 </v>
   <v type="int" >        4       45       67       68       73 </v>
   <v type="int" >        4       45       67       72       73 </v>
   <v type="int" >        4       40       41       46       68 </v>
   <v type="int" >        4       40       45       46       68 </v>
   <v type="int" >        4       45       46       68       73 </v>
   <v type="int" >        4       41       46       68       69 </v>
   <v type="int" >        4       46       68       69       74 </v>
   <v type="int" >        4       46       68       73       74 </v>
   <v type="int" >        4       40       41       45       69 </v>
   <v type="int" >        4       41       45       46       69 </v>
   <v type="int" >        4       45       46       69       74 </v>
   <v type="int" >        4       40       45       68       69 </v>
   <v type="int" >        4       45       68       69       73 </v>
   <v type="int" >        4       45       69       73       74 </v>
   <v type="int" >        4       39       40       44       68 </v>
   <v type="int" >        4       40       44       45       68 </v>
   <v type="int" >        4       44       45       68       73 </v>
   <v type="int" >        4       39       44       67       68 </v>
   <v type="int" >        4       44       67       68       72 </v>
   <v type="int" >        4       44       68       72       73 </v>
   <v type="int" >        4       38       39       43       67 </v>
   <v type="int" >        4       39       43       44       67 </v>
   <v type="int" >        4       43       44       67       72 </v>
   <v type="int" >        4       38       43       66       67 </v>
   <v type="int" >        4       43       66       67       71 </v>
   <v type="int" >        4       43       67       71       72 </v>
   <v type="int" >        4       37       38       42       66 </v>
   <v type="int" >        4       38       42       43       66 </v>
   <v type="int" >        4       42       43       66       71 </v>
   <v type="int" >        4       37       42       65       66 </v>
   <v type="int" >        4       42       65       66       70 </v>
   <v type="int" >        4       42       66       70       71 </v>
   <v type="int" >        4       36       37       37       65 </v>
   <v type="int" >        4       37       37       42       65 </v>
   <v type="int" >        4       37       42       65       70 </v>
   <v type="int" >        4       36       37       64       65 </v>
   <v type="int" >        4       37       64       65       65 </v>
   <v type="int" >        4       37       65       65       70 </v>
   <v type="int" >        4       30       31       36       64 </v>
   <v type="int" >        4       31       36       37       64 </v>
   <v type="int" >        4       31       37       64       65 </v>
   <v type="int" >        4       30       31       58       64 </v>
   <v type="int" >        4       31       58       59       64 </v>
   <v type="int" >        4       31       59       64       65 </v>
   <v type="int" >        4       42       43       47       70 </v>
   <v type="int" >        4       43       47       70       71 </v>
   <v type="int" >        4       47       70       71       75 </v>
   <v type="int" >        4       43       44       48       71 </v>
   <v type="int" >        4       43       47       48       71 </v>
   <v type="int" >        4       47       48       71       75 </v>
   <v type="int" >        4       44       48       71       72 </v>
   <v type="int" >        4       48       71       72       76 </v>
   <v type="int" >        4       48       71       75       76 </v>
   <v type="int" >        4       44       45       49       72 </v>
   <v type="int" >        4       44       48       49       72 </v>
   <v type="int" >        4       48       49       72       76 </v>
   <v type="int" >        4       45       49       72       73 </v>
   <v type="int" >        4       49       72       73       77 </v>
   <v type="int" >        4       49       72       76       77 </v>
   <v type="int" >        4       45       46       50       73 </v>
   <v type="int" >        4       45       49       50       73 </v>
   <v type="int" >        4       49       50       73       77 </v>
   <v type="int" >        4       46       50       73       74 </v>
   <v type="int" >        4       50       73       74       78 </v>
   <v type="int" >        4       50       73       77       78 </v>
   <v type="int" >        4       45       46       49       74 </v>
   <v type="int" >        4       46       49       50       74 </v>
   <v type="int" >        4       49       50       74       78 </v>
   <v type="int" >        4       45       49       73       74 </v>
   <v type="int" >        4       49       73       74       77 </v>
   <v type="int" >        4       49       74       77       78 </v>
   <v type="int" >        4       44       45       48       73 </v>
   <v type="int" >        4       45       48       49       73 </v>
   <v type="int" >        4       48       49       73       77 </v>
   <v type="int" >        4       44       48       72       73 </v>
   <v type="int" >        4       48       72       73       76 </v>
   <v type="int" >        4       48       73       76       77 </v>
   <v type="int" >        4       43       44       47       72 </v>
   <v type="int" >        4       44       47       48       72 </v>
   <v type="int" >        4       47       48       72       76 </v>
   <v type="int" >        4       43       47       71       72 </v>
   <v type="int" >        4       47       71       72       75 </v>
   <v type="int" >        4       47       72       75       76 </v>
   <v type="int" >        4       42       43       43       71 </v>
   <v type="int" >        4       43       43       47       71 </v>
   <v type="int" >        4       43       47       71       75 </v>
   <v type="int" >        4       42       43       70       71 </v>
   <v type="int" >        4       43       70       71       71 </v>
   <v type="int" >        4       43       71       71       75 </v>
   <v type="int" >        4       37       38       42       70 </v>
   <v type="int" >        4       38       42       43       70 </v>
   <v type="int" >        4       38       43       70       71 </v>
   <v type="int" >        4       37       38       65       70 </v>
   <v type="int" >        4       38       65       66       70 </v>
   <v type="int" >        4       38       66       70       71 </v>
   <v type="int" >        4       31       32       37       65 </v>
   <v type="int" >        4       32       37       38       65 </v>
   <v type="int" >        4       32       38       65       66 </v>
   <v type="int" >        4       31       32       59       65 </v>
   <v type="int" >        4       32       59       60       65 </v>
   <v type="int" >        4       32       60       65       66 </v>
   <v type="int" >        4       47       48       51       75 </v>
   <v type="int" >        4       48       51       75       76 </v>
   <v type="int" >        4       51       75       76       79 </v>
   <v type="int" >        4       48       49       52       76 </v>
   <v type="int" >        4       48       51       52       76 </v>
   <v type="int" >        4       51       52       76       79 </v>
   <v type="int" >        4       49       52       76       77 </v>
   <v type="int" >        4       52       76       77       80 </v>
   <v type="int" >        4       52       76       79       80 </v>
   <v type="int" >        4       49       50       53       77 </v>
   <v type="int" >        4       49       52       53       77 </v>
   <v type="int" >        4       52       53       77       80 </v>
   <v type="int" >        4       50       53       77       78 </v>
   <v type="int" >        4       53       77       78       81 </v>
   <v type="int" >        4       53       77       80       81 </v>
   <v type="int" >        4       49       50       52       78 </v>
   <v type="int" >        4       50       52       53       78 </v>
   <v type="int" >        4       52       53       78       81 </v>
   <v type="int" >        4       49       52       77       78 </v>
   <v type="int" >        4       52       77       78       80 </v>
   <v type="int" >        4       52       78       80       81 </v>
   <v type="int" >        4       48       49       51       77 </v>
   <v type="int" >        4       49       51       52       77 </v>
   <v type="int" >        4       51       52       77       80 </v>
   <v type="int" >        4       48       51       76       77 </v>
   <v type="int" >        4       51       76       77       79 </v>
   <v type="int" >        4       51       77       79       80 </v>
   <v type="int" >        4       47       48       48       76 </v>
   <v type="int" >        4       48       48       51       76 </v>
   <v type="int" >        4       48       51       76       79 </v>
   <v type="int" >        4       47       48       75       76 </v>
   <v type="int" >        4       48       75       76       76 </v>
   <v type="int" >        4       48       76       76       79 </v>
   <v type="int" >        4       43       44       47       75 </v>
   <v type="int" >        4       44       47       48       75 </v>
   <v type="int" >        4       44       48       75       76 </v>
   <v type="int" >        4       43       44       71       75 </v>
   <v type="int" >        4       44       71       72       75 </v>
   <v type="int" >        4       44       72       75       76 </v>
   <v type="int" >        4       38       39       43       71 </v>
   <v type="int" >        4       39       43       44       71 </v>
   <v type="int" >        4       39       44       71       72 </v>
   <v type="int" >        4       38       39       66       71 </v>
   <v type="int" >        4       39       66       67       71 </v>
   <v type="int" >        4       39       67       71       72 </v>
   <v type="int" >        4       32       33       38       66 </v>
   <v type="int" >        4       33       38       39       66 </v>
   <v type="int" >        4       33       39       66       67 </v>
   <v type="int" >        4       32       33       60       66 </v>
   <v type="int" >        4       33       60       61       66 </v>
   <v type="int" >        4       33       61       66       67 </v>
   <v type="int" >        4       51       52       54       79 </v>
   <v type="int" >        4       52       54       79       80 </v>
   <v type="int" >        4       54       79       80       82 </v>
   <v type="int" >        4       52       53       55       80 </v>
   <v type="int" >        4       52       54       55       80 </v>
   <v type="int" >        4       54       55       80       82 </v>
   <v type="int" >        4       53       55       80       81 </v>
   <v type="int" >        4       55       80       81       83 </v>
   <v type="int" >        4       55       80       82       83 </v>
   <v type="int" >        4       52       53       54       81 </v>
   <v type="int" >        4       53       54       55       81 </v>
   <v type="int" >        4       54       55       81       83 </v>
   <v type="int" >        4       52       54       80       81 </v>
   <v type="int" >        4       54       80       81       82 </v>
   <v type="int" >        4       54       81       82       83 </v>
   <v type="int" >        4       51       52       52       80 </v>
   <v type="int" >        4       52       52       54       80 </v>
   <v type="int" >        4       52       54       80       82 </v>
   <v type="int" >        4       51       52       79       80 </v>
   <v type="int" >        4       52       79       80       80 </v>
   <v type="int" >        4       52       80       80       82 </v>
   <v type="int" >        4       48       49       51       79 </v>
   <v type="int" >        4       49       51       52       79 </v>
   <v type="int" >        4       49       52       79       80 </v>
   <v type="int" >        4       48       49       76       79 </v>
   <v type="int" >        4       49       76       77       79 </v>
   <v type="int" >        4       49       77       79       80 </v>
   <v type="int" >        4       44       45       48       76 </v>
   <v type="int" >        4       45       48       49       76 </v>
   <v type="int" >        4       45       49       76       77 </v>
   <v type="int" >        4       44       45       72       76 </v>
   <v type="int" >        4       45       72       73       76 </v>
   <v type="int" >        4       45       73       76       77 </v>
   <v type="int" >        4       39       40       44       72 </v>
   <v type="int" >        4       40       44       45       72 </v>
   <v type="int" >        4       40       45       72       73 </v>
   <v type="int" >        4       39       40       67       72 </v>
   <v type="int" >        4       40       67       68       72 </v>
   <v type="int" >        4       40       68       72       73 </v>
   <v type="int" >        4       33       34       39       67 </v>
   <v type="int" >        4       34       39       40       67 </v>
   <v type="int" >        4       34       40       67       68 </v>
   <v type="int" >        4       33       34       61       67 </v>
   <v type="int" >        4       34       61       62       67 </v>
   <v type="int" >        4       34       62       67       68 </v>
   <v type="int" >        4       54       55       56       82 </v>
   <v type="int" >        4       55       56       82       83 </v>
   <v type="int" >        4       56       82       83       84 </v>
   <v type="int" >        4       54       55       55       83 </v>
   <v type="int" >        4       55       55       56       83 </v>
   <v type="int" >        4       55       56       83       84 </v>
   <v type="int" >        4       54       55       82       83 </v>
   <v type="int" >        4       55       82       83       83 </v>
   <v type="int" >        4       55       83       83       84 </v>
   <v type="int" >        4       52       53       54       82 </v>
   <v type="int" >        4       53       54       55       82 </v>
   <v type="int" >        4       53       55       82       83 </v>
   <v type="int" >        4       52       53       80       82 </v>
   <v type="int" >        4       53       80       81       82 </v>
   <v type="int" >        4       53       81       82       83 </v>
   <v type="int" >        4       49       50       52       80 </v>
   <v type="int" >        4       50       52       53       80 </v>
   <v type="int" >        4       50       53       80       81 </v>
   <v type="int" >        4       49       50       77       80 </v>
   <v type="int" >        4       50       77       78       80 </v>
   <v type="int" >        4       50       78       80       81 </v>
   <v type="int" >        4       45       46       49       77 </v>
   <v type="int" >        4       46       49       50       77 </v>
   <v type="int" >        4       46       50       77       78 </v>
   <v type="int" >        4       45       46       73       77 </v>
   <v type="int" >        4       46       73       74       77 </v>
   <v type="int" >        4       46       74       77       78 </v>
   <v type="int" >        4       40       41       45       73 </v>
   <v type="int" >        4       41       45       46       73 </v>
   <v type="int" >        4       41       46       73       74 </v>
   <v type="int" >        4       40       41       68       73 </v>
   <v type="int" >        4       41       68       69       73 </v>
   <v type="int" >        4       41       69       73       74 </v>
   <v type="int" >        4       34       35       40       68 </v>
   <v type="int" >        4       35       40       41       68 </v>
   <v type="int" >        4       35       41       68       69 </v>
   <v type="int" >        4       34       35       62       68 </v>
   <v type="int" >        4       35       62       63       68 </v>
   <v type="int" >        4       35       63       68       69 </v>
   <v type="int" >        4       54       55       56       84 </v>
   <v type="int" >        4       54       55       83       84 </v>
   <v type="int" >        4       54       82       83       84 </v>
   <v type="int" >        4       52       53       55       83 </v>
   <v type="int" >        4       52       54       55       83 </v>
   <v type="int" >        4       52       54       82       83 </v>
   <v type="int" >        4       52       53       81       83 </v>
   <v type="int" >        4       52       80       81       83 </v>
   <v type="int" >        4       52       80       82       83 </v>
   <v type="int" >        4       49       50       53       81 </v>
   <v type="int" >        4       49       52       53       81 </v>
   <v type="int" >        4       49       52       80       81 </v>
   <v type="int" >        4       49       50       78       81 </v>
   <v type="int" >        4       49       77       78       81 </v>
   <v type="int" >        4       49       77       80       81 </v>
   <v type="int" >        4       45       46       50       78 </v>
   <v type="int" >        4       45       49       50       78 </v>
   <v type="int" >        4       45       49       77       78 </v>
   <v type="int" >        4       45       46       74       78 </v>
   <v type="int" >        4       45       73       74       78 </v>
   <v type="int" >        4       45       73       77       78 </v>
   <v type="int" >        4       40       41       46       74 </v>
   <v type="int" >        4       40       45       46       74 </v>
   <v type="int" >        4       40       45       73       74 </v>
   <v type="int" >        4       40       41       69       74 </v>
   <v type="int" >        4       40       68       69       74 </v>
   <v type="int" >        4       40       68       73       74 </v>
   <v type="int" >        4       34       35       41       69 </v>
   <v type="int" >        4       34       40       41       69 </v>
   <v type="int" >        4       34       40       68       69 </v>
   <v type="int" >        4       34       35       63       69 </v>
   <v type="int" >        4       34       62       63       69 </v>
   <v type="int" >        4       34       62       68       69 </v>
   <v type="int" >        4       51       52       54       82 </v>
   <v type="int" >        4       51       52       80       82 </v>
   <v type="int" >        4       51       79       80       82 </v>
   <v type="int" >        4       48       49       52       80 </v>
   <v type="int" >        4       48       51       52       80 </v>
   <v type="int" >        4       48       51       79       80 </v>
   <v type="int" >        4       48       49       77       80 </v>
   <v type="int" >        4       48       76       77       80 </v>
   <v type="int" >        4       48       76       79       80 </v>
   <v type="int" >        4       44       45       49       77 </v>
   <v type="int" >        4       44       48       49       77 </v>
   <v type="int" >        4       44       48       76       77 </v>
   <v type="int" >        4       44       45       73       77 </v>
   <v type="int" >        4       44       72       73       77 </v>
   <v type="int" >        4       44       72       76       77 </v>
   <v type="int" >        4       39       40       45       73 </v>
   <v type="int" >        4       39       44       45       73 </v>
   <v type="int" >        4       39       44       72       73 </v>
   <v type="int" >        4       39       40       68       73 </v>
   <v type="int" >        4       39       67       68       73 </v>
   <v type="int" >        4       39       67       72       73 </v>
   <v type="int" >        4       33       34       40       68 </v>
   <v type="int" >        4       33       39       40       68 </v>
   <v type="int" >        4       33       39       67       68 </v>
   <v type="int" >        4       33       34       62       68 </v>
   <v type="int" >        4       33       61       62       68 </v>
   <v type="int" >        4       33       61       67       68 </v>
   <v type="int" >        4       47       48       51       79 </v>
   <v type="int" >        4       47       48       76       79 </v>
   <v type="int" >        4       47       75       76       79 </v>
   <v type="int" >        4       43       44       48       76 </v>
   <v type="int" >        4       43       47       48       76 </v>
   <v type="int" >        4       43       47       75       76 </v>
   <v type="int" >        4       43       44       72       76 </v>
   <v type="int" >        4       43       71       72       76 </v>
   <v type="int" >        4       43       71       75       76 </v>
   <v type="int" >        4       38       39       44       72 </v>
   <v type="int" >        4       38       43       44       72 </v>
   <v type="int" >        4       38       43       71       72 </v>
   <v type="int" >        4       38       39       67       72 </v>
   <v type="int" >        4       38       66       67       72 </v>
   <v type="int" >        4       38       66       71       72 </v>
   <v type="int" >        4       32       33       39       67 </v>
   <v type="int" >        4       32       38       39       67 </v>
   <v type="int" >        4       32       38       66       67 </v>
   <v type="int" >        4       32       33       61       67 </v>
   <v type="int" >        4       32       60       61       67 </v>
   <v type="int" >        4       32       60       66       67 </v>
   <v type="int" >        4       42       43       47       75 </v>
   <v type="int" >        4       42       43       71       75 </v>
   <v type="int" >        4       42       70       71       75 </v>
   <v type="int" >        4       37       38       43       71 </v>
   <v type="int" >        4       37       42       43       71 </v>
   <v type="int" >        4       37       42       70       71 </v>
   <v type="int" >        4       37       38       66       71 </v>
   <v type="int" >        4       37       65       66       71 </v>
   <v type="int" >        4       37       65       70       71 </v>
   <v type="int" >        4       31       32       38       66 </v>
   <v type="int" >        4       31       37       38       66 </v>
   <v type="int" >        4       31       37       65       66 </v>
   <v type="int" >        4       31       32       60       66 </v>
   <v type="int" >        4       31       59       60       66 </v>
   <v type="int" >        4       31       59       65       66 </v>
   <v type="int" >        4       36       37       42       70 </v>
   <v type="int" >        4       36       37       65       70 </v>
   <v type="int" >        4       36       64       65       70 </v>
   <v type="int" >        4       30       31       37       65 </v>
   <v type="int" >        4       30       36       37       65 </v>
   <v type="int" >        4       30       36       64       65 </v>
   <v type="int" >        4       30       31       59       65 </v>
   <v type="int" >        4       30       58       59       65 </v>
   <v type="int" >        4       30       58       64       65 </v>
   <v type="int" >        4       29       30       36       64 </v>
   <v type="int" >        4       29       30       58       64 </v>
[...]
       <r>   -7.0254    1.0000 </r>
       <r>   -7.0254    1.0000 </r>
       <r>   -3.2524    1.0000 </r>
       <r>   -3.2524    1.0000 </r>
       <r>   -3.2524    1.0000 </r>
       <r>   -3.2524    1.0000 </r>
       <r>    4.5917    1.0000 </r>
       <r>    4.5917    1.0000 </r>
       <r>    4.5917    1.0000 </r>
       <r>    4.5917    1.0000 </r>
       <r>    5.8645    1.0000 </r>
       <r>    5.8645    1.0000 </r>
       <r>    5.8645    1.0000 </r>
       <r>    5.8645    1.0000 </r>
       <r>   15.5529    0.0000 </r>
       <r>   15.5529    0.0000 </r>
       <r>   15.5529    0.0000 </r>
       <r>   15.5529    0.0000 </r>
       <r>   16.1718    0.0000 </r>
       <r>   16.1718    0.0000 </r>
       <r>   16.1718    0.0000 </r>
       <r>   16.1718    0.0000 </r>
      </set>
      <set comment="kpoint 194">
       <r>   -7.1293    1.0000 </r>
       <r>   -7.1293    1.0000 </r>
       <r>   -6.5749    1.0000 </r>
       <r>   -6.5749    1.0000 </r>
       <r>   -3.8973    1.0000 </r>
       <r>   -3.8973    1.0000 </r>
       <r>   -3.3489    1.0000 </r>
       <r>   -3.3489    1.0000 </r>
       <r>    4.7726    1.0000 </r>
       <r>    4.7726    1.0000 </r>
       <r>    5.2040    1.0000 </r>
       <r>    5.2040    1.0000 </r>
       <r>    5.7876    1.0000 </r>
       <r>    5.7876    1.0000 </r>
       <r>    5.9735    1.0000 </r>
       <r>    5.9735    1.0000 </r>
       <r>   14.9988    0.0000 </r>
       <r>   14.9988    0.0000 </r>
       <r>   15.6593    0.0000 </r>
       <r>   15.6593    0.0000 </r>
       <r>   16.0044    0.0000 </r>
       <r>   16.0044    0.0000 </r>
       <r>   16.1897    0.0000 </r>
       <r>   16.1897    0.0000 </r>
      </set>
      <set comment="kpoint 195">
       <r>   -6.7841    1.0000 </r>
       <r>   -6.7841    1.0000 </r>
       <r>   -6.7841    1.0000 </r>
       <r>   -6.7841    1.0000 </r>
       <r>   -3.7905    1.0000 </r>
       <r>   -3.7905    1.0000 </r>
       <r>   -3.7905    1.0000 </r>
       <r>   -3.7905    1.0000 </r>
       <r>    5.1220    1.0000 </r>
       <r>    5.1220    1.0000 </r>
       <r>    5.1220    1.0000 </r>
       <r>    5.1220    1.0000 </r>
       <r>    5.9641    1.0000 </r>
       <r>    5.9641    1.0000 </r>
       <r>    5.9641    1.0000 </r>
       <r>    5.9641    1.0000 </r>
       <r>   15.1914    0.0000 </r>
       <r>   15.1914    0.0000 </r>
       <r>   15.1914    0.0000 </r>
       <r>   15.1914    0.0000 </r>
       <r>   16.0392    0.0000 </r>
       <r>   16.0392    0.0000 </r>
       <r>   16.0392    0.0000 </r>
       <r>   16.0392    0.0000 </r>
      </set>
      <set comment="kpoint 196">
       <r>   -6.6773    1.0000 </r>
       <r>   -6.6773    1.0000 </r>
       <r>   -6.6773    1.0000 </r>
       <r>   -6.6773    1.0000 </r>
       <r>   -3.9966    1.0000 </r>
       <r>   -3.9966    1.0000 </r>
       <r>   -3.9966    1.0000 </r>
       <r>   -3.9966    1.0000 </r>
       <r>    5.2898    1.0000 </r>
       <r>    5.2898    1.0000 </r>
       <r>    5.2898    1.0000 </r>
       <r>    5.2898    1.0000 </r>
       <r>    6.0258    1.0000 </r>
       <r>    6.0258    1.0000 </r>
       <r>    6.0258    1.0000 </r>
       <r>    6.0258    1.0000 </r>
       <r>   15.0381    0.0000 </r>
       <r>   15.0381    0.0000 </r>
       <r>   15.0381    0.0000 </r>
       <r>   15.0381    0.0000 </r>
       <r>   15.9890    0.0000 </r>
       <r>   15.9890    0.0000 </r>
       <r>   15.9891    0.0000 </r>
       <r>   15.9892    0.0000 </r>
      </set>
     </set>
    </set>
   </array>
  </eigenvalues>
  <separator name="orbital magnetization" >
   <v name="MAGDIPOLOUT">      0.00000000      0.00000000      0.00000000</v>
  </separator>
  <dos>
   <i name="efermi">      8.64612543 </i>
   <total>
    <array>
     <dimension dim="1">gridpoints</dimension>
     <dimension dim="2">spin</dimension>
     <field>energy</field>
     <field>total</field>
     <field>integrated</field>
     <set>
      <set comment="spin 1">
       <r>   -13.3793     0.0000     0.0000 </r>
       <r>   -13.2658     0.0000     0.0000 </r>
       <r>   -13.1523     0.0000     0.0000 </r>
       <r>   -13.0388     0.0000     0.0000 </r>
       <r>   -12.9253     0.0000     0.0000 </r>
       <r>   -12.8118     0.0000     0.0000 </r>
       <r>   -12.6982     0.0000     0.0000 </r>
       <r>   -12.5847     0.0000     0.0000 </r>
       <r>   -12.4712     0.0000     0.0000 </r>
       <r>   -12.3577     0.0000     0.0000 </r>
       <r>   -12.2442     0.0000     0.0000 </r>
       <r>   -12.1307     0.0000     0.0000 </r>
       <r>   -12.0172     0.0000     0.0000 </r>
       <r>   -11.9036     0.0000     0.0000 </r>
       <r>   -11.7901     0.0380     0.0005 </r>
       <r>   -11.6766     0.1667     0.0151 </r>
       <r>   -11.5631     0.2605     0.0394 </r>
       <r>   -11.4496     0.2959     0.0706 </r>
       <r>   -11.3361     0.3477     0.1072 </r>
       <r>   -11.2226     0.3906     0.1495 </r>
       <r>   -11.1090     0.4224     0.1956 </r>
       <r>   -10.9955     0.4570     0.2454 </r>
       <r>   -10.8820     0.4972     0.2996 </r>
       <r>   -10.7685     0.5238     0.3576 </r>
       <r>   -10.6550     0.5489     0.4184 </r>
       <r>   -10.5415     0.5778     0.4823 </r>
       <r>   -10.4279     0.6089     0.5497 </r>
       <r>   -10.3144     0.6347     0.6204 </r>
       <r>   -10.2009     0.6590     0.6939 </r>
       <r>   -10.0874     0.6818     0.7699 </r>
       <r>    -9.9739     0.7057     0.8487 </r>
       <r>    -9.8604     0.7312     0.9302 </r>
       <r>    -9.7469     0.7575     1.0147 </r>
       <r>    -9.6333     0.7795     1.1020 </r>
       <r>    -9.5198     0.8005     1.1917 </r>
       <r>    -9.4063     0.8216     1.2837 </r>
       <r>    -9.2928     0.8439     1.3783 </r>
       <r>    -9.1793     0.8675     1.4754 </r>
       <r>    -9.0658     0.8919     1.5752 </r>
       <r>    -8.9523     0.9131     1.6777 </r>
       <r>    -8.8387     0.9346     1.7826 </r>
       <r>    -8.7252     0.9564     1.8899 </r>
       <r>    -8.6117     0.9785     1.9997 </r>
       <r>    -8.4982     1.0014     2.1121 </r>
       <r>    -8.3847     1.0367     2.2274 </r>
       <r>    -8.2712     1.0729     2.3470 </r>
       <r>    -8.1576     1.1390     2.4728 </r>
       <r>    -8.0441     1.1759     2.6042 </r>
       <r>    -7.9306     1.2088     2.7397 </r>
       <r>    -7.8171     1.2022     2.8768 </r>
       <r>    -7.7036     1.1920     3.0124 </r>
       <r>    -7.5901     1.1667     3.1465 </r>
       <r>    -7.4766     1.1809     3.2795 </r>
       <r>    -7.3630     1.1982     3.4150 </r>
       <r>    -7.2495     1.2182     3.5516 </r>
       <r>    -7.1360     1.2658     3.6928 </r>
       <r>    -7.0225     1.3589     3.8414 </r>
       <r>    -6.9090     1.4067     3.9987 </r>
       <r>    -6.7955     1.5511     4.1656 </r>
       <r>    -6.6820     1.8155     4.3572 </r>
       <r>    -6.5684     1.7466     4.5654 </r>
       <r>    -6.4549     1.6570     4.7563 </r>
       <r>    -6.3414     1.7153     4.9480 </r>
       <r>    -6.2279     1.6052     5.1363 </r>
       <r>    -6.1144     1.5435     5.3155 </r>
       <r>    -6.0009     1.5417     5.4902 </r>
       <r>    -5.8873     1.5285     5.6648 </r>
       <r>    -5.7738     1.4393     5.8320 </r>
       <r>    -5.6603     1.3831     5.9914 </r>
       <r>    -5.5468     1.3644     6.1474 </r>
       <r>    -5.4333     1.3166     6.2994 </r>
       <r>    -5.3198     1.2927     6.4483 </r>
       <r>    -5.2063     1.2458     6.5925 </r>
       <r>    -5.0927     1.1934     6.7322 </r>
       <r>    -4.9792     1.1450     6.8669 </r>
       <r>    -4.8657     1.1183     6.9954 </r>
       <r>    -4.7522     1.0779     7.1196 </r>
       <r>    -4.6387     1.0575     7.2413 </r>
       <r>    -4.5252     1.0036     7.3594 </r>
       <r>    -4.4117     0.9438     7.4701 </r>
       <r>    -4.2981     0.8807     7.5740 </r>
       <r>    -4.1846     0.8091     7.6699 </r>
       <r>    -4.0711     0.7320     7.7574 </r>
       <r>    -3.9576     0.6195     7.8379 </r>
       <r>    -3.8441     0.7375     7.9094 </r>
       <r>    -3.7306     0.6918     7.9907 </r>
       <r>    -3.6170     0.8158     8.0780 </r>
       <r>    -3.5035     0.7729     8.1675 </r>
       <r>    -3.3900     0.8355     8.2575 </r>
       <r>    -3.2765     1.0654     8.3669 </r>
       <r>    -3.1630     1.2083     8.4959 </r>
       <r>    -3.0495     1.4096     8.6437 </r>
       <r>    -2.9360     1.6951     8.8172 </r>
       <r>    -2.8224     2.0183     9.0269 </r>
       <r>    -2.7089     2.6931     9.2856 </r>
       <r>    -2.5954     2.9351     9.6311 </r>
       <r>    -2.4819     2.8334     9.9561 </r>
       <r>    -2.3684     2.6488    10.2724 </r>
       <r>    -2.2549     2.2553    10.5510 </r>
       <r>    -2.1414     1.9903    10.7900 </r>
       <r>    -2.0278     1.8323    11.0065 </r>
       <r>    -1.9143     1.7116    11.2073 </r>
       <r>    -1.8008     1.6308    11.3967 </r>
       <r>    -1.6873     1.6208    11.5800 </r>
       <r>    -1.5738     1.5825    11.7633 </r>
       <r>    -1.4603     1.4055    11.9344 </r>
       <r>    -1.3467     1.3144    12.0885 </r>
       <r>    -1.2332     1.2484    12.2338 </r>
       <r>    -1.1197     1.2106    12.3731 </r>
       <r>    -1.0062     1.1821    12.5089 </r>
       <r>    -0.8927     1.1536    12.6415 </r>
       <r>    -0.7792     1.1207    12.7706 </r>
       <r>    -0.6657     1.0620    12.8950 </r>
       <r>    -0.5521     1.0010    13.0116 </r>
       <r>    -0.4386     1.0261    13.1257 </r>
       <r>    -0.3251     1.0930    13.2458 </r>
       <r>    -0.2116     1.2003    13.3764 </r>
       <r>    -0.0981     1.3316    13.5196 </r>
       <r>     0.0154     1.4244    13.6737 </r>
       <r>     0.1290     1.7188    13.8512 </r>
       <r>     0.2425     1.9436    14.0603 </r>
       <r>     0.3560     2.3979    14.3094 </r>
       <r>     0.4695     2.7882    14.6048 </r>
       <r>     0.5830     2.4832    14.9044 </r>
       <r>     0.6965     2.1966    15.1694 </r>
       <r>     0.8100     2.1264    15.4126 </r>
       <r>     0.9236     1.9793    15.6491 </r>
       <r>     1.0371     1.7211    15.8549 </r>
       <r>     1.1506     1.8268    16.0557 </r>
       <r>     1.2641     2.0577    16.2766 </r>
       <r>     1.3776     2.4479    16.5287 </r>
       <r>     1.4911     2.5973    16.8195 </r>
       <r>     1.6046     2.5734    17.1135 </r>
       <r>     1.7182     2.4904    17.4017 </r>
       <r>     1.8317     2.4155    17.6815 </r>
       <r>     1.9452     2.6099    17.9618 </r>
       <r>     2.0587     3.0946    18.2832 </r>
       <r>     2.1722     3.4296    18.6602 </r>
       <r>     2.2857     2.9851    19.0297 </r>
       <r>     2.3993     2.8174    19.3558 </r>
       <r>     2.5128     2.7780    19.6756 </r>
       <r>     2.6263     2.6965    19.9859 </r>
       <r>     2.7398     2.9154    20.2975 </r>
       <r>     2.8533     3.9052    20.6793 </r>
       <r>     2.9668     3.8739    21.1340 </r>
       <r>     3.0803     3.3921    21.5405 </r>
       <r>     3.1939     3.6238    21.9380 </r>
       <r>     3.3074     3.3195    22.3361 </r>
       <r>     3.4209     2.9593    22.6908 </r>
       <r>     3.5344     3.0193    23.0261 </r>
       <r>     3.6479     3.1078    23.3758 </r>
       <r>     3.7614     3.2238    23.7389 </r>
       <r>     3.8749     3.3129    24.1122 </r>
       <r>     3.9885     3.2353    24.4844 </r>
       <r>     4.1020     3.2308    24.8514 </r>
       <r>     4.2155     3.2819    25.2182 </r>
       <r>     4.3290     3.2771    25.5956 </r>
       <r>     4.4425     3.0505    25.9551 </r>
       <r>     4.5560     2.8959    26.2885 </r>
       <r>     4.6696     2.7146    26.6068 </r>
       <r>     4.7831     2.6726    26.9092 </r>
       <r>     4.8966     2.7912    27.2189 </r>
       <r>     5.0101     2.8831    27.5407 </r>
       <r>     5.1236     3.0686    27.8771 </r>
       <r>     5.2371     3.0931    28.2318 </r>
       <r>     5.3506     2.8123    28.5616 </r>
       <r>     5.4642     2.5912    28.8637 </r>
       <r>     5.5777     2.5369    29.1552 </r>
       <r>     5.6912     2.2287    29.4262 </r>
       <r>     5.8047     2.1943    29.6740 </r>
       <r>     5.9182     2.4586    29.9354 </r>
       <r>     6.0317     1.8756    30.1794 </r>
       <r>     6.1452     1.6440    30.3793 </r>
       <r>     6.2588     1.4806    30.5562 </r>
       <r>     6.3723     1.3703    30.7175 </r>
       <r>     6.4858     1.2971    30.8688 </r>
       <r>     6.5993     1.2031    31.0107 </r>
       <r>     6.7128     1.1024    31.1424 </r>
       <r>     6.8263     0.9794    31.2603 </r>
       <r>     6.9399     0.8917    31.3662 </r>
       <r>     7.0534     0.8254    31.4632 </r>
       <r>     7.1669     0.7950    31.5553 </r>
       <r>     7.2804     0.6936    31.6403 </r>
       <r>     7.3939     0.6046    31.7140 </r>
       <r>     7.5074     0.5237    31.7776 </r>
       <r>     7.6209     0.4960    31.8349 </r>
       <r>     7.7345     0.3757    31.8853 </r>
       <r>     7.8480     0.2665    31.9216 </r>
       <r>     7.9615     0.2043    31.9481 </r>
       <r>     8.0750     0.1529    31.9691 </r>
       <r>     8.1885     0.0989    31.9831 </r>
       <r>     8.3020     0.0695    31.9925 </r>
       <r>     8.4155     0.0266    31.9986 </r>
       <r>     8.5291     0.0027    32.0000 </r>
       <r>     8.6426     0.0000    32.0000 </r>
       <r>     8.7561     0.0000    32.0000 </r>
       <r>     8.8696     0.0000    32.0000 </r>
       <r>     8.9831     0.0000    32.0000 </r>
       <r>     9.0966     0.0000    32.0000 </r>
       <r>     9.2102     0.0000    32.0000 </r>
       <r>     9.3237     0.0000    32.0000 </r>
       <r>     9.4372     0.0000    32.0000 </r>
       <r>     9.5507     0.0000    32.0000 </r>
       <r>     9.6642     0.0000    32.0000 </r>
       <r>     9.7777     0.0000    32.0000 </r>
       <r>     9.8912     0.0000    32.0000 </r>
       <r>    10.0048     0.0000    32.0000 </r>
       <r>    10.1183     0.0000    32.0000 </r>
       <r>    10.2318     0.0000    32.0000 </r>
       <r>    10.3453     0.0000    32.0000 </r>
       <r>    10.4588     0.0000    32.0000 </r>
       <r>    10.5723     0.0000    32.0000 </r>
       <r>    10.6858     0.0000    32.0000 </r>
       <r>    10.7994     0.0000    32.0000 </r>
       <r>    10.9129     0.0000    32.0000 </r>
       <r>    11.0264     0.0000    32.0000 </r>
       <r>    11.1399     0.0000    32.0000 </r>
       <r>    11.2534     0.0000    32.0000 </r>
       <r>    11.3669     0.0000    32.0000 </r>
       <r>    11.4805     0.0334    32.0015 </r>
       <r>    11.5940     0.0970    32.0087 </r>
       <r>    11.7075     0.1595    32.0239 </r>
       <r>    11.8210     0.1793    32.0432 </r>
       <r>    11.9345     0.2106    32.0654 </r>
       <r>    12.0480     0.2630    32.0920 </r>
       <r>    12.1615     0.3104    32.1247 </r>
       <r>    12.2751     0.3539    32.1622 </r>
       <r>    12.3886     0.4539    32.2065 </r>
       <r>    12.5021     0.5331    32.2643 </r>
       <r>    12.6156     0.6271    32.3303 </r>
       <r>    12.7291     0.7560    32.4087 </r>
       <r>    12.8426     0.9710    32.5067 </r>
       <r>    12.9561     1.0290    32.6194 </r>
       <r>    13.0697     1.1328    32.7421 </r>
       <r>    13.1832     1.3680    32.8841 </r>
       <r>    13.2967     1.5726    33.0512 </r>
       <r>    13.4102     1.8647    33.2457 </r>
       <r>    13.5237     1.7850    33.4613 </r>
       <r>    13.6372     1.8058    33.6636 </r>
       <r>    13.7508     1.8801    33.8734 </r>
       <r>    13.8643     1.9560    34.0904 </r>
       <r>    13.9778     2.1298    34.3212 </r>
       <r>    14.0913     2.3570    34.5764 </r>
       <r>    14.2048     2.4551    34.8518 </r>
       <r>    14.3183     2.5614    35.1356 </r>
       <r>    14.4318     2.6653    35.4305 </r>
       <r>    14.5454     2.6772    35.7344 </r>
       <r>    14.6589     2.8335    36.0458 </r>
       <r>    14.7724     3.0505    36.3819 </r>
       <r>    14.8859     3.1700    36.7381 </r>
       <r>    14.9994     3.4139    37.1096 </r>
       <r>    15.1129     4.1437    37.5404 </r>
       <r>    15.2265     3.7795    38.0002 </r>
       <r>    15.3400     4.1877    38.4424 </r>
       <r>    15.4535     4.7203    38.9467 </r>
       <r>    15.5670     4.3773    39.4669 </r>
       <r>    15.6805     3.9021    39.9311 </r>
       <r>    15.7940     3.9056    40.3726 </r>
       <r>    15.9075     4.1620    40.8250 </r>
       <r>    16.0211     4.1901    41.3045 </r>
       <r>    16.1346     3.8974    41.7567 </r>
       <r>    16.2481     3.9501    42.1986 </r>
       <r>    16.3616     4.2502    42.6594 </r>
       <r>    16.4751     4.0330    43.1272 </r>
       <r>    16.5886     3.8339    43.5747 </r>
       <r>    16.7021     3.6027    43.9987 </r>
       <r>    16.8157     3.2286    44.3873 </r>
       <r>    16.9292     3.1591    44.7501 </r>
       <r>    17.0427     3.0965    45.1009 </r>
       <r>    17.1562     2.9541    45.4389 </r>
       <r>    17.2697     3.0058    45.7758 </r>
       <r>    17.3832     2.8278    46.1096 </r>
       <r>    17.4968     2.6076    46.4178 </r>
       <r>    17.6103     2.5024    46.7084 </r>
       <r>    17.7238     2.3849    46.9844 </r>
       <r>    17.8373     2.3540    47.2486 </r>
       <r>    17.9508     1.6753    47.4853 </r>
       <r>    18.0643     1.2067    47.6471 </r>
       <r>    18.1778     0.7716    47.7559 </r>
       <r>    18.2914     0.5448    47.8296 </r>
       <r>    18.4049     0.4096    47.8837 </r>
       <r>    18.5184     0.3179    47.9247 </r>
       <r>    18.6319     0.2351    47.9561 </r>
       <r>    18.7454     0.1477    47.9782 </r>
       <r>    18.8589     0.0730    47.9903 </r>
       <r>    18.9724     0.0440    47.9968 </r>
       <r>    19.0860     0.0074    47.9999 </r>
       <r>    19.1995     0.0000    48.0000 </r>
       <r>    19.3130     0.0000    48.0000 </r>
       <r>    19.4265     0.0000    48.0000 </r>
       <r>    19.5400     0.0000    48.0000 </r>
       <r>    19.6535     0.0000    48.0000 </r>
       <r>    19.7671     0.0000    48.0000 </r>
       <r>    19.8806     0.0000    48.0000 </r>
       <r>    19.9941     0.0000    48.0000 </r>
       <r>    20.1076     0.0000    48.0000 </r>
       <r>    20.2211     0.0000    48.0000 </r>
       <r>    20.3346     0.0000    48.0000 </r>
       <r>    20.4481     0.0000    48.0000 </r>
       <r>    20.5617     0.0000    48.0000 </r>
       <r>    20.6752     0.0000    48.0000 </r>
      </set>
     </set>
    </array>
   </total>
  </dos>
 </calculation>
 <structure name="finalpos" >
  <crystal>
   <varray name="basis" >
    <v>       3.76522343       0.00000000       0.00000000 </v>
    <v>       0.00000000       3.76522343       0.00000000 </v>
    <v>       0.00000000       0.00000000       3.58999936 </v>
   </varray>
   <i name="volume">     50.89508863 </i>
   <varray name="rec_basis" >
    <v>       0.26558849       0.00000000       0.00000000 </v>
    <v>       0.00000000       0.26558849       0.00000000 </v>
    <v>       0.00000000       0.00000000       0.27855158 </v>
   </varray>
  </crystal>
  <varray name="positions" >
   <v>       0.25000000       0.75000000       0.25000000 </v>
   <v>       0.00000000       0.00000000       0.50000000 </v>
   <v>       0.25000000       0.25000000       0.75000000 </v>
   <v>       0.00000000       0.50000000       0.00000000 </v>
   <v>       0.75000000       0.75000000       0.75000000 </v>
   <v>       0.50000000       0.00000000       0.00000000 </v>
   <v>       0.75000000       0.25000000       0.25000000 </v>
   <v>       0.50000000       0.50000000       0.50000000 </v>
  </varray>
 </structure>
</modeling>
