   8   8   0   0
  0.5933367E+01  0.3644483E-09  0.3644483E-09  0.3573710E-09  0.2000000E-16
  1.000000000000000E-004
  CAR 
 unknown system                          
     22.26595924    -13.38820330  301      9.43417470      1.00000000
    -13.388  0.0000E+00  0.0000E+00
    -13.269  0.0000E+00  0.0000E+00
    -13.151  0.0000E+00  0.0000E+00
    -13.032  0.0000E+00  0.0000E+00
    -12.913  0.0000E+00  0.0000E+00
    -12.794  0.0000E+00  0.0000E+00
    -12.675  0.0000E+00  0.0000E+00
    -12.556  0.0000E+00  0.0000E+00
    -12.437  0.0000E+00  0.0000E+00
    -12.319  0.0000E+00  0.0000E+00
    -12.200  0.0000E+00  0.0000E+00
    -12.081  0.0000E+00  0.0000E+00
    -11.962  0.0000E+00  0.0000E+00
    -11.843  0.0000E+00  0.0000E+00
    -11.724  0.3600E-01  0.5186E-03
    -11.605  0.1584E+00  0.1501E-01
    -11.487  0.2482E+00  0.3919E-01
    -11.368  0.2810E+00  0.7029E-01
    -11.249  0.3299E+00  0.1066E+00
    -11.130  0.3709E+00  0.1487E+00
    -11.011  0.4011E+00  0.1945E+00
    -10.892  0.4334E+00  0.2440E+00
    -10.774  0.4728E+00  0.2978E+00
    -10.655  0.4964E+00  0.3556E+00
    -10.536  0.5205E+00  0.4160E+00
    -10.417  0.5475E+00  0.4794E+00
    -10.298  0.5769E+00  0.5462E+00
    -10.179  0.6037E+00  0.6165E+00
    -10.060  0.6243E+00  0.6894E+00
     -9.942  0.6453E+00  0.7649E+00
     -9.823  0.6679E+00  0.8429E+00
     -9.704  0.6916E+00  0.9237E+00
     -9.585  0.7171E+00  0.1007E+01
     -9.466  0.7386E+00  0.1094E+01
     -9.347  0.7570E+00  0.1183E+01
     -9.229  0.7758E+00  0.1274E+01
     -9.110  0.7967E+00  0.1367E+01
     -8.991  0.8183E+00  0.1463E+01
     -8.872  0.8409E+00  0.1562E+01
     -8.753  0.8630E+00  0.1663E+01
     -8.634  0.8818E+00  0.1767E+01
     -8.515  0.9003E+00  0.1873E+01
     -8.397  0.9202E+00  0.1981E+01
     -8.278  0.9408E+00  0.2091E+01
     -8.159  0.9620E+00  0.2205E+01
     -8.040  0.1006E+01  0.2321E+01
     -7.921  0.1056E+01  0.2444E+01
     -7.802  0.1099E+01  0.2572E+01
     -7.684  0.1131E+01  0.2705E+01
     -7.565  0.1125E+01  0.2840E+01
     -7.446  0.1094E+01  0.2971E+01
     -7.327  0.1086E+01  0.3101E+01
     -7.208  0.1110E+01  0.3231E+01
     -7.089  0.1117E+01  0.3364E+01
     -6.970  0.1122E+01  0.3496E+01
     -6.852  0.1167E+01  0.3632E+01
     -6.733  0.1231E+01  0.3775E+01
     -6.614  0.1305E+01  0.3926E+01
     -6.495  0.1404E+01  0.4087E+01
     -6.376  0.1469E+01  0.4257E+01
     -6.257  0.1645E+01  0.4443E+01
     -6.139  0.1616E+01  0.4642E+01
     -6.020  0.1623E+01  0.4832E+01
     -5.901  0.1539E+01  0.5024E+01
     -5.782  0.1459E+01  0.5203E+01
     -5.663  0.1459E+01  0.5376E+01
     -5.544  0.1438E+01  0.5549E+01
     -5.425  0.1402E+01  0.5720E+01
     -5.307  0.1381E+01  0.5887E+01
     -5.188  0.1265E+01  0.6044E+01
     -5.069  0.1261E+01  0.6193E+01
     -4.950  0.1225E+01  0.6341E+01
     -4.831  0.1240E+01  0.6487E+01
     -4.712  0.1135E+01  0.6629E+01
     -4.594  0.1099E+01  0.6763E+01
     -4.475  0.1124E+01  0.6894E+01
     -4.356  0.1042E+01  0.7022E+01
     -4.237  0.1004E+01  0.7143E+01
     -4.118  0.1002E+01  0.7263E+01
     -3.999  0.9791E+00  0.7382E+01
     -3.880  0.9105E+00  0.7494E+01
     -3.762  0.8201E+00  0.7597E+01
     -3.643  0.8352E+00  0.7692E+01
     -3.524  0.8852E+00  0.7800E+01
     -3.405  0.1014E+01  0.7907E+01
     -3.286  0.8983E+00  0.8022E+01
     -3.167  0.8793E+00  0.8127E+01
     -3.048  0.9132E+00  0.8232E+01
     -2.930  0.9524E+00  0.8344E+01
     -2.811  0.9879E+00  0.8460E+01
     -2.692  0.1107E+01  0.8584E+01
     -2.573  0.1298E+01  0.8725E+01
     -2.454  0.1550E+01  0.8895E+01
     -2.335  0.1803E+01  0.9093E+01
     -2.217  0.2147E+01  0.9327E+01
     -2.098  0.2785E+01  0.9619E+01
     -1.979  0.3215E+01  0.9992E+01
     -1.860  0.2503E+01  0.1034E+02
     -1.741  0.2067E+01  0.1061E+02
     -1.622  0.1821E+01  0.1083E+02
     -1.503  0.1690E+01  0.1104E+02
     -1.385  0.1585E+01  0.1124E+02
     -1.266  0.1505E+01  0.1142E+02
     -1.147  0.1457E+01  0.1160E+02
     -1.028  0.1430E+01  0.1177E+02
     -0.909  0.1393E+01  0.1194E+02
     -0.790  0.1389E+01  0.1210E+02
     -0.672  0.1211E+01  0.1225E+02
     -0.553  0.1171E+01  0.1239E+02
     -0.434  0.1119E+01  0.1253E+02
     -0.315  0.1101E+01  0.1266E+02
     -0.196  0.1087E+01  0.1279E+02
     -0.077  0.1065E+01  0.1292E+02
      0.042  0.9824E+00  0.1304E+02
      0.160  0.1095E+01  0.1316E+02
      0.279  0.1291E+01  0.1330E+02
      0.398  0.1522E+01  0.1347E+02
      0.517  0.1696E+01  0.1366E+02
      0.636  0.1929E+01  0.1387E+02
      0.755  0.2343E+01  0.1413E+02
      0.873  0.2321E+01  0.1441E+02
      0.992  0.2275E+01  0.1469E+02
      1.111  0.2397E+01  0.1496E+02
      1.230  0.2197E+01  0.1524E+02
      1.349  0.1908E+01  0.1549E+02
      1.468  0.1459E+01  0.1568E+02
      1.587  0.1630E+01  0.1586E+02
      1.705  0.1916E+01  0.1607E+02
      1.824  0.2230E+01  0.1631E+02
      1.943  0.2337E+01  0.1658E+02
      2.062  0.2452E+01  0.1687E+02
      2.181  0.2443E+01  0.1716E+02
      2.300  0.2368E+01  0.1745E+02
      2.418  0.2385E+01  0.1773E+02
      2.537  0.2576E+01  0.1802E+02
      2.656  0.3029E+01  0.1835E+02
      2.775  0.3327E+01  0.1873E+02
      2.894  0.2773E+01  0.1910E+02
      3.013  0.2436E+01  0.1941E+02
      3.132  0.2544E+01  0.1972E+02
      3.250  0.2847E+01  0.2003E+02
      3.369  0.3060E+01  0.2039E+02
      3.488  0.3566E+01  0.2078E+02
      3.607  0.4056E+01  0.2124E+02
      3.726  0.3572E+01  0.2170E+02
      3.845  0.3110E+01  0.2210E+02
      3.963  0.2750E+01  0.2244E+02
      4.082  0.2690E+01  0.2276E+02
      4.201  0.2893E+01  0.2309E+02
      4.320  0.2957E+01  0.2346E+02
      4.439  0.3061E+01  0.2380E+02
      4.558  0.3095E+01  0.2417E+02
      4.677  0.3071E+01  0.2454E+02
      4.795  0.3082E+01  0.2490E+02
      4.914  0.3178E+01  0.2527E+02
      5.033  0.3122E+01  0.2565E+02
      5.152  0.2740E+01  0.2600E+02
      5.271  0.2535E+01  0.2631E+02
      5.390  0.2495E+01  0.2660E+02
      5.509  0.2611E+01  0.2690E+02
      5.627  0.2742E+01  0.2722E+02
      5.746  0.2864E+01  0.2755E+02
      5.865  0.2859E+01  0.2790E+02
      5.984  0.2705E+01  0.2823E+02
      6.103  0.2690E+01  0.2855E+02
      6.222  0.2578E+01  0.2886E+02
      6.340  0.2489E+01  0.2917E+02
      6.459  0.2440E+01  0.2946E+02
      6.578  0.2210E+01  0.2976E+02
      6.697  0.1786E+01  0.2999E+02
      6.816  0.1627E+01  0.3020E+02
      6.935  0.1501E+01  0.3038E+02
      7.054  0.1390E+01  0.3055E+02
      7.172  0.1297E+01  0.3071E+02
      7.291  0.1212E+01  0.3086E+02
      7.410  0.1099E+01  0.3100E+02
      7.529  0.1009E+01  0.3112E+02
      7.648  0.9365E+00  0.3124E+02
      7.767  0.8734E+00  0.3135E+02
      7.885  0.8049E+00  0.3145E+02
      8.004  0.7420E+00  0.3154E+02
      8.123  0.6510E+00  0.3162E+02
      8.242  0.6051E+00  0.3170E+02
      8.361  0.5295E+00  0.3176E+02
      8.480  0.4768E+00  0.3182E+02
      8.599  0.3813E+00  0.3188E+02
      8.717  0.3421E+00  0.3192E+02
      8.836  0.2793E+00  0.3196E+02
      8.955  0.1311E+00  0.3198E+02
      9.074  0.8987E-01  0.3199E+02
      9.193  0.1862E-01  0.3200E+02
      9.312  0.4471E-03  0.3200E+02
      9.430  0.0000E+00  0.3200E+02
      9.549  0.0000E+00  0.3200E+02
      9.668  0.0000E+00  0.3200E+02
      9.787  0.0000E+00  0.3200E+02
      9.906  0.0000E+00  0.3200E+02
     10.025  0.0000E+00  0.3200E+02
     10.144  0.0000E+00  0.3200E+02
     10.262  0.0000E+00  0.3200E+02
     10.381  0.0000E+00  0.3200E+02
     10.500  0.0000E+00  0.3200E+02
     10.619  0.0000E+00  0.3200E+02
     10.738  0.0000E+00  0.3200E+02
     10.857  0.0000E+00  0.3200E+02
     10.975  0.0000E+00  0.3200E+02
     11.094  0.0000E+00  0.3200E+02
     11.213  0.0000E+00  0.3200E+02
     11.332  0.0000E+00  0.3200E+02
     11.451  0.0000E+00  0.3200E+02
     11.570  0.0000E+00  0.3200E+02
     11.689  0.0000E+00  0.3200E+02
     11.807  0.0000E+00  0.3200E+02
     11.926  0.0000E+00  0.3200E+02
     12.045  0.0000E+00  0.3200E+02
     12.164  0.0000E+00  0.3200E+02
     12.283  0.0000E+00  0.3200E+02
     12.402  0.0000E+00  0.3200E+02
     12.520  0.0000E+00  0.3200E+02
     12.639  0.0000E+00  0.3200E+02
     12.758  0.0000E+00  0.3200E+02
     12.877  0.2100E-02  0.3200E+02
     12.996  0.4233E-01  0.3200E+02
     13.115  0.1081E+00  0.3201E+02
     13.234  0.1656E+00  0.3203E+02
     13.352  0.2061E+00  0.3205E+02
     13.471  0.3867E+00  0.3208E+02
     13.590  0.5793E+00  0.3214E+02
     13.709  0.6416E+00  0.3221E+02
     13.828  0.7561E+00  0.3229E+02
     13.947  0.8681E+00  0.3240E+02
     14.066  0.9675E+00  0.3251E+02
     14.184  0.1120E+01  0.3263E+02
     14.303  0.1314E+01  0.3277E+02
     14.422  0.1623E+01  0.3297E+02
     14.541  0.1605E+01  0.3316E+02
     14.660  0.1627E+01  0.3335E+02
     14.779  0.1696E+01  0.3355E+02
     14.897  0.1821E+01  0.3376E+02
     15.016  0.1890E+01  0.3398E+02
     15.135  0.2028E+01  0.3421E+02
     15.254  0.2252E+01  0.3447E+02
     15.373  0.2222E+01  0.3473E+02
     15.492  0.2221E+01  0.3499E+02
     15.611  0.2282E+01  0.3526E+02
     15.729  0.2294E+01  0.3553E+02
     15.848  0.2395E+01  0.3581E+02
     15.967  0.2555E+01  0.3610E+02
     16.086  0.2680E+01  0.3641E+02
     16.205  0.2826E+01  0.3674E+02
     16.324  0.2909E+01  0.3708E+02
     16.442  0.3104E+01  0.3744E+02
     16.561  0.3260E+01  0.3782E+02
     16.680  0.3417E+01  0.3822E+02
     16.799  0.3908E+01  0.3864E+02
     16.918  0.4502E+01  0.3915E+02
     17.037  0.4889E+01  0.3970E+02
     17.156  0.5086E+01  0.4031E+02
     17.274  0.3717E+01  0.4083E+02
     17.393  0.3552E+01  0.4126E+02
     17.512  0.3505E+01  0.4168E+02
     17.631  0.4018E+01  0.4212E+02
     17.750  0.4021E+01  0.4261E+02
     17.869  0.3877E+01  0.4308E+02
     17.987  0.3615E+01  0.4352E+02
     18.106  0.3264E+01  0.4393E+02
     18.225  0.2982E+01  0.4430E+02
     18.344  0.2796E+01  0.4464E+02
     18.463  0.2669E+01  0.4497E+02
     18.582  0.2696E+01  0.4528E+02
     18.701  0.2783E+01  0.4561E+02
     18.819  0.2875E+01  0.4595E+02
     18.938  0.2830E+01  0.4629E+02
     19.057  0.2696E+01  0.4662E+02
     19.176  0.2586E+01  0.4693E+02
     19.295  0.2494E+01  0.4724E+02
     19.414  0.1842E+01  0.4749E+02
     19.532  0.1241E+01  0.4767E+02
     19.651  0.8472E+00  0.4779E+02
     19.770  0.5164E+00  0.4787E+02
     19.889  0.3385E+00  0.4792E+02
     20.008  0.2170E+00  0.4796E+02
     20.127  0.1292E+00  0.4798E+02
     20.246  0.8057E-01  0.4799E+02
     20.364  0.4841E-01  0.4800E+02
     20.483  0.1350E-01  0.4800E+02
     20.602  0.9603E-03  0.4800E+02
     20.721  0.0000E+00  0.4800E+02
     20.840  0.0000E+00  0.4800E+02
     20.959  0.0000E+00  0.4800E+02
     21.077  0.0000E+00  0.4800E+02
     21.196  0.0000E+00  0.4800E+02
     21.315  0.0000E+00  0.4800E+02
     21.434  0.0000E+00  0.4800E+02
     21.553  0.0000E+00  0.4800E+02
     21.672  0.0000E+00  0.4800E+02
     21.791  0.0000E+00  0.4800E+02
     21.909  0.0000E+00  0.4800E+02
     22.028  0.0000E+00  0.4800E+02
     22.147  0.0000E+00  0.4800E+02
     22.266  0.0000E+00  0.4800E+02
