Automatically generated mesh
     196
Reciprocal lattice
    0.00000000000000    0.00000000000000    0.00000000000000             1
    0.08333333333333    0.00000000000000    0.00000000000000             4
    0.16666666666667    0.00000000000000    0.00000000000000             4
    0.25000000000000    0.00000000000000    0.00000000000000             4
    0.33333333333333    0.00000000000000    0.00000000000000             4
    0.41666666666667    0.00000000000000    0.00000000000000             4
    0.50000000000000    0.00000000000000    0.00000000000000             2
    0.08333333333333    0.08333333333333    0.00000000000000             4
    0.16666666666667    0.08333333333333    0.00000000000000             8
    0.25000000000000    0.08333333333333    0.00000000000000             8
    0.33333333333333    0.08333333333333    0.00000000000000             8
    0.41666666666667    0.08333333333333    0.00000000000000             8
    0.50000000000000    0.08333333333333    0.00000000000000             4
    0.16666666666667    0.16666666666667    0.00000000000000             4
    0.25000000000000    0.16666666666667    0.00000000000000             8
    0.33333333333333    0.16666666666667    0.00000000000000             8
    0.41666666666667    0.16666666666667    0.00000000000000             8
    0.50000000000000    0.16666666666667    0.00000000000000             4
    0.25000000000000    0.25000000000000    0.00000000000000             4
    0.33333333333333    0.25000000000000    0.00000000000000             8
    0.41666666666667    0.25000000000000    0.00000000000000             8
    0.50000000000000    0.25000000000000    0.00000000000000             4
    0.33333333333333    0.33333333333333    0.00000000000000             4
    0.41666666666667    0.33333333333333    0.00000000000000             8
    0.50000000000000    0.33333333333333    0.00000000000000             4
    0.41666666666667    0.41666666666667    0.00000000000000             4
    0.50000000000000    0.41666666666667    0.00000000000000             4
    0.50000000000000    0.50000000000000    0.00000000000000             1
    0.00000000000000    0.00000000000000    0.08333333333333             2
    0.08333333333333    0.00000000000000    0.08333333333333             8
    0.16666666666667    0.00000000000000    0.08333333333333             8
    0.25000000000000    0.00000000000000    0.08333333333333             8
    0.33333333333333    0.00000000000000    0.08333333333333             8
    0.41666666666667    0.00000000000000    0.08333333333333             8
    0.50000000000000    0.00000000000000    0.08333333333333             4
    0.08333333333333    0.08333333333333    0.08333333333333             8
    0.16666666666667    0.08333333333333    0.08333333333333            16
    0.25000000000000    0.08333333333333    0.08333333333333            16
    0.33333333333333    0.08333333333333    0.08333333333333            16
    0.41666666666667    0.08333333333333    0.08333333333333            16
    0.50000000000000    0.08333333333333    0.08333333333333             8
    0.16666666666667    0.16666666666667    0.08333333333333             8
    0.25000000000000    0.16666666666667    0.08333333333333            16
    0.33333333333333    0.16666666666667    0.08333333333333            16
    0.41666666666667    0.16666666666667    0.08333333333333            16
    0.50000000000000    0.16666666666667    0.08333333333333             8
    0.25000000000000    0.25000000000000    0.08333333333333             8
    0.33333333333333    0.25000000000000    0.08333333333333            16
    0.41666666666667    0.25000000000000    0.08333333333333            16
    0.50000000000000    0.25000000000000    0.08333333333333             8
    0.33333333333333    0.33333333333333    0.08333333333333             8
    0.41666666666667    0.33333333333333    0.08333333333333            16
    0.50000000000000    0.33333333333333    0.08333333333333             8
    0.41666666666667    0.41666666666667    0.08333333333333             8
    0.50000000000000    0.41666666666667    0.08333333333333             8
    0.50000000000000    0.50000000000000    0.08333333333333             2
    0.00000000000000    0.00000000000000    0.16666666666667             2
    0.08333333333333    0.00000000000000    0.16666666666667             8
    0.16666666666667    0.00000000000000    0.16666666666667             8
    0.25000000000000    0.00000000000000    0.16666666666667             8
    0.33333333333333    0.00000000000000    0.16666666666667             8
    0.41666666666667    0.00000000000000    0.16666666666667             8
    0.50000000000000    0.00000000000000    0.16666666666667             4
    0.08333333333333    0.08333333333333    0.16666666666667             8
    0.16666666666667    0.08333333333333    0.16666666666667            16
    0.25000000000000    0.08333333333333    0.16666666666667            16
    0.33333333333333    0.08333333333333    0.16666666666667            16
    0.41666666666667    0.08333333333333    0.16666666666667            16
    0.50000000000000    0.08333333333333    0.16666666666667             8
    0.16666666666667    0.16666666666667    0.16666666666667             8
    0.25000000000000    0.16666666666667    0.16666666666667            16
    0.33333333333333    0.16666666666667    0.16666666666667            16
    0.41666666666667    0.16666666666667    0.16666666666667            16
    0.50000000000000    0.16666666666667    0.16666666666667             8
    0.25000000000000    0.25000000000000    0.16666666666667             8
    0.33333333333333    0.25000000000000    0.16666666666667            16
    0.41666666666667    0.25000000000000    0.16666666666667            16
    0.50000000000000    0.25000000000000    0.16666666666667             8
    0.33333333333333    0.33333333333333    0.16666666666667             8
    0.41666666666667    0.33333333333333    0.16666666666667            16
    0.50000000000000    0.33333333333333    0.16666666666667             8
    0.41666666666667    0.41666666666667    0.16666666666667             8
    0.50000000000000    0.41666666666667    0.16666666666667             8
    0.50000000000000    0.50000000000000    0.16666666666667             2
    0.00000000000000    0.00000000000000    0.25000000000000             2
    0.08333333333333    0.00000000000000    0.25000000000000             8
    0.16666666666667    0.00000000000000    0.25000000000000             8
    0.25000000000000    0.00000000000000    0.25000000000000             8
    0.33333333333333    0.00000000000000    0.25000000000000             8
    0.41666666666667    0.00000000000000    0.25000000000000             8
    0.50000000000000    0.00000000000000    0.25000000000000             4
    0.08333333333333    0.08333333333333    0.25000000000000             8
    0.16666666666667    0.08333333333333    0.25000000000000            16
    0.25000000000000    0.08333333333333    0.25000000000000            16
    0.33333333333333    0.08333333333333    0.25000000000000            16
    0.41666666666667    0.08333333333333    0.25000000000000            16
    0.50000000000000    0.08333333333333    0.25000000000000             8
    0.16666666666667    0.16666666666667    0.25000000000000             8
    0.25000000000000    0.16666666666667    0.25000000000000            16
    0.33333333333333    0.16666666666667    0.25000000000000            16
    0.41666666666667    0.16666666666667    0.25000000000000            16
    0.50000000000000    0.16666666666667    0.25000000000000             8
    0.25000000000000    0.25000000000000    0.25000000000000             8
    0.33333333333333    0.25000000000000    0.25000000000000            16
    0.41666666666667    0.25000000000000    0.25000000000000            16
    0.50000000000000    0.25000000000000    0.25000000000000             8
    0.33333333333333    0.33333333333333    0.25000000000000             8
    0.41666666666667    0.33333333333333    0.25000000000000            16
    0.50000000000000    0.33333333333333    0.25000000000000             8
    0.41666666666667    0.41666666666667    0.25000000000000             8
    0.50000000000000    0.41666666666667    0.25000000000000             8
    0.50000000000000    0.50000000000000    0.25000000000000             2
    0.00000000000000    0.00000000000000    0.33333333333333             2
    0.08333333333333    0.00000000000000    0.33333333333333             8
    0.16666666666667    0.00000000000000    0.33333333333333             8
    0.25000000000000    0.00000000000000    0.33333333333333             8
    0.33333333333333    0.00000000000000    0.33333333333333             8
    0.41666666666667    0.00000000000000    0.33333333333333             8
    0.50000000000000    0.00000000000000    0.33333333333333             4
    0.08333333333333    0.08333333333333    0.33333333333333             8
    0.16666666666667    0.08333333333333    0.33333333333333            16
    0.25000000000000    0.08333333333333    0.33333333333333            16
    0.33333333333333    0.08333333333333    0.33333333333333            16
    0.41666666666667    0.08333333333333    0.33333333333333            16
    0.50000000000000    0.08333333333333    0.33333333333333             8
    0.16666666666667    0.16666666666667    0.33333333333333             8
    0.25000000000000    0.16666666666667    0.33333333333333            16
    0.33333333333333    0.16666666666667    0.33333333333333            16
    0.41666666666667    0.16666666666667    0.33333333333333            16
    0.50000000000000    0.16666666666667    0.33333333333333             8
    0.25000000000000    0.25000000000000    0.33333333333333             8
    0.33333333333333    0.25000000000000    0.33333333333333            16
    0.41666666666667    0.25000000000000    0.33333333333333            16
    0.50000000000000    0.25000000000000    0.33333333333333             8
    0.33333333333333    0.33333333333333    0.33333333333333             8
    0.41666666666667    0.33333333333333    0.33333333333333            16
    0.50000000000000    0.33333333333333    0.33333333333333             8
    0.41666666666667    0.41666666666667    0.33333333333333             8
    0.50000000000000    0.41666666666667    0.33333333333333             8
    0.50000000000000    0.50000000000000    0.33333333333333             2
    0.00000000000000    0.00000000000000    0.41666666666667             2
    0.08333333333333    0.00000000000000    0.41666666666667             8
    0.16666666666667    0.00000000000000    0.41666666666667             8
    0.25000000000000    0.00000000000000    0.41666666666667             8
    0.33333333333333    0.00000000000000    0.41666666666667             8
    0.41666666666667    0.00000000000000    0.41666666666667             8
    0.50000000000000    0.00000000000000    0.41666666666667             4
    0.08333333333333    0.08333333333333    0.41666666666667             8
    0.16666666666667    0.08333333333333    0.41666666666667            16
    0.25000000000000    0.08333333333333    0.41666666666667            16
    0.33333333333333    0.08333333333333    0.41666666666667            16
    0.41666666666667    0.08333333333333    0.41666666666667            16
    0.50000000000000    0.08333333333333    0.41666666666667             8
    0.16666666666667    0.16666666666667    0.41666666666667             8
    0.25000000000000    0.16666666666667    0.41666666666667            16
    0.33333333333333    0.16666666666667    0.41666666666667            16
    0.41666666666667    0.16666666666667    0.41666666666667            16
    0.50000000000000    0.16666666666667    0.41666666666667             8
    0.25000000000000    0.25000000000000    0.41666666666667             8
    0.33333333333333    0.25000000000000    0.41666666666667            16
    0.41666666666667    0.25000000000000    0.41666666666667            16
    0.50000000000000    0.25000000000000    0.41666666666667             8
    0.33333333333333    0.33333333333333    0.41666666666667             8
    0.41666666666667    0.33333333333333    0.41666666666667            16
    0.50000000000000    0.33333333333333    0.41666666666667             8
    0.41666666666667    0.41666666666667    0.41666666666667             8
    0.50000000000000    0.41666666666667    0.41666666666667             8
    0.50000000000000    0.50000000000000    0.41666666666667             2
    0.00000000000000    0.00000000000000    0.50000000000000             1
    0.08333333333333    0.00000000000000    0.50000000000000             4
    0.16666666666667    0.00000000000000    0.50000000000000             4
    0.25000000000000    0.00000000000000    0.50000000000000             4
    0.33333333333333    0.00000000000000    0.50000000000000             4
    0.41666666666667    0.00000000000000    0.50000000000000             4
    0.50000000000000    0.00000000000000    0.50000000000000             2
    0.08333333333333    0.08333333333333    0.50000000000000             4
    0.16666666666667    0.08333333333333    0.50000000000000             8
    0.25000000000000    0.08333333333333    0.50000000000000             8
    0.33333333333333    0.08333333333333    0.50000000000000             8
    0.41666666666667    0.08333333333333    0.50000000000000             8
    0.50000000000000    0.08333333333333    0.50000000000000             4
    0.16666666666667    0.16666666666667    0.50000000000000             4
    0.25000000000000    0.16666666666667    0.50000000000000             8
    0.33333333333333    0.16666666666667    0.50000000000000             8
    0.41666666666667    0.16666666666667    0.50000000000000             8
    0.50000000000000    0.16666666666667    0.50000000000000             4
    0.25000000000000    0.25000000000000    0.50000000000000             4
    0.33333333333333    0.25000000000000    0.50000000000000             8
    0.41666666666667    0.25000000000000    0.50000000000000             8
    0.50000000000000    0.25000000000000    0.50000000000000             4
    0.33333333333333    0.33333333333333    0.50000000000000             4
    0.41666666666667    0.33333333333333    0.50000000000000             8
    0.50000000000000    0.33333333333333    0.50000000000000             4
    0.41666666666667    0.41666666666667    0.50000000000000             4
    0.50000000000000    0.41666666666667    0.50000000000000             4
    0.50000000000000    0.50000000000000    0.50000000000000             1
Tetrahedra
      2592    0.00009645061728
         4         1         2         8        29
         4         2         8        29        30
         4         8        29        30        36
         4         2         3         9        30
         4         2         8         9        30
         4         8         9        30        36
         4         3         9        30        31
         4         9        30        31        37
         4         9        30        36        37
         4         3         4        10        31
         4         3         9        10        31
         4         9        10        31        37
         4         4        10        31        32
         4        10        31        32        38
         4        10        31        37        38
         4         4         5        11        32
         4         4        10        11        32
         4        10        11        32        38
         4         5        11        32        33
         4        11        32        33        39
         4        11        32        38        39
         4         5         6        12        33
         4         5        11        12        33
         4        11        12        33        39
         4         6        12        33        34
         4        12        33        34        40
         4        12        33        39        40
         4         6         7        13        34
         4         6        12        13        34
         4        12        13        34        40
         4         7        13        34        35
         4        13        34        35        41
         4        13        34        40        41
         4         6         7        12        35
         4         7        12        13        35
         4        12        13        35        41
         4         6        12        34        35
         4        12        34        35        40
         4        12        35        40        41
         4         5         6        11        34
         4         6        11        12        34
         4        11        12        34        40
         4         5        11        33        34
         4        11        33        34        39
         4        11        34        39        40
         4         4         5        10        33
         4         5        10        11        33
         4        10        11        33        39
         4         4        10        32        33
         4        10        32        33        38
         4        10        33        38        39
         4         3         4         9        32
         4         4         9        10        32
         4         9        10        32        38
         4         3         9        31        32
         4         9        31        32        37
         4         9        32        37        38
         4         2         3         8        31
         4         3         8         9        31
         4         8         9        31        37
         4         2         8        30        31
         4         8        30        31        36
         4         8        31        36        37
         4         1         2         2        30
         4         2         2         8        30
         4         2         8        30        36
         4         1         2        29        30
         4         2        29        30        30
         4         2        30        30        36
         4         8         9        14        36
         4         9        14        36        37
         4        14        36        37        42
         4         9        10        15        37
         4         9        14        15        37
         4        14        15        37        42
         4        10        15        37        38
         4        15        37        38        43
         4        15        37        42        43
         4        10        11        16        38
         4        10        15        16        38
         4        15        16        38        43
         4        11        16        38        39
         4        16        38        39        44
         4        16        38        43        44
         4        11        12        17        39
         4        11        16        17        39
         4        16        17        39        44
         4        12        17        39        40
         4        17        39        40        45
         4        17        39        44        45
         4        12        13        18        40
         4        12        17        18        40
         4        17        18        40        45
         4        13        18        40        41
         4        18        40        41        46
         4        18        40        45        46
         4        12        13        17        41
         4        13        17        18        41
         4        17        18        41        46
         4        12        17        40        41
         4        17        40        41        45
         4        17        41        45        46
         4        11        12        16        40
         4        12        16        17        40
         4        16        17        40        45
         4        11        16        39        40
         4        16        39        40        44
         4        16        40        44        45
         4        10        11        15        39
         4        11        15        16        39
         4        15        16        39        44
         4        10        15        38        39
         4        15        38        39        43
         4        15        39        43        44
         4         9        10        14        38
         4        10        14        15        38
         4        14        15        38        43
         4         9        14        37        38
         4        14        37        38        42
         4        14        38        42        43
         4         8         9         9        37
         4         9         9        14        37
         4         9        14        37        42
         4         8         9        36        37
         4         9        36        37        37
         4         9        37        37        42
         4         2         3         8        36
         4         3         8         9        36
         4         3         9        36        37
         4         2         3        30        36
         4         3        30        31        36
         4         3        31        36        37
         4        14        15        19        42
         4        15        19        42        43
         4        19        42        43        47
         4        15        16        20        43
         4        15        19        20        43
         4        19        20        43        47
         4        16        20        43        44
         4        20        43        44        48
         4        20        43        47        48
         4        16        17        21        44
         4        16        20        21        44
         4        20        21        44        48
         4        17        21        44        45
         4        21        44        45        49
         4        21        44        48        49
         4        17        18        22        45
         4        17        21        22        45
         4        21        22        45        49
         4        18        22        45        46
         4        22        45        46        50
         4        22        45        49        50
         4        17        18        21        46
         4        18        21        22        46
         4        21        22        46        50
         4        17        21        45        46
         4        21        45        46        49
         4        21        46        49        50
         4        16        17        20        45
         4        17        20        21        45
         4        20        21        45        49
         4        16        20        44        45
         4        20        44        45        48
         4        20        45        48        49
         4        15        16        19        44
         4        16        19        20        44
         4        19        20        44        48
         4        15        19        43        44
         4        19        43        44        47
         4        19        44        47        48
         4        14        15        15        43
         4        15        15        19        43
         4        15        19        43        47
         4        14        15        42        43
         4        15        42        43        43
         4        15        43        43        47
         4         9        10        14        42
         4        10        14        15        42
         4        10        15        42        43
         4         9        10        37        42
         4        10        37        38        42
         4        10        38        42        43
         4         3         4         9        37
         4         4         9        10        37
         4         4        10        37        38
         4         3         4        31        37
         4         4        31        32        37
         4         4        32        37        38
         4        19        20        23        47
         4        20        23        47        48
         4        23        47        48        51
         4        20        21        24        48
         4        20        23        24        48
         4        23        24        48        51
         4        21        24        48        49
         4        24        48        49        52
         4        24        48        51        52
         4        21        22        25        49
         4        21        24        25        49
         4        24        25        49        52
         4        22        25        49        50
         4        25        49        50        53
         4        25        49        52        53
         4        21        22        24        50
         4        22        24        25        50
         4        24        25        50        53
         4        21        24        49        50
         4        24        49        50        52
         4        24        50        52        53
         4        20        21        23        49
         4        21        23        24        49
         4        23        24        49        52
         4        20        23        48        49
         4        23        48        49        51
         4        23        49        51        52
         4        19        20        20        48
         4        20        20        23        48
         4        20        23        48        51
         4        19        20        47        48
         4        20        47        48        48
         4        20        48        48        51
         4        15        16        19        47
         4        16        19        20        47
         4        16        20        47        48
         4        15        16        43        47
         4        16        43        44        47
         4        16        44        47        48
         4        10        11        15        43
         4        11        15        16        43
         4        11        16        43        44
         4        10        11        38        43
         4        11        38        39        43
         4        11        39        43        44
         4         4         5        10        38
         4         5        10        11        38
         4         5        11        38        39
         4         4         5        32        38
         4         5        32        33        38
         4         5        33        38        39
         4        23        24        26        51
         4        24        26        51        52
         4        26        51        52        54
         4        24        25        27        52
         4        24        26        27        52
         4        26        27        52        54
         4        25        27        52        53
         4        27        52        53        55
         4        27        52        54        55
         4        24        25        26        53
         4        25        26        27        53
         4        26        27        53        55
         4        24        26        52        53
         4        26        52        53        54
         4        26        53        54        55
         4        23        24        24        52
         4        24        24        26        52
         4        24        26        52        54
         4        23        24        51        52
         4        24        51        52        52
         4        24        52        52        54
         4        20        21        23        51
         4        21        23        24        51
         4        21        24        51        52
         4        20        21        48        51
         4        21        48        49        51
         4        21        49        51        52
         4        16        17        20        48
         4        17        20        21        48
         4        17        21        48        49
         4        16        17        44        48
         4        17        44        45        48
         4        17        45        48        49
         4        11        12        16        44
         4        12        16        17        44
         4        12        17        44        45
         4        11        12        39        44
         4        12        39        40        44
         4        12        40        44        45
         4         5         6        11        39
         4         6        11        12        39
         4         6        12        39        40
         4         5         6        33        39
         4         6        33        34        39
         4         6        34        39        40
         4        26        27        28        54
         4        27        28        54        55
         4        28        54        55        56
         4        26        27        27        55
         4        27        27        28        55
         4        27        28        55        56
         4        26        27        54        55
         4        27        54        55        55
         4        27        55        55        56
         4        24        25        26        54
         4        25        26        27        54
         4        25        27        54        55
         4        24        25        52        54