       N       E                     dE             d eps       ncg     rms          rms(c)
DAV:   1     0.565919107695E+02    0.56592E+02   -0.14257E+04  9408   0.105E+03
DAV:   2    -0.704720577393E+02   -0.12706E+03   -0.12020E+03 12976   0.219E+02
DAV:   3    -0.747678316183E+02   -0.42958E+01   -0.42728E+01 12184   0.375E+01
DAV:   4    -0.748143180207E+02   -0.46486E-01   -0.46440E-01 12136   0.423E+00
DAV:   5    -0.748152989647E+02   -0.98094E-03   -0.98039E-03 12080   0.562E-01    0.899E+00
DAV:   6    -0.731693748242E+02    0.16459E+01   -0.11000E+00 11104   0.588E+00    0.497E+00
DAV:   7    -0.726126276226E+02    0.55675E+00   -0.12572E+00 11032   0.647E+00    0.682E-01
DAV:   8    -0.726195549106E+02   -0.69273E-02   -0.25418E-02 12080   0.917E-01    0.778E-02
DAV:   9    -0.726197757920E+02   -0.22088E-03   -0.43246E-04 11440   0.138E-01    0.277E-02
DAV:  10    -0.726198325222E+02   -0.56730E-04   -0.51433E-05 11992   0.536E-02    0.264E-03
DAV:  11    -0.726198330731E+02   -0.55085E-06   -0.11107E-06  8768   0.727E-03
   1 F= -.72619833E+02 E0= -.72619833E+02  d E =0.000000E+00
