 vasp.5.4.4.18Apr17-6-g9f103f2a35 (build Mar 12 2022 03:36:41) complex          
  
 executed on IFC19.0.3.199_CrayMP date 2022.11.30  12:26:51
 running on   16 total cores
 distrk:  each k-point on   16 cores,    1 groups
 distr:  one band on NCORES_PER_BAND=   4 cores,    4 groups


--------------------------------------------------------------------------------------------------------


 INCAR:
 POTCAR:   PAW_PBE C 08Apr2002                    
 POTCAR:   PAW_PBE C 08Apr2002                    
   VRHFIN =C: s2p2                                                              
   LEXCH  = PE                                                                  
   EATOM  =   147.1560 eV,   10.8157 Ry                                         
                                                                                
   TITEL  = PAW_PBE C 08Apr2002                                                 
   LULTRA =        F    use ultrasoft PP ?                                      
   IUNSCR =        0    unscreen: 0-lin 1-nonlin 2-no                           
   RPACOR =     .000    partial core radius                                     
   POMASS =   12.011; ZVAL   =    4.000    mass and valenz                      
   RCORE  =    1.500    outmost cutoff radius                                   
   RWIGS  =    1.630; RWIGS  =     .863    wigner-seitz radius (au A)           
   ENMAX  =  400.000; ENMIN  =  300.000 eV                                      
   ICORE  =        2    local potential                                         
   LCOR   =        T    correct aug charges                                     
   LPAW   =        T    paw PP                                                  
   EAUG   =  644.873                                                            
   DEXC   =     .000                                                            
   RMAX   =    2.266    core radius for proj-oper                               
   RAUG   =    1.300    factor for augmentation sphere                          
   RDEP   =    1.501    radius for radial grids                                 
   RDEPT  =    1.300    core radius for aug-charge                              
   QCUT   =   -5.516; QGAM   =   11.032    optimization parameters              
                                                                                
   Description                                                                  
     l     E      TYP  RCUT    TYP  RCUT                                        
     0   .000     23  1.200                                                     
     0   .000     23  1.200                                                     
     1   .000     23  1.500                                                     
     1  2.500     23  1.500                                                     
     2   .000      7  1.500                                                     
  local pseudopotential read in
  atomic valenz-charges read in
  non local Contribution for L=           0  read in
    real space projection operators read in
  non local Contribution for L=           0  read in
    real space projection operators read in
  non local Contribution for L=           1  read in
    real space projection operators read in
  non local Contribution for L=           1  read in
    real space projection operators read in
    PAW grid and wavefunctions read in
 
   number of l-projection  operators is LMAX  =           4
   number of lm-projection operators is LMMAX =           8
 
 PAW_PBE C 08Apr2002                    :
 energy of atom  1       EATOM= -147.1560
 kinetic energy error for atom=    0.0288 (will be added to EATOM!!)
 
 
 POSCAR: C8                                      
  positions in direct lattice
  No initial velocities read in
 exchange correlation table for  LEXCH =        8
   RHO(1)=    0.500       N(1)  =     2000
   RHO(2)=  100.500       N(2)  =     4000
 


--------------------------------------------------------------------------------------------------------


 ion  position               nearest neighbor table
   1  0.250  0.750  0.250-   2 1.57   4 1.57   6 1.57   8 1.57
   2  0.000  0.000  0.500-   1 1.57   3 1.57   5 1.57   7 1.57
   3  0.250  0.250  0.750-   2 1.57   4 1.57   6 1.57   8 1.57
   4  0.000  0.500  0.000-   1 1.57   3 1.57   5 1.57   7 1.57
   5  0.750  0.750  0.750-   2 1.57   4 1.57   6 1.57   8 1.57
   6  0.500  0.000  0.000-   1 1.57   3 1.57   5 1.57   7 1.57
   7  0.750  0.250  0.250-   2 1.57   4 1.57   6 1.57   8 1.57
   8  0.500  0.500  0.500-   1 1.57   3 1.57   5 1.57   7 1.57
 
  LATTYP: Found a simple tetragonal cell.
 ALAT       =     3.6444830000
 C/A-ratio  =     0.9805807847
  
  Lattice vectors:
  
 A1 = (   3.6444830000,   0.0000000000,   0.0000000000)
 A2 = (   0.0000000000,   3.6444830000,   0.0000000000)
 A3 = (   0.0000000000,   0.0000000000,   3.5737100000)


Analysis of symmetry for initial positions (statically):
=====================================================================
 Subroutine PRICEL returns following result:
 
  LATTYP: Found a body centered tetragonal cell.
 ALAT       =     2.5770386432
 C/A-ratio  =     1.3867506447
  
  Lattice vectors:
  
 A1 = (   1.8222415000,   0.0000000000,   1.7868550000)
 A2 = (  -1.8222415000,   0.0000000000,   1.7868550000)
 A3 = (   0.0000000000,  -1.8222415000,  -1.7868550000)
 
   4 primitive cells build up your supercell.
 

 Routine SETGRP: Setting up the symmetry group for a 
 simple tetragonal supercell.


 Subroutine GETGRP returns: Found 16 space group operations
 (whereof  8 operations were pure point group operations)
 out of a pool of 16 trial point group operations.


The static configuration has the point symmetry D_2d.
 The point group associated with its full space group is D_4h.


Analysis of symmetry for dynamics (positions and initial velocities):
=====================================================================
 Subroutine PRICEL returns following result:
 
  LATTYP: Found a body centered tetragonal cell.
 ALAT       =     2.5770386432
 C/A-ratio  =     1.3867506447
  
  Lattice vectors:
  
 A1 = (   1.8222415000,   0.0000000000,   1.7868550000)
 A2 = (  -1.8222415000,   0.0000000000,   1.7868550000)
 A3 = (   0.0000000000,  -1.8222415000,  -1.7868550000)
 
   4 primitive cells build up your supercell.
 

 Routine SETGRP: Setting up the symmetry group for a 
 simple tetragonal supercell.


 Subroutine GETGRP returns: Found 16 space group operations
 (whereof  8 operations were pure point group operations)
 out of a pool of 16 trial point group operations.


The dynamic configuration has the point symmetry D_2d.
 The point group associated with its full space group is D_4h.


 Subroutine INISYM returns: Found 16 space group operations
 (whereof  8 operations are pure point group operations),
 and found     4 'primitive' translations

 
 
 KPOINTS: kpt_density=1000                        

Automatic generation of k-mesh.
Space group operators:
 irot       det(A)        alpha          n_x          n_y          n_z        tau_x        tau_y        tau_z
    1     1.000000     0.000000     1.000000     0.000000     0.000000     0.000000     0.000000     0.000000
    2    -1.000000    90.000000     0.000000     0.000000    -1.000000     0.000000     0.000000     0.000000
    3     1.000000   179.999999     0.000000     0.000000     1.000000     0.000000     0.000000     0.000000
    4    -1.000000    90.000000     0.000000     0.000000     1.000000     0.000000     0.000000     0.000000
    5     1.000000   180.000000     0.000000     1.000000     0.000000     0.000000     0.000000     0.000000
    6    -1.000000   180.000000     0.707107     0.707107     0.000000     0.000000     0.000000     0.000000
    7     1.000000   180.000000     1.000000     0.000000     0.000000     0.000000     0.000000     0.000000
    8    -1.000000   180.000000     0.707107    -0.707107     0.000000     0.000000     0.000000     0.000000
    9    -1.000000     0.000000     1.000000     0.000000     0.000000    -0.250000    -0.250000     0.250000
   10     1.000000    90.000000     0.000000     0.000000    -1.000000    -0.250000    -0.250000     0.250000
   11    -1.000000   179.999999     0.000000     0.000000     1.000000    -0.250000    -0.250000     0.250000
   12     1.000000    90.000000     0.000000     0.000000     1.000000    -0.250000    -0.250000     0.250000
   13    -1.000000   180.000000     0.000000     1.000000     0.000000    -0.250000    -0.250000     0.250000
   14     1.000000   180.000000     0.707107     0.707107     0.000000    -0.250000    -0.250000     0.250000
   15    -1.000000   180.000000     1.000000     0.000000     0.000000    -0.250000    -0.250000     0.250000
   16     1.000000   180.000000     0.707107    -0.707107     0.000000    -0.250000    -0.250000     0.250000
 
 Subroutine IBZKPT returns following result:
 ===========================================
 
 Found    196 irreducible k-points:
 
 Following reciprocal coordinates:
            Coordinates               Weight
  0.000000  0.000000  0.000000      1.000000
  0.083333  0.000000  0.000000      4.000000
  0.166667  0.000000  0.000000      4.000000
  0.250000  0.000000  0.000000      4.000000
  0.333333  0.000000  0.000000      4.000000
  0.416667  0.000000  0.000000      4.000000
  0.500000  0.000000  0.000000      2.000000
  0.083333  0.083333  0.000000      4.000000
  0.166667  0.083333  0.000000      8.000000
  0.250000  0.083333  0.000000      8.000000
  0.333333  0.083333  0.000000      8.000000
  0.416667  0.083333  0.000000      8.000000
  0.500000  0.083333  0.000000      4.000000
  0.166667  0.166667  0.000000      4.000000
  0.250000  0.166667  0.000000      8.000000
  0.333333  0.166667  0.000000      8.000000
  0.416667  0.166667  0.000000      8.000000
  0.500000  0.166667  0.000000      4.000000
  0.250000  0.250000  0.000000      4.000000
  0.333333  0.250000  0.000000      8.000000
  0.416667  0.250000  0.000000      8.000000
  0.500000  0.250000  0.000000      4.000000
  0.333333  0.333333  0.000000      4.000000
  0.416667  0.333333  0.000000      8.000000
  0.500000  0.333333  0.000000      4.000000
  0.416667  0.416667  0.000000      4.000000
  0.500000  0.416667  0.000000      4.000000
  0.500000  0.500000  0.000000      1.000000
  0.000000  0.000000  0.083333      2.000000
  0.083333  0.000000  0.083333      8.000000
  0.166667  0.000000  0.083333      8.000000
  0.250000  0.000000  0.083333      8.000000
  0.333333  0.000000  0.083333      8.000000
  0.416667  0.000000  0.083333      8.000000
  0.500000  0.000000  0.083333      4.000000
  0.083333  0.083333  0.083333      8.000000
  0.166667  0.083333  0.083333     16.000000
  0.250000  0.083333  0.083333     16.000000
  0.333333  0.083333  0.083333     16.000000
  0.416667  0.083333  0.083333     16.000000
  0.500000  0.083333  0.083333      8.000000
  0.166667  0.166667  0.083333      8.000000
  0.250000  0.166667  0.083333     16.000000
  0.333333  0.166667  0.083333     16.000000
  0.416667  0.166667  0.083333     16.000000
  0.500000  0.166667  0.083333      8.000000
  0.250000  0.250000  0.083333      8.000000
  0.333333  0.250000  0.083333     16.000000
  0.416667  0.250000  0.083333     16.000000
  0.500000  0.250000  0.083333      8.000000
  0.333333  0.333333  0.083333      8.000000
  0.416667  0.333333  0.083333     16.000000
  0.500000  0.333333  0.083333      8.000000
  0.416667  0.416667  0.083333      8.000000
  0.500000  0.416667  0.083333      8.000000
  0.500000  0.500000  0.083333      2.000000
  0.000000  0.000000  0.166667      2.000000
  0.083333  0.000000  0.166667      8.000000
  0.166667  0.000000  0.166667      8.000000
  0.250000  0.000000  0.166667      8.000000
  0.333333  0.000000  0.166667      8.000000
  0.416667  0.000000  0.166667      8.000000
  0.500000  0.000000  0.166667      4.000000
  0.083333  0.083333  0.166667      8.000000
  0.166667  0.083333  0.166667     16.000000
  0.250000  0.083333  0.166667     16.000000
  0.333333  0.083333  0.166667     16.000000
  0.416667  0.083333  0.166667     16.000000
  0.500000  0.083333  0.166667      8.000000
  0.166667  0.166667  0.166667      8.000000
  0.250000  0.166667  0.166667     16.000000
  0.333333  0.166667  0.166667     16.000000
  0.416667  0.166667  0.166667     16.000000
  0.500000  0.166667  0.166667      8.000000
  0.250000  0.250000  0.166667      8.000000
  0.333333  0.250000  0.166667     16.000000
  0.416667  0.250000  0.166667     16.000000
  0.500000  0.250000  0.166667      8.000000
  0.333333  0.333333  0.166667      8.000000
  0.416667  0.333333  0.166667     16.000000
  0.500000  0.333333  0.166667      8.000000
  0.416667  0.416667  0.166667      8.000000
  0.500000  0.416667  0.166667      8.000000
  0.500000  0.500000  0.166667      2.000000
  0.000000  0.000000  0.250000      2.000000
  0.083333  0.000000  0.250000      8.000000
  0.166667  0.000000  0.250000      8.000000
  0.250000  0.000000  0.250000      8.000000
  0.333333  0.000000  0.250000      8.000000
  0.416667  0.000000  0.250000      8.000000
  0.500000  0.000000  0.250000      4.000000
  0.083333  0.083333  0.250000      8.000000
  0.166667  0.083333  0.250000     16.000000
  0.250000  0.083333  0.250000     16.000000
  0.333333  0.083333  0.250000     16.000000
  0.416667  0.083333  0.250000     16.000000
  0.500000  0.083333  0.250000      8.000000
  0.166667  0.166667  0.250000      8.000000
  0.250000  0.166667  0.250000     16.000000
  0.333333  0.166667  0.250000     16.000000
  0.416667  0.166667  0.250000     16.000000
  0.500000  0.166667  0.250000      8.000000
  0.250000  0.250000  0.250000      8.000000
  0.333333  0.250000  0.250000     16.000000
  0.416667  0.250000  0.250000     16.000000
  0.500000  0.250000  0.250000      8.000000
  0.333333  0.333333  0.250000      8.000000
  0.416667  0.333333  0.250000     16.000000
  0.500000  0.333333  0.250000      8.000000
  0.416667  0.416667  0.250000      8.000000
  0.500000  0.416667  0.250000      8.000000
  0.500000  0.500000  0.250000      2.000000
  0.000000  0.000000  0.333333      2.000000
  0.083333  0.000000  0.333333      8.000000
  0.166667  0.000000  0.333333      8.000000
  0.250000  0.000000  0.333333      8.000000
  0.333333  0.000000  0.333333      8.000000
  0.416667  0.000000  0.333333      8.000000
  0.500000  0.000000  0.333333      4.000000
  0.083333  0.083333  0.333333      8.000000
  0.166667  0.083333  0.333333     16.000000
  0.250000  0.083333  0.333333     16.000000
  0.333333  0.083333  0.333333     16.000000
  0.416667  0.083333  0.333333     16.000000
  0.500000  0.083333  0.333333      8.000000
  0.166667  0.166667  0.333333      8.000000
  0.250000  0.166667  0.333333     16.000000
  0.333333  0.166667  0.333333     16.000000
  0.416667  0.166667  0.333333     16.000000
  0.500000  0.166667  0.333333      8.000000
  0.250000  0.250000  0.333333      8.000000
  0.333333  0.250000  0.333333     16.000000
  0.416667  0.250000  0.333333     16.000000
  0.500000  0.250000  0.333333      8.000000
  0.333333  0.333333  0.333333      8.000000
  0.416667  0.333333  0.333333     16.000000
  0.500000  0.333333  0.333333      8.000000
  0.416667  0.416667  0.333333      8.000000
  0.500000  0.416667  0.333333      8.000000
  0.500000  0.500000  0.333333      2.000000
  0.000000  0.000000  0.416667      2.000000
  0.083333  0.000000  0.416667      8.000000
  0.166667  0.000000  0.416667      8.000000
  0.250000  0.000000  0.416667      8.000000
  0.333333  0.000000  0.416667      8.000000
  0.416667  0.000000  0.416667      8.000000
  0.500000  0.000000  0.416667      4.000000
  0.083333  0.083333  0.416667      8.000000
  0.166667  0.083333  0.416667     16.000000
  0.250000  0.083333  0.416667     16.000000
  0.333333  0.083333  0.416667     16.000000
  0.416667  0.083333  0.416667     16.000000
  0.500000  0.083333  0.416667      8.000000
  0.166667  0.166667  0.416667      8.000000
  0.250000  0.166667  0.416667     16.000000
  0.333333  0.166667  0.416667     16.000000
  0.416667  0.166667  0.416667     16.000000
  0.500000  0.166667  0.416667      8.000000
  0.250000  0.250000  0.416667      8.000000
  0.333333  0.250000  0.416667     16.000000
  0.416667  0.250000  0.416667     16.000000
  0.500000  0.250000  0.416667      8.000000
  0.333333  0.333333  0.416667      8.000000
  0.416667  0.333333  0.416667     16.000000
  0.500000  0.333333  0.416667      8.000000
  0.416667  0.416667  0.416667      8.000000
  0.500000  0.416667  0.416667      8.000000
  0.500000  0.500000  0.416667      2.000000
  0.000000  0.000000  0.500000      1.000000
  0.083333  0.000000  0.500000      4.000000
  0.166667  0.000000  0.500000      4.000000
  0.250000  0.000000  0.500000      4.000000
  0.333333  0.000000  0.500000      4.000000
  0.416667  0.000000  0.500000      4.000000
  0.500000  0.000000  0.500000      2.000000
  0.083333  0.083333  0.500000      4.000000
  0.166667  0.083333  0.500000      8.000000
  0.250000  0.083333  0.500000      8.000000
  0.333333  0.083333  0.500000      8.000000
  0.416667  0.083333  0.500000      8.000000
  0.500000  0.083333  0.500000      4.000000
  0.166667  0.166667  0.500000      4.000000
  0.250000  0.166667  0.500000      8.000000
  0.333333  0.166667  0.500000      8.000000
  0.416667  0.166667  0.500000      8.000000
  0.500000  0.166667  0.500000      4.000000
  0.250000  0.250000  0.500000      4.000000
  0.333333  0.250000  0.500000      8.000000
  0.416667  0.250000  0.500000      8.000000
  0.500000  0.250000  0.500000      4.000000
  0.333333  0.333333  0.500000      4.000000
  0.416667  0.333333  0.500000      8.000000
  0.500000  0.333333  0.500000      4.000000
  0.416667  0.416667  0.500000      4.000000
  0.500000  0.416667  0.500000      4.000000
  0.500000  0.500000  0.500000      1.000000
 
 Following cartesian coordinates:
            Coordinates               Weight
  0.000000  0.000000  0.000000      1.000000
  0.022866  0.000000  0.000000      4.000000
  0.045731  0.000000  0.000000      4.000000
  0.068597  0.000000  0.000000      4.000000
  0.091462  0.000000  0.000000      4.000000
  0.114328  0.000000  0.000000      4.000000
  0.137194  0.000000  0.000000      2.000000
  0.022866  0.022866  0.000000      4.000000
  0.045731  0.022866  0.000000      8.000000
  0.068597  0.022866  0.000000      8.000000
  0.091462  0.022866  0.000000      8.000000
  0.114328  0.022866  0.000000      8.000000
  0.137194  0.022866  0.000000      4.000000
  0.045731  0.045731  0.000000      4.000000
  0.068597  0.045731  0.000000      8.000000
  0.091462  0.045731  0.000000      8.000000
  0.114328  0.045731  0.000000      8.000000
  0.137194  0.045731  0.000000      4.000000
  0.068597  0.068597  0.000000      4.000000
  0.091462  0.068597  0.000000      8.000000
  0.114328  0.068597  0.000000      8.000000
  0.137194  0.068597  0.000000      4.000000
  0.091462  0.091462  0.000000      4.000000
  0.114328  0.091462  0.000000      8.000000
  0.137194  0.091462  0.000000      4.000000
  0.114328  0.114328  0.000000      4.000000
  0.137194  0.114328  0.000000      4.000000
  0.137194  0.137194  0.000000      1.000000
  0.000000  0.000000  0.023318      2.000000
  0.022866  0.000000  0.023318      8.000000
  0.045731  0.000000  0.023318      8.000000
  0.068597  0.000000  0.023318      8.000000
  0.091462  0.000000  0.023318      8.000000
  0.114328  0.000000  0.023318      8.000000
  0.137194  0.000000  0.023318      4.000000
  0.022866  0.022866  0.023318      8.000000
  0.045731  0.022866  0.023318     16.000000
  0.068597  0.022866  0.023318     16.000000
  0.091462  0.022866  0.023318     16.000000
  0.114328  0.022866  0.023318     16.000000
  0.137194  0.022866  0.023318      8.000000
  0.045731  0.045731  0.023318      8.000000
  0.068597  0.045731  0.023318     16.000000
  0.091462  0.045731  0.023318     16.000000
  0.114328  0.045731  0.023318     16.000000
  0.137194  0.045731  0.023318      8.000000
  0.068597  0.068597  0.023318      8.000000
  0.091462  0.068597  0.023318     16.000000
  0.114328  0.068597  0.023318     16.000000
  0.137194  0.068597  0.023318      8.000000
  0.091462  0.091462  0.023318      8.000000
  0.114328  0.091462  0.023318     16.000000
  0.137194  0.091462  0.023318      8.000000
  0.114328  0.114328  0.023318      8.000000
  0.137194  0.114328  0.023318      8.000000
  0.137194  0.137194  0.023318      2.000000
  0.000000  0.000000  0.046637      2.000000
  0.022866  0.000000  0.046637      8.000000
  0.045731  0.000000  0.046637      8.000000
  0.068597  0.000000  0.046637      8.000000
  0.091462  0.000000  0.046637      8.000000
  0.114328  0.000000  0.046637      8.000000
  0.137194  0.000000  0.046637      4.000000
  0.022866  0.022866  0.046637      8.000000
  0.045731  0.022866  0.046637     16.000000
  0.068597  0.022866  0.046637     16.000000
  0.091462  0.022866  0.046637     16.000000
  0.114328  0.022866  0.046637     16.000000
  0.137194  0.022866  0.046637      8.000000
  0.045731  0.045731  0.046637      8.000000
  0.068597  0.045731  0.046637     16.000000
  0.091462  0.045731  0.046637     16.000000
  0.114328  0.045731  0.046637     16.000000
  0.137194  0.045731  0.046637      8.000000
  0.068597  0.068597  0.046637      8.000000
  0.091462  0.068597  0.046637     16.000000
  0.114328  0.068597  0.046637     16.000000
  0.137194  0.068597  0.046637      8.000000
  0.091462  0.091462  0.046637      8.000000
  0.114328  0.091462  0.046637     16.000000
  0.137194  0.091462  0.046637      8.000000
  0.114328  0.114328  0.046637      8.000000
  0.137194  0.114328  0.046637      8.000000
  0.137194  0.137194  0.046637      2.000000
  0.000000  0.000000  0.069955      2.000000
  0.022866  0.000000  0.069955      8.000000
  0.045731  0.000000  0.069955      8.000000
  0.068597  0.000000  0.069955      8.000000
  0.091462  0.000000  0.069955      8.000000
  0.114328  0.000000  0.069955      8.000000
  0.137194  0.000000  0.069955      4.000000
  0.022866  0.022866  0.069955      8.000000
  0.045731  0.022866  0.069955     16.000000
  0.068597  0.022866  0.069955     16.000000
  0.091462  0.022866  0.069955     16.000000
  0.114328  0.022866  0.069955     16.000000
  0.137194  0.022866  0.069955      8.000000
  0.045731  0.045731  0.069955      8.000000
  0.068597  0.045731  0.069955     16.000000
  0.091462  0.045731  0.069955     16.000000
  0.114328  0.045731  0.069955     16.000000
  0.137194  0.045731  0.069955      8.000000
  0.068597  0.068597  0.069955      8.000000
  0.091462  0.068597  0.069955     16.000000
  0.114328  0.068597  0.069955     16.000000
  0.137194  0.068597  0.069955      8.000000
  0.091462  0.091462  0.069955      8.000000
  0.114328  0.091462  0.069955     16.000000
  0.137194  0.091462  0.069955      8.000000
  0.114328  0.114328  0.069955      8.000000
  0.137194  0.114328  0.069955      8.000000
  0.137194  0.137194  0.069955      2.000000
  0.000000  0.000000  0.093274      2.000000
  0.022866  0.000000  0.093274      8.000000
  0.045731  0.000000  0.093274      8.000000
  0.068597  0.000000  0.093274      8.000000
  0.091462  0.000000  0.093274      8.000000
  0.114328  0.000000  0.093274      8.000000
  0.137194  0.000000  0.093274      4.000000
  0.022866  0.022866  0.093274      8.000000
  0.045731  0.022866  0.093274     16.000000
  0.068597  0.022866  0.093274     16.000000
  0.091462  0.022866  0.093274     16.000000
  0.114328  0.022866  0.093274     16.000000
  0.137194  0.022866  0.093274      8.000000
  0.045731  0.045731  0.093274      8.000000
  0.068597  0.045731  0.093274     16.000000
  0.091462  0.045731  0.093274     16.000000
  0.114328  0.045731  0.093274     16.000000
  0.137194  0.045731  0.093274      8.000000
  0.068597  0.068597  0.093274      8.000000
  0.091462  0.068597  0.093274     16.000000
  0.114328  0.068597  0.093274     16.000000
  0.137194  0.068597  0.093274      8.000000
  0.091462  0.091462  0.093274      8.000000
  0.114328  0.091462  0.093274     16.000000
  0.137194  0.091462  0.093274      8.000000
  0.114328  0.114328  0.093274      8.000000
  0.137194  0.114328  0.093274      8.000000
  0.137194  0.137194  0.093274      2.000000
  0.000000  0.000000  0.116592      2.000000
  0.022866  0.000000  0.116592      8.000000
  0.045731  0.000000  0.116592      8.000000
  0.068597  0.000000  0.116592      8.000000
  0.091462  0.000000  0.116592      8.000000
  0.114328  0.000000  0.116592      8.000000
  0.137194  0.000000  0.116592      4.000000
  0.022866  0.022866  0.116592      8.000000
  0.045731  0.022866  0.116592     16.000000
  0.068597  0.022866  0.116592     16.000000
  0.091462  0.022866  0.116592     16.000000
  0.114328  0.022866  0.116592     16.000000
  0.137194  0.022866  0.116592      8.000000
  0.045731  0.045731  0.116592      8.000000
  0.068597  0.045731  0.116592     16.000000
  0.091462  0.045731  0.116592     16.000000
  0.114328  0.045731  0.116592     16.000000
  0.137194  0.045731  0.116592      8.000000
  0.068597  0.068597  0.116592      8.000000
  0.091462  0.068597  0.116592     16.000000
  0.114328  0.068597  0.116592     16.000000
  0.137194  0.068597  0.116592      8.000000
  0.091462  0.091462  0.116592      8.000000
  0.114328  0.091462  0.116592     16.000000
  0.137194  0.091462  0.116592      8.000000
  0.114328  0.114328  0.116592      8.000000
  0.137194  0.114328  0.116592      8.000000
  0.137194  0.137194  0.116592      2.000000
  0.000000  0.000000  0.139911      1.000000
  0.022866  0.000000  0.139911      4.000000
  0.045731  0.000000  0.139911      4.000000
  0.068597  0.000000  0.139911      4.000000
  0.091462  0.000000  0.139911      4.000000
  0.114328  0.000000  0.139911      4.000000
  0.137194  0.000000  0.139911      2.000000
  0.022866  0.022866  0.139911      4.000000
  0.045731  0.022866  0.139911      8.000000
  0.068597  0.022866  0.139911      8.000000
  0.091462  0.022866  0.139911      8.000000
  0.114328  0.022866  0.139911      8.000000
  0.137194  0.022866  0.139911      4.000000
  0.045731  0.045731  0.139911      4.000000
  0.068597  0.045731  0.139911      8.000000
  0.091462  0.045731  0.139911      8.000000
  0.114328  0.045731  0.139911      8.000000
  0.137194  0.045731  0.139911      4.000000
  0.068597  0.068597  0.139911      4.000000
  0.091462  0.068597  0.139911      8.000000
  0.114328  0.068597  0.139911      8.000000
  0.137194  0.068597  0.139911      4.000000
  0.091462  0.091462  0.139911      4.000000
  0.114328  0.091462  0.139911      8.000000
  0.137194  0.091462  0.139911      4.000000
  0.114328  0.114328  0.139911      4.000000
  0.137194  0.114328  0.139911      4.000000
  0.137194  0.137194  0.139911      1.000000
 
 TETIRR: Found   2592 inequivalent tetrahedra from    10368


--------------------------------------------------------------------------------------------------------




 Dimension of arrays:
   k-points           NKPTS =    196   k-points in BZ     NKDIM =    196   number of bands    NBANDS=     24
   number of dos      NEDOS =    301   number of ions     NIONS =      8
   non local maximal  LDIM  =      4   non local SUM 2l+1 LMDIM =      8
   total plane-waves  NPLWV =  13824
   max r-space proj   IRMAX =      1   max aug-charges    IRDMAX=   3636
   dimension x,y,z NGX =    24 NGY =   24 NGZ =   24
   dimension x,y,z NGXF=    48 NGYF=   48 NGZF=   48
   support grid    NGXF=    48 NGYF=   48 NGZF=   48
   ions per type =               8
   NGX,Y,Z   is equivalent  to a cutoff of  10.95, 10.95, 11.16 a.u.
   NGXF,Y,Z  is equivalent  to a cutoff of  21.90, 21.90, 22.33 a.u.

 SYSTEM =  unknown system                          
 POSCAR =  C8                                      

 Startparameter for this run:
   NWRITE =      2    write-flag & timer
   PREC   = accura    normal or accurate (medium, high low for compatibility)
   ISTART =      0    job   : 0-new  1-cont  2-samecut
   ICHARG =      2    charge: 1-file 2-atom 10-const
   ISPIN  =      1    spin polarized calculation?
   LNONCOLLINEAR =      F non collinear calculations
   LSORBIT =      F    spin-orbit coupling
   INIWAV =      1    electr: 0-lowe 1-rand  2-diag
   LASPH  =      F    aspherical Exc in radial PAW
   METAGGA=      F    non-selfconsistent MetaGGA calc.

 Electronic Relaxation 1
   ENCUT  =  400.0 eV  29.40 Ry    5.42 a.u.   5.94  5.94  5.83*2*pi/ulx,y,z
   ENINI  =  400.0     initial cutoff
   ENAUG  =  644.9 eV  augmentation charge cutoff
   NELM   =     60;   NELMIN=  2; NELMDL= -5     # of ELM steps 
   EDIFF  = 0.1E-05   stopping-criterion for ELM
   LREAL  =      F    real-space projection
   NLSPLINE    = F    spline interpolate recip. space projectors
   LCOMPAT=      F    compatible to vasp.4.4
   GGA_COMPAT  = T    GGA compatible to vasp.4.4-vasp.4.6
   LMAXPAW     = -100 max onsite density
   LMAXMIX     =    2 max onsite mixed and CHGCAR
   VOSKOWN=      0    Vosko Wilk Nusair interpolation
   ROPT   =    0.00000
 Ionic relaxation
   EDIFFG = 0.1E-04   stopping-criterion for IOM
   NSW    =      0    number of steps for IOM
   NBLOCK =      1;   KBLOCK =      1    inner block; outer block 
   IBRION =     -1    ionic relax: 0-MD 1-quasi-New 2-CG
   NFREE  =      0    steps in history (QN), initial steepest desc. (CG)
   ISIF   =      2    stress and relaxation
   IWAVPR =     10    prediction:  0-non 1-charg 2-wave 3-comb
   ISYM   =      2    0-nonsym 1-usesym 2-fastsym
   LCORR  =      T    Harris-Foulkes like correction to forces

   POTIM  = 0.0200    time-step for ionic-motion
   TEIN   =    0.0    initial temperature
   TEBEG  =    0.0;   TEEND  =   0.0 temperature during run
   SMASS  =  -3.00    Nose mass-parameter (am)
   estimated Nose-frequenzy (Omega)   =  0.10E-29 period in steps =****** mass=  -0.304E-27a.u.
   SCALEE = 1.0000    scale energy and forces
   NPACO  =    256;   APACO  = 16.0  distance and # of slots for P.C.
   PSTRESS=    0.0 pullay stress

  Mass of Ions in am
   POMASS =  12.01
  Ionic Valenz
   ZVAL   =   4.00
  Atomic Wigner-Seitz radii
   RWIGS  =  -1.00
  virtual crystal weights 
   VCA    =   1.00
   NELECT =      32.0000    total number of electrons
   NUPDOWN=      -1.0000    fix difference up-down

 DOS related values:
   EMIN   =  10.00;   EMAX   =-10.00  energy-range for DOS
   EFERMI =   0.00
   ISMEAR =    -5;   SIGMA  =   0.06  broadening in eV -4-tet -1-fermi 0-gaus

 Electronic relaxation 2 (details)
   IALGO  =     38    algorithm
   LDIAG  =      T    sub-space diagonalisation (order eigenvalues)
   LSUBROT=      F    optimize rotation matrix (better conditioning)
   TURBO    =      0    0=normal 1=particle mesh
   IRESTART =      0    0=no restart 2=restart with 2 vectors
   NREBOOT  =      0    no. of reboots
   NMIN     =      0    reboot dimension
   EREF     =   0.00    reference energy to select bands
   IMIX   =      4    mixing-type and parameters
     AMIX     =   0.40;   BMIX     =  1.00
     AMIX_MAG =   1.60;   BMIX_MAG =  1.00
     AMIN     =   0.10
     WC   =   100.;   INIMIX=   1;  MIXPRE=   1;  MAXMIX= -45

 Intra band minimization:
   WEIMIN = 0.0000     energy-eigenvalue tresh-hold
   EBREAK =  0.10E-07  absolut break condition
   DEPER  =   0.30     relativ break condition  

   TIME   =   0.40     timestep for ELM

  volume/ion in A,a.u.               =       5.93        40.04
  Fermi-wavevector in a.u.,A,eV,Ry     =   1.435471  2.712647 28.035854  2.060577
  Thomas-Fermi vector in A             =   2.554766
 
 Write flags
   LWAVE        =      F    write WAVECAR
   LDOWNSAMPLE  =      F    k-point downsampling of WAVECAR
   LCHARG       =      F    write CHGCAR
   LVTOT        =      F    write LOCPOT, total local potential
   LVHAR        =      F    write LOCPOT, Hartree potential only
   LELF         =      F    write electronic localiz. function (ELF)
   LORBIT       =      0    0 simple, 1 ext, 2 COOP (PROOUT), +10 PAW based schemes


 Dipole corrections
   LMONO  =      F    monopole corrections only (constant potential shift)
   LDIPOL =      F    correct potential (dipole corrections)
   IDIPOL =      0    1-x, 2-y, 3-z, 4-all directions 
   EPSILON=  1.0000000 bulk dielectric constant

 Exchange correlation treatment:
   GGA     =    --    GGA type
   LEXCH   =     8    internal setting for exchange type
   VOSKOWN=      0    Vosko Wilk Nusair interpolation
   LHFCALC =     F    Hartree Fock is set to
   LHFONE  =     F    Hartree Fock one center treatment
   AEXX    =    0.0000 exact exchange contribution

 Linear response parameters
   LEPSILON=     F    determine dielectric tensor
   LRPA    =     F    only Hartree local field effects (RPA)
   LNABLA  =     F    use nabla operator in PAW spheres
   LVEL    =     F    velocity operator in full k-point grid
   LINTERFAST=   F  fast interpolation
   KINTER  =     0    interpolate to denser k-point grid
   CSHIFT  =0.1000    complex shift for real part using Kramers Kronig
   OMEGAMAX=  -1.0    maximum frequency
   DEG_THRESHOLD= 0.2000000E-02 threshold for treating states as degnerate
   RTIME   =   -0.100 relaxation time in fs
  (WPLASMAI=    0.000 imaginary part of plasma frequency in eV, 0.658/RTIME)
   DFIELD  = 0.0000000 0.0000000 0.0000000 field for delta impulse in time
 
 Orbital magnetization related:
   ORBITALMAG=     F  switch on orbital magnetization
   LCHIMAG   =     F  perturbation theory with respect to B field
   DQ        =  0.001000  dq finite difference perturbation B field
   LLRAUG    =     F  two centre corrections for induced B field



--------------------------------------------------------------------------------------------------------


 Static calculation
 charge density and potential will be updated during run
 non-spin polarized calculation
 Variant of blocked Davidson
 Davidson routine will perform the subspace rotation
 perform sub-space diagonalisation
    after iterative eigenvector-optimisation
 modified Broyden-mixing scheme, WC =      100.0
 initial mixing is a Kerker type mixing with AMIX =  0.4000 and BMIX =      1.0000
 Hartree-type preconditioning will be used
 using additional bands            8
 reciprocal scheme for non local part
 calculate Harris-corrections to forces 
   (improved forces if not selfconsistent)
 use gradient corrections 
 use of overlap-Matrix (Vanderbilt PP)
 Fermi weights with tetrahedron method with Bloechl corrections


--------------------------------------------------------------------------------------------------------


  energy-cutoff  :      400.00
  volume of cell :       47.47
      direct lattice vectors                 reciprocal lattice vectors
     3.644483000  0.000000000  0.000000000     0.274387341  0.000000000  0.000000000
     0.000000000  3.644483000  0.000000000     0.000000000  0.274387341  0.000000000
     0.000000000  0.000000000  3.573710000     0.000000000  0.000000000  0.279821250

  length of vectors
     3.644483000  3.644483000  3.573710000     0.274387341  0.274387341  0.279821250


 
 k-points in units of 2pi/SCALE and weight: kpt_density=1000                        
   0.00000000  0.00000000  0.00000000       0.001
   0.02286561  0.00000000  0.00000000       0.002
   0.04573122  0.00000000  0.00000000       0.002
   0.06859684  0.00000000  0.00000000       0.002
   0.09146245  0.00000000  0.00000000       0.002
   0.11432806  0.00000000  0.00000000       0.002
   0.13719367  0.00000000  0.00000000       0.001
   0.02286561  0.02286561  0.00000000       0.002
   0.04573122  0.02286561  0.00000000       0.005
   0.06859684  0.02286561  0.00000000       0.005
   0.09146245  0.02286561  0.00000000       0.005
   0.11432806  0.02286561  0.00000000       0.005
   0.13719367  0.02286561  0.00000000       0.002
   0.04573122  0.04573122  0.00000000       0.002
   0.06859684  0.04573122  0.00000000       0.005
   0.09146245  0.04573122  0.00000000       0.005
   0.11432806  0.04573122  0.00000000       0.005
   0.13719367  0.04573122  0.00000000       0.002
   0.06859684  0.06859684  0.00000000       0.002
   0.09146245  0.06859684  0.00000000       0.005
   0.11432806  0.06859684  0.00000000       0.005
   0.13719367  0.06859684  0.00000000       0.002
   0.09146245  0.09146245  0.00000000       0.002
   0.11432806  0.09146245  0.00000000       0.005
   0.13719367  0.09146245  0.00000000       0.002
   0.11432806  0.11432806  0.00000000       0.002
   0.13719367  0.11432806  0.00000000       0.002
   0.13719367  0.13719367  0.00000000       0.001
   0.00000000  0.00000000  0.02331844       0.001
   0.02286561  0.00000000  0.02331844       0.005
   0.04573122  0.00000000  0.02331844       0.005
   0.06859684  0.00000000  0.02331844       0.005
   0.09146245  0.00000000  0.02331844       0.005
   0.11432806  0.00000000  0.02331844       0.005
   0.13719367  0.00000000  0.02331844       0.002
   0.02286561  0.02286561  0.02331844       0.005
   0.04573122  0.02286561  0.02331844       0.009
   0.06859684  0.02286561  0.02331844       0.009
   0.09146245  0.02286561  0.02331844       0.009
   0.11432806  0.02286561  0.02331844       0.009
   0.13719367  0.02286561  0.02331844       0.005
   0.04573122  0.04573122  0.02331844       0.005
   0.06859684  0.04573122  0.02331844       0.009
   0.09146245  0.04573122  0.02331844       0.009
   0.11432806  0.04573122  0.02331844       0.009
   0.13719367  0.04573122  0.02331844       0.005
   0.06859684  0.06859684  0.02331844       0.005
   0.09146245  0.06859684  0.02331844       0.009
   0.11432806  0.06859684  0.02331844       0.009
   0.13719367  0.06859684  0.02331844       0.005
   0.09146245  0.09146245  0.02331844       0.005
   0.11432806  0.09146245  0.02331844       0.009
   0.13719367  0.09146245  0.02331844       0.005
   0.11432806  0.11432806  0.02331844       0.005
   0.13719367  0.11432806  0.02331844       0.005
   0.13719367  0.13719367  0.02331844       0.001
   0.00000000  0.00000000  0.04663688       0.001
   0.02286561  0.00000000  0.04663688       0.005
   0.04573122  0.00000000  0.04663688       0.005
   0.06859684  0.00000000  0.04663688       0.005
   0.09146245  0.00000000  0.04663688       0.005
   0.11432806  0.00000000  0.04663688       0.005
   0.13719367  0.00000000  0.04663688       0.002
   0.02286561  0.02286561  0.04663688       0.005
   0.04573122  0.02286561  0.04663688       0.009
   0.06859684  0.02286561  0.04663688       0.009
   0.09146245  0.02286561  0.04663688       0.009
   0.11432806  0.02286561  0.04663688       0.009
   0.13719367  0.02286561  0.04663688       0.005
   0.04573122  0.04573122  0.04663688       0.005
   0.06859684  0.04573122  0.04663688       0.009
   0.09146245  0.04573122  0.04663688       0.009
   0.11432806  0.04573122  0.04663688       0.009
   0.13719367  0.04573122  0.04663688       0.005
   0.06859684  0.06859684  0.04663688       0.005
   0.09146245  0.06859684  0.04663688       0.009
   0.11432806  0.06859684  0.04663688       0.009
   0.13719367  0.06859684  0.04663688       0.005
   0.09146245  0.09146245  0.04663688       0.005
   0.11432806  0.09146245  0.04663688       0.009
   0.13719367  0.09146245  0.04663688       0.005
   0.11432806  0.11432806  0.04663688       0.005
   0.13719367  0.11432806  0.04663688       0.005
   0.13719367  0.13719367  0.04663688       0.001
   0.00000000  0.00000000  0.06995531       0.001
   0.02286561  0.00000000  0.06995531       0.005
   0.04573122  0.00000000  0.06995531       0.005
   0.06859684  0.00000000  0.06995531       0.005
   0.09146245  0.00000000  0.06995531       0.005
   0.11432806  0.00000000  0.06995531       0.005
   0.13719367  0.00000000  0.06995531       0.002
   0.02286561  0.02286561  0.06995531       0.005
   0.04573122  0.02286561  0.06995531       0.009
   0.06859684  0.02286561  0.06995531       0.009
   0.09146245  0.02286561  0.06995531       0.009
   0.11432806  0.02286561  0.06995531       0.009
   0.13719367  0.02286561  0.06995531       0.005
   0.04573122  0.04573122  0.06995531       0.005
   0.06859684  0.04573122  0.06995531       0.009
   0.09146245  0.04573122  0.06995531       0.009
   0.11432806  0.04573122  0.06995531       0.009
   0.13719367  0.04573122  0.06995531       0.005
   0.06859684  0.06859684  0.06995531       0.005
   0.09146245  0.06859684  0.06995531       0.009
   0.11432806  0.06859684  0.06995531       0.009
   0.13719367  0.06859684  0.06995531       0.005
   0.09146245  0.09146245  0.06995531       0.005
   0.11432806  0.09146245  0.06995531       0.009
   0.13719367  0.09146245  0.06995531       0.005
   0.11432806  0.11432806  0.06995531       0.005
   0.13719367  0.11432806  0.06995531       0.005
   0.13719367  0.13719367  0.06995531       0.001
   0.00000000  0.00000000  0.09327375       0.001
   0.02286561  0.00000000  0.09327375       0.005
   0.04573122  0.00000000  0.09327375       0.005
   0.06859684  0.00000000  0.09327375       0.005
   0.09146245  0.00000000  0.09327375       0.005
   0.11432806  0.00000000  0.09327375       0.005
   0.13719367  0.00000000  0.09327375       0.002
   0.02286561  0.02286561  0.09327375       0.005
   0.04573122  0.02286561  0.09327375       0.009
   0.06859684  0.02286561  0.09327375       0.009
   0.09146245  0.02286561  0.09327375       0.009
   0.11432806  0.02286561  0.09327375       0.009
   0.13719367  0.02286561  0.09327375       0.005
   0.04573122  0.04573122  0.09327375       0.005
   0.06859684  0.04573122  0.09327375       0.009
   0.09146245  0.04573122  0.09327375       0.009
   0.11432806  0.04573122  0.09327375       0.009
   0.13719367  0.04573122  0.09327375       0.005
   0.06859684  0.06859684  0.09327375       0.005
   0.09146245  0.06859684  0.09327375       0.009
   0.11432806  0.06859684  0.09327375       0.009
   0.13719367  0.06859684  0.09327375       0.005
   0.09146245  0.09146245  0.09327375       0.005
   0.11432806  0.09146245  0.09327375       0.009
   0.13719367  0.09146245  0.09327375       0.005
   0.11432806  0.11432806  0.09327375       0.005
   0.13719367  0.11432806  0.09327375       0.005
   0.13719367  0.13719367  0.09327375       0.001
   0.00000000  0.00000000  0.11659219       0.001
   0.02286561  0.00000000  0.11659219       0.005
   0.04573122  0.00000000  0.11659219       0.005
   0.06859684  0.00000000  0.11659219       0.005
   0.09146245  0.00000000  0.11659219       0.005
   0.11432806  0.00000000  0.11659219       0.005
   0.13719367  0.00000000  0.11659219       0.002
   0.02286561  0.02286561  0.11659219       0.005
   0.04573122  0.02286561  0.11659219       0.009
   0.06859684  0.02286561  0.11659219       0.009
   0.09146245  0.02286561  0.11659219       0.009
   0.11432806  0.02286561  0.11659219       0.009
   0.13719367  0.02286561  0.11659219       0.005
   0.04573122  0.04573122  0.11659219       0.005
   0.06859684  0.04573122  0.11659219       0.009
   0.09146245  0.04573122  0.11659219       0.009
   0.11432806  0.04573122  0.11659219       0.009
   0.13719367  0.04573122  0.11659219       0.005
   0.06859684  0.06859684  0.11659219       0.005
   0.09146245  0.06859684  0.11659219       0.009
   0.11432806  0.06859684  0.11659219       0.009
   0.13719367  0.06859684  0.11659219       0.005
   0.09146245  0.09146245  0.11659219       0.005
   0.11432806  0.09146245  0.11659219       0.009
   0.13719367  0.09146245  0.11659219       0.005
   0.11432806  0.11432806  0.11659219       0.005
   0.13719367  0.11432806  0.11659219       0.005
   0.13719367  0.13719367  0.11659219       0.001
   0.00000000  0.00000000  0.13991063       0.001
   0.02286561  0.00000000  0.13991063       0.002
   0.04573122  0.00000000  0.13991063       0.002
   0.06859684  0.00000000  0.13991063       0.002
   0.09146245  0.00000000  0.13991063       0.002
   0.11432806  0.00000000  0.13991063       0.002
   0.13719367  0.00000000  0.13991063       0.001
   0.02286561  0.02286561  0.13991063       0.002
   0.04573122  0.02286561  0.13991063       0.005
   0.06859684  0.02286561  0.13991063       0.005
   0.09146245  0.02286561  0.13991063       0.005
   0.11432806  0.02286561  0.13991063       0.005
   0.13719367  0.02286561  0.13991063       0.002
   0.04573122  0.04573122  0.13991063       0.002
   0.06859684  0.04573122  0.13991063       0.005
   0.09146245  0.04573122  0.13991063       0.005
   0.11432806  0.04573122  0.13991063       0.005
   0.13719367  0.04573122  0.13991063       0.002
   0.06859684  0.06859684  0.13991063       0.002
   0.09146245  0.06859684  0.13991063       0.005
   0.11432806  0.06859684  0.13991063       0.005
   0.13719367  0.06859684  0.13991063       0.002
   0.09146245  0.09146245  0.13991063       0.002
   0.11432806  0.09146245  0.13991063       0.005
   0.13719367  0.09146245  0.13991063       0.002
   0.11432806  0.11432806  0.13991063       0.002
   0.13719367  0.11432806  0.13991063       0.002
   0.13719367  0.13719367  0.13991063       0.001
 
 k-points in reciprocal lattice and weights: kpt_density=1000                        
   0.00000000  0.00000000  0.00000000       0.001
   0.08333333  0.00000000  0.00000000       0.002
   0.16666667  0.00000000  0.00000000       0.002
   0.25000000  0.00000000  0.00000000       0.002
   0.33333333  0.00000000  0.00000000       0.002
   0.41666667  0.00000000  0.00000000       0.002
   0.50000000  0.00000000  0.00000000       0.001
   0.08333333  0.08333333  0.00000000       0.002
   0.16666667  0.08333333  0.00000000       0.005
   0.25000000  0.08333333  0.00000000       0.005
   0.33333333  0.08333333  0.00000000       0.005
   0.41666667  0.08333333  0.00000000       0.005
   0.50000000  0.08333333  0.00000000       0.002
   0.16666667  0.16666667  0.00000000       0.002
   0.25000000  0.16666667  0.00000000       0.005
   0.33333333  0.16666667  0.00000000       0.005
   0.41666667  0.16666667  0.00000000       0.005
   0.50000000  0.16666667  0.00000000       0.002
   0.25000000  0.25000000  0.00000000       0.002
   0.33333333  0.25000000  0.00000000       0.005
   0.41666667  0.25000000  0.00000000       0.005
   0.50000000  0.25000000  0.00000000       0.002
   0.33333333  0.33333333  0.00000000       0.002
   0.41666667  0.33333333  0.00000000       0.005
   0.50000000  0.33333333  0.00000000       0.002
   0.41666667  0.41666667  0.00000000       0.002
   0.50000000  0.41666667  0.00000000       0.002
   0.50000000  0.50000000  0.00000000       0.001
   0.00000000  0.00000000  0.08333333       0.001
   0.08333333  0.00000000  0.08333333       0.005
   0.16666667  0.00000000  0.08333333       0.005
   0.25000000  0.00000000  0.08333333       0.005
   0.33333333  0.00000000  0.08333333       0.005
   0.41666667  0.00000000  0.08333333       0.005
   0.50000000  0.00000000  0.08333333       0.002
   0.08333333  0.08333333  0.08333333       0.005
   0.16666667  0.08333333  0.08333333       0.009
   0.25000000  0.08333333  0.08333333       0.009
   0.33333333  0.08333333  0.08333333       0.009
   0.41666667  0.08333333  0.08333333       0.009
   0.50000000  0.08333333  0.08333333       0.005
   0.16666667  0.16666667  0.08333333       0.005
   0.25000000  0.16666667  0.08333333       0.009
   0.33333333  0.16666667  0.08333333       0.009
   0.41666667  0.16666667  0.08333333       0.009
   0.50000000  0.16666667  0.08333333       0.005
   0.25000000  0.25000000  0.08333333       0.005
   0.33333333  0.25000000  0.08333333       0.009
   0.41666667  0.25000000  0.08333333       0.009
   0.50000000  0.25000000  0.08333333       0.005
   0.33333333  0.33333333  0.08333333       0.005
   0.41666667  0.33333333  0.08333333       0.009
   0.50000000  0.33333333  0.08333333       0.005
   0.41666667  0.41666667  0.08333333       0.005
   0.50000000  0.41666667  0.08333333       0.005
   0.50000000  0.50000000  0.08333333       0.001
   0.00000000  0.00000000  0.16666667       0.001
   0.08333333  0.00000000  0.16666667       0.005
   0.16666667  0.00000000  0.16666667       0.005
   0.25000000  0.00000000  0.16666667       0.005
   0.33333333  0.00000000  0.16666667       0.005
   0.41666667  0.00000000  0.16666667       0.005
   0.50000000  0.00000000  0.16666667       0.002
   0.08333333  0.08333333  0.16666667       0.005
   0.16666667  0.08333333  0.16666667       0.009
   0.25000000  0.08333333  0.16666667       0.009
   0.33333333  0.08333333  0.16666667       0.009
   0.41666667  0.08333333  0.16666667       0.009
   0.50000000  0.08333333  0.16666667       0.005
   0.16666667  0.16666667  0.16666667       0.005
   0.25000000  0.16666667  0.16666667       0.009
   0.33333333  0.16666667  0.16666667       0.009
   0.41666667  0.16666667  0.16666667       0.009
   0.50000000  0.16666667  0.16666667       0.005
   0.25000000  0.25000000  0.16666667       0.005
   0.33333333  0.25000000  0.16666667       0.009
   0.41666667  0.25000000  0.16666667       0.009
   0.50000000  0.25000000  0.16666667       0.005
   0.33333333  0.33333333  0.16666667       0.005
   0.41666667  0.33333333  0.16666667       0.009
   0.50000000  0.33333333  0.16666667       0.005
   0.41666667  0.41666667  0.16666667       0.005
   0.50000000  0.41666667  0.16666667       0.005
   0.50000000  0.50000000  0.16666667       0.001
   0.00000000  0.00000000  0.25000000       0.001
   0.08333333  0.00000000  0.25000000       0.005
   0.16666667  0.00000000  0.25000000       0.005
   0.25000000  0.00000000  0.25000000       0.005
   0.33333333  0.00000000  0.25000000       0.005
   0.41666667  0.00000000  0.25000000       0.005
   0.50000000  0.00000000  0.25000000       0.002
   0.08333333  0.08333333  0.25000000       0.005
   0.16666667  0.08333333  0.25000000       0.009
   0.25000000  0.08333333  0.25000000       0.009
   0.33333333  0.08333333  0.25000000       0.009
   0.41666667  0.08333333  0.25000000       0.009
   0.50000000  0.08333333  0.25000000       0.005
   0.16666667  0.16666667  0.25000000       0.005
   0.25000000  0.16666667  0.25000000       0.009
   0.33333333  0.16666667  0.25000000       0.009
   0.41666667  0.16666667  0.25000000       0.009
   0.50000000  0.16666667  0.25000000       0.005
   0.25000000  0.25000000  0.25000000       0.005
   0.33333333  0.25000000  0.25000000       0.009
   0.41666667  0.25000000  0.25000000       0.009
   0.50000000  0.25000000  0.25000000       0.005
   0.33333333  0.33333333  0.25000000       0.005
   0.41666667  0.33333333  0.25000000       0.009
   0.50000000  0.33333333  0.25000000       0.005
   0.41666667  0.41666667  0.25000000       0.005
   0.50000000  0.41666667  0.25000000       0.005
   0.50000000  0.50000000  0.25000000       0.001
   0.00000000  0.00000000  0.33333333       0.001
   0.08333333  0.00000000  0.33333333       0.005
   0.16666667  0.00000000  0.33333333       0.005
   0.25000000  0.00000000  0.33333333       0.005
   0.33333333  0.00000000  0.33333333       0.005
   0.41666667  0.00000000  0.33333333       0.005
   0.50000000  0.00000000  0.33333333       0.002
   0.08333333  0.08333333  0.33333333       0.005
   0.16666667  0.08333333  0.33333333       0.009
   0.25000000  0.08333333  0.33333333       0.009
   0.33333333  0.08333333  0.33333333       0.009
   0.41666667  0.08333333  0.33333333       0.009
   0.50000000  0.08333333  0.33333333       0.005
   0.16666667  0.16666667  0.33333333       0.005
   0.25000000  0.16666667  0.33333333       0.009
   0.33333333  0.16666667  0.33333333       0.009
   0.41666667  0.16666667  0.33333333       0.009
   0.50000000  0.16666667  0.33333333       0.005
   0.25000000  0.25000000  0.33333333       0.005
   0.33333333  0.25000000  0.33333333       0.009
   0.41666667  0.25000000  0.33333333       0.009
   0.50000000  0.25000000  0.33333333       0.005
   0.33333333  0.33333333  0.33333333       0.005
   0.41666667  0.33333333  0.33333333       0.009
   0.50000000  0.33333333  0.33333333       0.005
   0.41666667  0.41666667  0.33333333       0.005
   0.50000000  0.41666667  0.33333333       0.005
   0.50000000  0.50000000  0.33333333       0.001
   0.00000000  0.00000000  0.41666667       0.001
   0.08333333  0.00000000  0.41666667       0.005
   0.16666667  0.00000000  0.41666667       0.005
   0.25000000  0.00000000  0.41666667       0.005
   0.33333333  0.00000000  0.41666667       0.005
   0.41666667  0.00000000  0.41666667       0.005
   0.50000000  0.00000000  0.41666667       0.002
   0.08333333  0.08333333  0.41666667       0.005
   0.16666667  0.08333333  0.41666667       0.009
   0.25000000  0.08333333  0.41666667       0.009
   0.33333333  0.08333333  0.41666667       0.009
   0.41666667  0.08333333  0.41666667       0.009
   0.50000000  0.08333333  0.41666667       0.005
   0.16666667  0.16666667  0.41666667       0.005
   0.25000000  0.16666667  0.41666667       0.009
   0.33333333  0.16666667  0.41666667       0.009
   0.41666667  0.16666667  0.41666667       0.009
   0.50000000  0.16666667  0.41666667       0.005
   0.25000000  0.25000000  0.41666667       0.005
   0.33333333  0.25000000  0.41666667       0.009
   0.41666667  0.25000000  0.41666667       0.009
   0.50000000  0.25000000  0.41666667       0.005
   0.33333333  0.33333333  0.41666667       0.005
   0.41666667  0.33333333  0.41666667       0.009
   0.50000000  0.33333333  0.41666667       0.005
   0.41666667  0.41666667  0.41666667       0.005
   0.50000000  0.41666667  0.41666667       0.005
   0.50000000  0.50000000  0.41666667       0.001
   0.00000000  0.00000000  0.50000000       0.001
   0.08333333  0.00000000  0.50000000       0.002
   0.16666667  0.00000000  0.50000000       0.002
   0.25000000  0.00000000  0.50000000       0.002
   0.33333333  0.00000000  0.50000000       0.002
   0.41666667  0.00000000  0.50000000       0.002
   0.50000000  0.00000000  0.50000000       0.001
   0.08333333  0.08333333  0.50000000       0.002
   0.16666667  0.08333333  0.50000000       0.005
   0.25000000  0.08333333  0.50000000       0.005
   0.33333333  0.08333333  0.50000000       0.005
   0.41666667  0.08333333  0.50000000       0.005
   0.50000000  0.08333333  0.50000000       0.002
   0.16666667  0.16666667  0.50000000       0.002
   0.25000000  0.16666667  0.50000000       0.005
   0.33333333  0.16666667  0.50000000       0.005
   0.41666667  0.16666667  0.50000000       0.005
   0.50000000  0.16666667  0.50000000       0.002
   0.25000000  0.25000000  0.50000000       0.002
   0.33333333  0.25000000  0.50000000       0.005
   0.41666667  0.25000000  0.50000000       0.005
   0.50000000  0.25000000  0.50000000       0.002
   0.33333333  0.33333333  0.50000000       0.002
   0.41666667  0.33333333  0.50000000       0.005
   0.50000000  0.33333333  0.50000000       0.002
   0.41666667  0.41666667  0.50000000       0.002
   0.50000000  0.41666667  0.50000000       0.002
   0.50000000  0.50000000  0.50000000       0.001
 
 position of ions in fractional coordinates (direct lattice) 
   0.25000000  0.75000000  0.25000000
   0.00000000  0.00000000  0.50000000
   0.25000000  0.25000000  0.75000000
   0.00000000  0.50000000  0.00000000
   0.75000000  0.75000000  0.75000000
   0.50000000  0.00000000  0.00000000
   0.75000000  0.25000000  0.25000000
   0.50000000  0.50000000  0.50000000
 
 position of ions in cartesian coordinates  (Angst):
   0.91112075  2.73336225  0.89342750
   0.00000000  0.00000000  1.78685500
   0.91112075  0.91112075  2.68028250
   0.00000000  1.82224150  0.00000000
   2.73336225  2.73336225  2.68028250
   1.82224150  0.00000000  0.00000000
   2.73336225  0.91112075  0.89342750
   1.82224150  1.82224150  1.78685500
 


--------------------------------------------------------------------------------------------------------


 k-point  1 :   0.0000 0.0000 0.0000  plane waves:     863
 k-point  2 :   0.0833 0.0000 0.0000  plane waves:     862
 k-point  3 :   0.1667 0.0000 0.0000  plane waves:     858
 k-point  4 :   0.2500 0.0000 0.0000  plane waves:     856
 k-point  5 :   0.3333 0.0000 0.0000  plane waves:     854
 k-point  6 :   0.4167 0.0000 0.0000  plane waves:     858
 k-point  7 :   0.5000 0.0000 0.0000  plane waves:     860
 k-point  8 :   0.0833 0.0833 0.0000  plane waves:     855
 k-point  9 :   0.1667 0.0833 0.0000  plane waves:     867
 k-point 10 :   0.2500 0.0833 0.0000  plane waves:     860
 k-point 11 :   0.3333 0.0833 0.0000  plane waves:     855
 k-point 12 :   0.4167 0.0833 0.0000  plane waves:     853
 k-point 13 :   0.5000 0.0833 0.0000  plane waves:     854
 k-point 14 :   0.1667 0.1667 0.0000  plane waves:     853
 k-point 15 :   0.2500 0.1667 0.0000  plane waves:     860
 k-point 16 :   0.3333 0.1667 0.0000  plane waves:     858
 k-point 17 :   0.4167 0.1667 0.0000  plane waves:     863
 k-point 18 :   0.5000 0.1667 0.0000  plane waves:     864
 k-point 19 :   0.2500 0.2500 0.0000  plane waves:     870
 k-point 20 :   0.3333 0.2500 0.0000  plane waves:     864
 k-point 21 :   0.4167 0.2500 0.0000  plane waves:     867
 k-point 22 :   0.5000 0.2500 0.0000  plane waves:     872
 k-point 23 :   0.3333 0.3333 0.0000  plane waves:     864
 k-point 24 :   0.4167 0.3333 0.0000  plane waves:     863
 k-point 25 :   0.5000 0.3333 0.0000  plane waves:     870
 k-point 26 :   0.4167 0.4167 0.0000  plane waves:     866
 k-point 27 :   0.5000 0.4167 0.0000  plane waves:     864
 k-point 28 :   0.5000 0.5000 0.0000  plane waves:     872
 k-point 29 :   0.0000 0.0000 0.0833  plane waves:     871
 k-point 30 :   0.0833 0.0000 0.0833  plane waves:     863
 k-point 31 :   0.1667 0.0000 0.0833  plane waves:     863
 k-point 32 :   0.2500 0.0000 0.0833  plane waves:     851
 k-point 33 :   0.3333 0.0000 0.0833  plane waves:     855
 k-point 34 :   0.4167 0.0000 0.0833  plane waves:     855
 k-point 35 :   0.5000 0.0000 0.0833  plane waves:     856
 k-point 36 :   0.0833 0.0833 0.0833  plane waves:     861
 k-point 37 :   0.1667 0.0833 0.0833  plane waves:     858
 k-point 38 :   0.2500 0.0833 0.0833  plane waves:     856
 k-point 39 :   0.3333 0.0833 0.0833  plane waves:     856
 k-point 40 :   0.4167 0.0833 0.0833  plane waves:     858
 k-point 41 :   0.5000 0.0833 0.0833  plane waves:     862
 k-point 42 :   0.1667 0.1667 0.0833  plane waves:     856
 k-point 43 :   0.2500 0.1667 0.0833  plane waves:     862
 k-point 44 :   0.3333 0.1667 0.0833  plane waves:     860
 k-point 45 :   0.4167 0.1667 0.0833  plane waves:     863
 k-point 46 :   0.5000 0.1667 0.0833  plane waves:     860
 k-point 47 :   0.2500 0.2500 0.0833  plane waves:     861
 k-point 48 :   0.3333 0.2500 0.0833  plane waves:     863
 k-point 49 :   0.4167 0.2500 0.0833  plane waves:     865
 k-point 50 :   0.5000 0.2500 0.0833  plane waves:     870
 k-point 51 :   0.3333 0.3333 0.0833  plane waves:     868
 k-point 52 :   0.4167 0.3333 0.0833  plane waves:     865
 k-point 53 :   0.5000 0.3333 0.0833  plane waves:     872
 k-point 54 :   0.4167 0.4167 0.0833  plane waves:     865
 k-point 55 :   0.5000 0.4167 0.0833  plane waves:     864
 k-point 56 :   0.5000 0.5000 0.0833  plane waves:     856
 k-point 57 :   0.0000 0.0000 0.1667  plane waves:     855
 k-point 58 :   0.0833 0.0000 0.1667  plane waves:     859
 k-point 59 :   0.1667 0.0000 0.1667  plane waves:     855
 k-point 60 :   0.2500 0.0000 0.1667  plane waves:     857
 k-point 61 :   0.3333 0.0000 0.1667  plane waves:     849
 k-point 62 :   0.4167 0.0000 0.1667  plane waves:     854
 k-point 63 :   0.5000 0.0000 0.1667  plane waves:     856
 k-point 64 :   0.0833 0.0833 0.1667  plane waves:     856
 k-point 65 :   0.1667 0.0833 0.1667  plane waves:     858
 k-point 66 :   0.2500 0.0833 0.1667  plane waves:     857
 k-point 67 :   0.3333 0.0833 0.1667  plane waves:     860
 k-point 68 :   0.4167 0.0833 0.1667  plane waves:     859
 k-point 69 :   0.5000 0.0833 0.1667  plane waves:     864
 k-point 70 :   0.1667 0.1667 0.1667  plane waves:     854
 k-point 71 :   0.2500 0.1667 0.1667  plane waves:     854
 k-point 72 :   0.3333 0.1667 0.1667  plane waves:     861
 k-point 73 :   0.4167 0.1667 0.1667  plane waves:     863
 k-point 74 :   0.5000 0.1667 0.1667  plane waves:     866
 k-point 75 :   0.2500 0.2500 0.1667  plane waves:     859
 k-point 76 :   0.3333 0.2500 0.1667  plane waves:     864
 k-point 77 :   0.4167 0.2500 0.1667  plane waves:     867
 k-point 78 :   0.5000 0.2500 0.1667  plane waves:     864
 k-point 79 :   0.3333 0.3333 0.1667  plane waves:     868
 k-point 80 :   0.4167 0.3333 0.1667  plane waves:     863
 k-point 81 :   0.5000 0.3333 0.1667  plane waves:     858
 k-point 82 :   0.4167 0.4167 0.1667  plane waves:     867
 k-point 83 :   0.5000 0.4167 0.1667  plane waves:     862
 k-point 84 :   0.5000 0.5000 0.1667  plane waves:     856
 k-point 85 :   0.0000 0.0000 0.2500  plane waves:     852
 k-point 86 :   0.0833 0.0000 0.2500  plane waves:     856
 k-point 87 :   0.1667 0.0000 0.2500  plane waves:     855
 k-point 88 :   0.2500 0.0000 0.2500  plane waves:     855
 k-point 89 :   0.3333 0.0000 0.2500  plane waves:     860
 k-point 90 :   0.4167 0.0000 0.2500  plane waves:     858
 k-point 91 :   0.5000 0.0000 0.2500  plane waves:     862
 k-point 92 :   0.0833 0.0833 0.2500  plane waves:     857
 k-point 93 :   0.1667 0.0833 0.2500  plane waves:     858
 k-point 94 :   0.2500 0.0833 0.2500  plane waves:     866
 k-point 95 :   0.3333 0.0833 0.2500  plane waves:     859
 k-point 96 :   0.4167 0.0833 0.2500  plane waves:     856
 k-point 97 :   0.5000 0.0833 0.2500  plane waves:     856
 k-point 98 :   0.1667 0.1667 0.2500  plane waves:     868
 k-point 99 :   0.2500 0.1667 0.2500  plane waves:     863
 k-point ** :   0.3333 0.1667 0.2500  plane waves:     865
 k-point ** :   0.4167 0.1667 0.2500  plane waves:     862
 k-point ** :   0.5000 0.1667 0.2500  plane waves:     860
 k-point ** :   0.2500 0.2500 0.2500  plane waves:     862
 k-point ** :   0.3333 0.2500 0.2500  plane waves:     864
 k-point ** :   0.4167 0.2500 0.2500  plane waves:     866
 k-point ** :   0.5000 0.2500 0.2500  plane waves:     862
 k-point ** :   0.3333 0.3333 0.2500  plane waves:     864
 k-point ** :   0.4167 0.3333 0.2500  plane waves:     868
 k-point ** :   0.5000 0.3333 0.2500  plane waves:     870
 k-point ** :   0.4167 0.4167 0.2500  plane waves:     868
 k-point ** :   0.5000 0.4167 0.2500  plane waves:     870
 k-point ** :   0.5000 0.5000 0.2500  plane waves:     864
 k-point ** :   0.0000 0.0000 0.3333  plane waves:     852
 k-point ** :   0.0833 0.0000 0.3333  plane waves:     856
 k-point ** :   0.1667 0.0000 0.3333  plane waves:     862
 k-point ** :   0.2500 0.0000 0.3333  plane waves:     861
 k-point ** :   0.3333 0.0000 0.3333  plane waves:     863
 k-point ** :   0.4167 0.0000 0.3333  plane waves:     858
 k-point ** :   0.5000 0.0000 0.3333  plane waves:     858
 k-point ** :   0.0833 0.0833 0.3333  plane waves:     856
 k-point ** :   0.1667 0.0833 0.3333  plane waves:     862
 k-point ** :   0.2500 0.0833 0.3333  plane waves:     867
 k-point ** :   0.3333 0.0833 0.3333  plane waves:     864
 k-point ** :   0.4167 0.0833 0.3333  plane waves:     860
 k-point ** :   0.5000 0.0833 0.3333  plane waves:     854
 k-point ** :   0.1667 0.1667 0.3333  plane waves:     864
 k-point ** :   0.2500 0.1667 0.3333  plane waves:     863
 k-point ** :   0.3333 0.1667 0.3333  plane waves:     865
 k-point ** :   0.4167 0.1667 0.3333  plane waves:     863
 k-point ** :   0.5000 0.1667 0.3333  plane waves:     866
 k-point ** :   0.2500 0.2500 0.3333  plane waves:     869
 k-point ** :   0.3333 0.2500 0.3333  plane waves:     863
 k-point ** :   0.4167 0.2500 0.3333  plane waves:     866
 k-point ** :   0.5000 0.2500 0.3333  plane waves:     866
 k-point ** :   0.3333 0.3333 0.3333  plane waves:     862
 k-point ** :   0.4167 0.3333 0.3333  plane waves:     868
 k-point ** :   0.5000 0.3333 0.3333  plane waves:     870
 k-point ** :   0.4167 0.4167 0.3333  plane waves:     870
 k-point ** :   0.5000 0.4167 0.3333  plane waves:     874
 k-point ** :   0.5000 0.5000 0.3333  plane waves:     868
 k-point ** :   0.0000 0.0000 0.4167  plane waves:     856
 k-point ** :   0.0833 0.0000 0.4167  plane waves:     857
 k-point ** :   0.1667 0.0000 0.4167  plane waves:     857
 k-point ** :   0.2500 0.0000 0.4167  plane waves:     858
 k-point ** :   0.3333 0.0000 0.4167  plane waves:     865
 k-point ** :   0.4167 0.0000 0.4167  plane waves:     856
 k-point ** :   0.5000 0.0000 0.4167  plane waves:     860
 k-point ** :   0.0833 0.0833 0.4167  plane waves:     854
 k-point ** :   0.1667 0.0833 0.4167  plane waves:     859
 k-point ** :   0.2500 0.0833 0.4167  plane waves:     860
 k-point ** :   0.3333 0.0833 0.4167  plane waves:     860
 k-point ** :   0.4167 0.0833 0.4167  plane waves:     861
 k-point ** :   0.5000 0.0833 0.4167  plane waves:     864
 k-point ** :   0.1667 0.1667 0.4167  plane waves:     866
 k-point ** :   0.2500 0.1667 0.4167  plane waves:     861
 k-point ** :   0.3333 0.1667 0.4167  plane waves:     862
 k-point ** :   0.4167 0.1667 0.4167  plane waves:     865
 k-point ** :   0.5000 0.1667 0.4167  plane waves:     862
 k-point ** :   0.2500 0.2500 0.4167  plane waves:     869
 k-point ** :   0.3333 0.2500 0.4167  plane waves:     865
 k-point ** :   0.4167 0.2500 0.4167  plane waves:     865
 k-point ** :   0.5000 0.2500 0.4167  plane waves:     864
 k-point ** :   0.3333 0.3333 0.4167  plane waves:     869
 k-point ** :   0.4167 0.3333 0.4167  plane waves:     876
 k-point ** :   0.5000 0.3333 0.4167  plane waves:     876
 k-point ** :   0.4167 0.4167 0.4167  plane waves:     879
 k-point ** :   0.5000 0.4167 0.4167  plane waves:     878
 k-point ** :   0.5000 0.5000 0.4167  plane waves:     892
 k-point ** :   0.0000 0.0000 0.5000  plane waves:     844
 k-point ** :   0.0833 0.0000 0.5000  plane waves:     856
 k-point ** :   0.1667 0.0000 0.5000  plane waves:     856
 k-point ** :   0.2500 0.0000 0.5000  plane waves:     856
 k-point ** :   0.3333 0.0000 0.5000  plane waves:     854
 k-point ** :   0.4167 0.0000 0.5000  plane waves:     856
 k-point ** :   0.5000 0.0000 0.5000  plane waves:     864
 k-point ** :   0.0833 0.0833 0.5000  plane waves:     858
 k-point ** :   0.1667 0.0833 0.5000  plane waves:     856
 k-point ** :   0.2500 0.0833 0.5000  plane waves:     858
 k-point ** :   0.3333 0.0833 0.5000  plane waves:     860
 k-point ** :   0.4167 0.0833 0.5000  plane waves:     864
 k-point ** :   0.5000 0.0833 0.5000  plane waves:     860
 k-point ** :   0.1667 0.1667 0.5000  plane waves:     858
 k-point ** :   0.2500 0.1667 0.5000  plane waves:     864
 k-point ** :   0.3333 0.1667 0.5000  plane waves:     866
 k-point ** :   0.4167 0.1667 0.5000  plane waves:     864
 k-point ** :   0.5000 0.1667 0.5000  plane waves:     868
 k-point ** :   0.2500 0.2500 0.5000  plane waves:     862
 k-point ** :   0.3333 0.2500 0.5000  plane waves:     866
 k-point ** :   0.4167 0.2500 0.5000  plane waves:     868
 k-point ** :   0.5000 0.2500 0.5000  plane waves:     868
 k-point ** :   0.3333 0.3333 0.5000  plane waves:     880
 k-point ** :   0.4167 0.3333 0.5000  plane waves:     884
 k-point ** :   0.5000 0.3333 0.5000  plane waves:     880
 k-point ** :   0.4167 0.4167 0.5000  plane waves:     876
 k-point ** :   0.5000 0.4167 0.5000  plane waves:     876
 k-point ** :   0.5000 0.5000 0.5000  plane waves:     888

 maximum and minimum number of plane-waves per node :       226      208

 maximum number of plane-waves:       892
 maximum index in each direction: 
   IXMAX=    5   IYMAX=    5   IZMAX=    5
   IXMIN=   -6   IYMIN=   -6   IZMIN=   -6


 parallel 3D FFT for wavefunctions:
    minimum data exchange during FFTs selected (reduces bandwidth)
 parallel 3D FFT for charge:
    minimum data exchange during FFTs selected (reduces bandwidth)


 total amount of memory used by VASP MPI-rank0    38185. kBytes
=======================================================================

   base      :      30000. kBytes
   nonl-proj :       2838. kBytes
   fftplans  :        345. kBytes
   grid      :        481. kBytes
   one-center:          6. kBytes
   wavefun   :       4515. kBytes
 
     INWAV:  cpu time    0.0004: real time    0.0005
 Broyden mixing: mesh for mixing (old mesh)
   NGX = 11   NGY = 11   NGZ = 11
  (NGX  = 48   NGY  = 48   NGZ  = 48)
  gives a total of   1331 points

 initial charge density was supplied:
 charge density of overlapping atoms calculated
 number of electron      32.0000000 magnetization 
 keeping initial charge density in first step


--------------------------------------------------------------------------------------------------------


 Maximum index for augmentation-charges          273 (set IRDMAX)


--------------------------------------------------------------------------------------------------------


 First call to EWALD:  gamma=   0.490
 Maximum number of real-space cells 3x 3x 3
 Maximum number of reciprocal cells 3x 3x 3

    FEWALD:  cpu time    0.0052: real time    0.0052


--------------------------------------- Iteration      1(   1)  ---------------------------------------


    POTLOK:  cpu time    0.0320: real time    0.0364
    SETDIJ:  cpu time    0.0066: real time    0.0066
     EDDAV:  cpu time   12.1907: real time   12.1982
 BZINTS: Fermi energy: 17.960946; 32.000000 electrons
         Band energy: 111.278680;  BLOECHL correction: -0.159389
       DOS:  cpu time    0.4429: real time    0.4430
    --------------------------------------------
      LOOP:  cpu time   12.6724: real time   12.6842

 eigenvalue-minimisations  :  9408
 total energy-change (2. order) : 0.5659191E+02  (-0.1425664E+04)
 number of electron      32.0000000 magnetization 
 augmentation part       32.0000000 magnetization 

 Free energy of the ion-electron system (eV)
  ---------------------------------------------------
  alpha Z        PSCENC =       109.86028049
  Ewald energy   TEWEN  =     -1371.18240462
  -Hartree energ DENC   =       -74.43178352
  -exchange      EXHF   =         0.00000000
  -V(xc)+E(xc)   XCENC  =       113.25318528
  PAW double counting   =       302.65154477     -311.85538214
  entropy T*S    EENTRO =         0.00000000
  eigenvalues    EBANDS =       111.27867954
  atomic energy  EATOM  =      1177.01779097
  Solvation  Ediel_sol  =         0.00000000
  ---------------------------------------------------
  free energy    TOTEN  =        56.59191077 eV

  energy without entropy =       56.59191077  energy(sigma->0) =       56.59191077


--------------------------------------------------------------------------------------------------------




--------------------------------------- Iteration      1(   2)  ---------------------------------------


     EDDAV:  cpu time   15.2904: real time   15.2934
 BZINTS: Fermi energy:  8.353573; 32.000000 electrons
         Band energy: -15.785289;  BLOECHL correction:  0.000000
       DOS:  cpu time    0.1236: real time    0.1235
    --------------------------------------------
      LOOP:  cpu time   15.4140: real time   15.4169

 eigenvalue-minimisations  : 12976
 total energy-change (2. order) :-0.1270640E+03  (-0.1202007E+03)
 number of electron      32.0000000 magnetization 
 augmentation part       32.0000000 magnetization 

 Free energy of the ion-electron system (eV)
  ---------------------------------------------------
  alpha Z        PSCENC =       109.86028049
  Ewald energy   TEWEN  =     -1371.18240462
  -Hartree energ DENC   =       -74.43178352
  -exchange      EXHF   =         0.00000000
  -V(xc)+E(xc)   XCENC  =       113.25318528
  PAW double counting   =       302.65154477     -311.85538214
  entropy T*S    EENTRO =         0.00000000
  eigenvalues    EBANDS =       -15.78528896
  atomic energy  EATOM  =      1177.01779097
  Solvation  Ediel_sol  =         0.00000000
  ---------------------------------------------------
  free energy    TOTEN  =       -70.47205774 eV

  energy without entropy =      -70.47205774  energy(sigma->0) =      -70.47205774


--------------------------------------------------------------------------------------------------------




--------------------------------------- Iteration      1(   3)  ---------------------------------------


     EDDAV:  cpu time   15.7334: real time   15.7347
 BZINTS: Fermi energy:  8.062563; 32.000000 electrons
         Band energy: -20.081063;  BLOECHL correction:  0.000000
       DOS:  cpu time    0.1233: real time    0.1233
    --------------------------------------------
      LOOP:  cpu time   15.8566: real time   15.8579

 eigenvalue-minimisations  : 12184
 total energy-change (2. order) :-0.4295774E+01  (-0.4272827E+01)
 number of electron      32.0000000 magnetization 
 augmentation part       32.0000000 magnetization 

 Free energy of the ion-electron system (eV)
  ---------------------------------------------------
  alpha Z        PSCENC =       109.86028049
  Ewald energy   TEWEN  =     -1371.18240462
  -Hartree energ DENC   =       -74.43178352
  -exchange      EXHF   =         0.00000000
  -V(xc)+E(xc)   XCENC  =       113.25318528
  PAW double counting   =       302.65154477     -311.85538214
  entropy T*S    EENTRO =         0.00000000
  eigenvalues    EBANDS =       -20.08106284
  atomic energy  EATOM  =      1177.01779097
  Solvation  Ediel_sol  =         0.00000000
  ---------------------------------------------------
  free energy    TOTEN  =       -74.76783162 eV

  energy without entropy =      -74.76783162  energy(sigma->0) =      -74.76783162


--------------------------------------------------------------------------------------------------------




--------------------------------------- Iteration      1(   4)  ---------------------------------------


     EDDAV:  cpu time   14.4659: real time   14.4669
 BZINTS: Fermi energy:  8.080181; 32.000000 electrons
         Band energy: -20.127549;  BLOECHL correction:  0.000000
       DOS:  cpu time    0.1374: real time    0.1374
    --------------------------------------------
      LOOP:  cpu time   14.6034: real time   14.6043

 eigenvalue-minimisations  : 12136
 total energy-change (2. order) :-0.4648640E-01  (-0.4644033E-01)
 number of electron      32.0000000 magnetization 
 augmentation part       32.0000000 magnetization 

 Free energy of the ion-electron system (eV)
  ---------------------------------------------------
  alpha Z        PSCENC =       109.86028049
  Ewald energy   TEWEN  =     -1371.18240462
  -Hartree energ DENC   =       -74.43178352
  -exchange      EXHF   =         0.00000000
  -V(xc)+E(xc)   XCENC  =       113.25318528
  PAW double counting   =       302.65154477     -311.85538214
  entropy T*S    EENTRO =         0.00000000
  eigenvalues    EBANDS =       -20.12754925
  atomic energy  EATOM  =      1177.01779097
  Solvation  Ediel_sol  =         0.00000000
  ---------------------------------------------------
  free energy    TOTEN  =       -74.81431802 eV

  energy without entropy =      -74.81431802  energy(sigma->0) =      -74.81431802


--------------------------------------------------------------------------------------------------------




--------------------------------------- Iteration      1(   5)  ---------------------------------------


     EDDAV:  cpu time   16.4818: real time   16.4829
 BZINTS: Fermi energy:  8.050143; 32.000000 electrons
         Band energy: -20.128530;  BLOECHL correction:  0.000000
       DOS:  cpu time    0.1229: real time    0.1229
    CHARGE:  cpu time    0.3236: real time    0.3236
    MIXING:  cpu time    0.0017: real time    0.0017
    --------------------------------------------
      LOOP:  cpu time   16.9300: real time   16.9311

 eigenvalue-minimisations  : 12080
 total energy-change (2. order) :-0.9809440E-03  (-0.9803857E-03)
 number of electron      32.0000027 magnetization 
 augmentation part        0.7527143 magnetization 

 Broyden mixing:
  rms(total) = 0.89929E+00    rms(broyden)= 0.89912E+00
  rms(prec ) = 0.20930E+01
  weight for this iteration     100.00

 Free energy of the ion-electron system (eV)
  ---------------------------------------------------
  alpha Z        PSCENC =       109.86028049
  Ewald energy   TEWEN  =     -1371.18240462
  -Hartree energ DENC   =       -74.43178352
  -exchange      EXHF   =         0.00000000
  -V(xc)+E(xc)   XCENC  =       113.25318528
  PAW double counting   =       302.65154477     -311.85538214
  entropy T*S    EENTRO =         0.00000000
  eigenvalues    EBANDS =       -20.12853019
  atomic energy  EATOM  =      1177.01779097
  Solvation  Ediel_sol  =         0.00000000
  ---------------------------------------------------
  free energy    TOTEN  =       -74.81529896 eV

  energy without entropy =      -74.81529896  energy(sigma->0) =      -74.81529896


--------------------------------------------------------------------------------------------------------




--------------------------------------- Iteration      1(   6)  ---------------------------------------


    POTLOK:  cpu time    0.0206: real time    0.0210
    SETDIJ:  cpu time    0.0058: real time    0.0058
     EDDAV:  cpu time   15.3461: real time   15.3468
 BZINTS: Fermi energy:  8.646850; 32.000000 electrons
         Band energy:  -4.812250;  BLOECHL correction:  0.000000
       DOS:  cpu time    0.1235: real time    0.1235
    CHARGE:  cpu time    0.3772: real time    0.3772
    MIXING:  cpu time    0.0020: real time    0.0020
    --------------------------------------------
      LOOP:  cpu time   15.8752: real time   15.8763

 eigenvalue-minimisations  : 11104
 total energy-change (2. order) : 0.1645924E+01  (-0.1099954E+00)
 number of electron      32.0000026 magnetization 
 augmentation part        0.7363558 magnetization 

 Broyden mixing:
  rms(total) = 0.49665E+00    rms(broyden)= 0.49663E+00
  rms(prec ) = 0.11381E+01
  weight for this iteration     100.00

 eigenvalues of (default mixing * dielectric matrix)
  average eigenvalue GAMMA=   2.1832
  2.1832

 Free energy of the ion-electron system (eV)
  ---------------------------------------------------
  alpha Z        PSCENC =       109.86028049
  Ewald energy   TEWEN  =     -1371.18240462
  -Hartree energ DENC   =       -88.97431695
  -exchange      EXHF   =         0.00000000
  -V(xc)+E(xc)   XCENC  =       114.60899646
  PAW double counting   =       385.79557660     -395.48304786
  entropy T*S    EENTRO =         0.00000000
  eigenvalues    EBANDS =        -4.81224992
  atomic energy  EATOM  =      1177.01779097
  Solvation  Ediel_sol  =         0.00000000
  ---------------------------------------------------
  free energy    TOTEN  =       -73.16937482 eV

  energy without entropy =      -73.16937482  energy(sigma->0) =      -73.16937482


--------------------------------------------------------------------------------------------------------




--------------------------------------- Iteration      1(   7)  ---------------------------------------


    POTLOK:  cpu time    0.0236: real time    0.0238
    SETDIJ:  cpu time    0.0062: real time    0.0062
     EDDAV:  cpu time   13.6926: real time   13.6932
 BZINTS: Fermi energy:  9.438897; 32.000000 electrons
         Band energy:  13.045950;  BLOECHL correction:  0.000000
       DOS:  cpu time    0.1375: real time    0.1375
    CHARGE:  cpu time    0.3268: real time    0.3268
    MIXING:  cpu time    0.0017: real time    0.0017
    --------------------------------------------
      LOOP:  cpu time   14.1883: real time   14.1892

 eigenvalue-minimisations  : 11032
 total energy-change (2. order) : 0.5567472E+00  (-0.1257167E+00)
 number of electron      32.0000026 magnetization 
 augmentation part        0.7187709 magnetization 

 Broyden mixing:
  rms(total) = 0.68247E-01    rms(broyden)= 0.67920E-01
  rms(prec ) = 0.11829E+00
  weight for this iteration     100.00

 eigenvalues of (default mixing * dielectric matrix)
  average eigenvalue GAMMA=   2.2668
  2.0002  2.5334

 Free energy of the ion-electron system (eV)
  ---------------------------------------------------
  alpha Z        PSCENC =       109.86028049
  Ewald energy   TEWEN  =     -1371.18240462
[...]

 k-point   184 :       0.3333    0.1667    0.5000
  band No.  band energies     occupation 
      1      -8.3336      2.00000
      2      -8.3336      2.00000
      3      -5.7988      2.00000
      4      -5.7988      2.00000
      5      -2.1171      2.00000
      6      -2.1171      2.00000
      7       0.3238      2.00000
      8       0.3238      2.00000
      9       2.5370      2.00000
     10       2.5370      2.00000
     11       4.6350      2.00000
     12       4.6350      2.00000
     13       5.0757      2.00000
     14       5.0757      2.00000
     15       6.5695      2.00000
     16       6.5695      2.00000
     17      16.3012      0.00000
     18      16.3012      0.00000
     19      17.1525      0.00000
     20      17.1525      0.00000
     21      18.1419      0.00000
     22      18.1419      0.00000
     23      18.9132      0.00000
     24      18.9132      0.00000

 k-point   185 :       0.4167    0.1667    0.5000
  band No.  band energies     occupation 
      1      -7.8248      2.00000
      2      -7.8248      2.00000
      3      -6.5326      2.00000
      4      -6.5326      2.00000
      5      -1.6952      2.00000
      6      -1.6952      2.00000
      7      -0.4499      2.00000
      8      -0.4499      2.00000
      9       3.0334      2.00000
     10       3.0334      2.00000
     11       4.0987      2.00000
     12       4.0987      2.00000
     13       5.8382      2.00000
     14       5.8382      2.00000
     15       6.6203      2.00000
     16       6.6203      2.00000
     17      16.9698      0.00000
     18      16.9698      0.00000
     19      17.3530      0.00000
     20      17.3530      0.00000
     21      17.5005      0.00000
     22      17.5005      0.00000
     23      18.8601      0.00000
     24      18.8601      0.00000

 k-point   186 :       0.5000    0.1667    0.5000
  band No.  band energies     occupation 
      1      -7.2190      2.00000
      2      -7.2190      2.00000
      3      -7.2190      2.00000
      4      -7.2190      2.00000
      5      -1.1300      2.00000
      6      -1.1300      2.00000
      7      -1.1300      2.00000
      8      -1.1300      2.00000
      9       3.5554      2.00000
     10       3.5554      2.00000
     11       3.5554      2.00000
     12       3.5554      2.00000
     13       6.3764      2.00000
     14       6.3764      2.00000
     15       6.3764      2.00000
     16       6.3764      2.00000
     17      17.0831      0.00000
     18      17.0831      0.00000
     19      17.0831      0.00000
     20      17.0831      0.00000
     21      18.3746      0.00000
     22      18.3746      0.00000
     23      18.3746      0.00000
     24      18.3746      0.00000

 k-point   187 :       0.2500    0.2500    0.5000
  band No.  band energies     occupation 
      1      -8.4495      2.00000
      2      -8.4495      2.00000
      3      -5.2758      2.00000
      4      -5.2758      2.00000
      5      -2.8321      2.00000
      6      -2.8321      2.00000
      7       0.2356      2.00000
      8       0.2356      2.00000
      9       2.8967      2.00000
     10       2.8967      2.00000
     11       4.6879      2.00000
     12       4.6879      2.00000
     13       5.6026      2.00000
     14       5.6026      2.00000
     15       6.2062      2.00000
     16       6.2062      2.00000
     17      15.7176      0.00000
     18      15.7176      0.00000
     19      17.4395      0.00000
     20      17.4395      0.00000
     21      18.5342      0.00000
     22      18.5349      0.00000
     23      18.8544      0.00000
     24      18.8805      0.00000

 k-point   188 :       0.3333    0.2500    0.5000
  band No.  band energies     occupation 
      1      -8.0544      2.00000
      2      -8.0544      2.00000
      3      -5.7284      2.00000
      4      -5.7284      2.00000
      5      -2.8935      2.00000
      6      -2.8935      2.00000
      7      -0.6368      2.00000
      8      -0.6368      2.00000
      9       3.5718      2.00000
     10       3.5718      2.00000
     11       5.3282      2.00000
     12       5.3282      2.00000
     13       5.4511      2.00000
     14       5.4511      2.00000
     15       6.4568      2.00000
     16       6.4568      2.00000
     17      16.2837      0.00000
     18      16.2837      0.00000
     19      17.2199      0.00000
     20      17.2199      0.00000
     21      18.1715      0.00000
     22      18.1717      0.00000
     23      18.4124      0.00000
     24      18.4521      0.00000

 k-point   189 :       0.4167    0.2500    0.5000
  band No.  band energies     occupation 
      1      -7.5587      2.00000
      2      -7.5587      2.00000
      3      -6.3434      2.00000
      4      -6.3434      2.00000
      5      -2.6004      2.00000
      6      -2.6004      2.00000
      7      -1.4196      2.00000
      8      -1.4196      2.00000
      9       4.1165      2.00000
     10       4.1165      2.00000
     11       5.0612      2.00000
     12       5.0612      2.00000
     13       5.9721      2.00000
     14       5.9721      2.00000
     15       6.5905      2.00000
     16       6.5905      2.00000
     17      17.0796      0.00000
     18      17.0796      0.00000
     19      17.0913      0.00000
     20      17.0913      0.00000
     21      17.5769      0.00000
     22      17.5769      0.00000
     23      18.4161      0.00000
     24      18.4164      0.00000

 k-point   190 :       0.5000    0.2500    0.5000
  band No.  band energies     occupation 
      1      -6.9777      2.00000
      2      -6.9777      2.00000
      3      -6.9777      2.00000
      4      -6.9777      2.00000
      5      -2.0857      2.00000
      6      -2.0857      2.00000
      7      -2.0857      2.00000
      8      -2.0857      2.00000
      9       4.6063      2.00000
     10       4.6063      2.00000
     11       4.6063      2.00000
     12       4.6063      2.00000
     13       6.4272      2.00000
     14       6.4272      2.00000
     15       6.4272      2.00000
     16       6.4272      2.00000
     17      17.1956      0.00000
     18      17.1956      0.00000
     19      17.1956      0.00000
     20      17.1956      0.00000
     21      18.0009      0.00000
     22      18.0009      0.00000
     23      18.0009      0.00000
     24      18.0009      0.00000

 k-point   191 :       0.3333    0.3333    0.5000
  band No.  band energies     occupation 
      1      -7.6728      2.00000
      2      -7.6728      2.00000
      3      -5.8121      2.00000
      4      -5.8121      2.00000
      5      -3.3351      2.00000
      6      -3.3351      2.00000
      7      -1.5192      2.00000
      8      -1.5192      2.00000
      9       4.4345      2.00000
     10       4.4345      2.00000
     11       5.7024      2.00000
     12       5.7024      2.00000
     13       5.9157      2.00000
     14       5.9157      2.00000
     15       6.4068      2.00000
     16       6.4068      2.00000
     17      16.4698      0.00000
     18      16.4698      0.00000
     19      17.2285      0.00000
     20      17.2285      0.00000
     21      18.1019      0.00000
     22      18.1043      0.00000
     23      18.1233      0.00000
     24      18.1364      0.00000

 k-point   192 :       0.4167    0.3333    0.5000
  band No.  band energies     occupation 
      1      -7.2029      2.00000
      2      -7.2029      2.00000
      3      -6.1629      2.00000
      4      -6.1629      2.00000
      5      -3.3091      2.00000
      6      -3.3091      2.00000
      7      -2.2913      2.00000
      8      -2.2913      2.00000
      9       5.0550      2.00000
     10       5.0550      2.00000
     11       5.8123      2.00000
     12       5.8123      2.00000
     13       6.1507      2.00000
     14       6.1507      2.00000
     15       6.5488      2.00000
     16       6.5488      2.00000
     17      16.9082      0.00000
     18      16.9082      0.00000
     19      17.1950      0.00000
     20      17.1950      0.00000
     21      17.6297      0.00000
     22      17.6298      0.00000
     23      18.0358      0.00000
     24      18.0444      0.00000

 k-point   193 :       0.5000    0.3333    0.5000
  band No.  band energies     occupation 
      1      -6.6754      2.00000
      2      -6.6754      2.00000
      3      -6.6754      2.00000
      4      -6.6754      2.00000
      5      -2.9129      2.00000
      6      -2.9129      2.00000
      7      -2.9129      2.00000
      8      -2.9129      2.00000
      9       5.4935      2.00000
     10       5.4935      2.00000
     11       5.4935      2.00000
     12       5.4935      2.00000
     13       6.4856      2.00000
     14       6.4856      2.00000
     15       6.4856      2.00000
     16       6.4856      2.00000
     17      17.2852      0.00000
     18      17.2852      0.00000
     19      17.2852      0.00000
     20      17.2852      0.00000
     21      17.6059      0.00000
     22      17.6059      0.00000
     23      17.6059      0.00000
     24      17.6059      0.00000

 k-point   194 :       0.4167    0.4167    0.5000
  band No.  band energies     occupation 
      1      -6.7867      2.00000
      2      -6.7867      2.00000
      3      -6.1373      2.00000
      4      -6.1373      2.00000
      5      -3.6582      2.00000
      6      -3.6582      2.00000
      7      -3.0196      2.00000
      8      -3.0196      2.00000
      9       5.7284      2.00000
     10       5.7284      2.00000
     11       6.1689      2.00000
     12       6.1689      2.00000
     13       6.3702      2.00000
     14       6.3702      2.00000
     15       6.5492      2.00000
     16       6.5492      2.00000
     17      16.9355      0.00000
     18      16.9355      0.00000
     19      17.2651      0.00000
     20      17.2651      0.00000
     21      17.5391      0.00000
     22      17.5391      0.00000
     23      17.7344      0.00000
     24      17.7360      0.00000

 k-point   195 :       0.5000    0.4167    0.5000
  band No.  band energies     occupation 
      1      -6.3820      2.00000
      2      -6.3820      2.00000
      3      -6.3820      2.00000
      4      -6.3820      2.00000
      5      -3.5256      2.00000
      6      -3.5256      2.00000
      7      -3.5256      2.00000
      8      -3.5256      2.00000
      9       6.0835      2.00000
     10       6.0835      2.00000
     11       6.0835      2.00000
     12       6.0835      2.00000
     13       6.5509      2.00000
     14       6.5509      2.00000
     15       6.5509      2.00000
     16       6.5509      2.00000
     17      17.2034      0.00000
     18      17.2034      0.00000
     19      17.2034      0.00000
     20      17.2034      0.00000
     21      17.3565      0.00000
     22      17.3565      0.00000
     23      17.3565      0.00000
     24      17.3565      0.00000

 k-point   196 :       0.5000    0.5000    0.5000
  band No.  band energies     occupation 
      1      -6.2463      2.00000
      2      -6.2463      2.00000
      3      -6.2463      2.00000
      4      -6.2463      2.00000
      5      -3.7686      2.00000
      6      -3.7686      2.00000
      7      -3.7686      2.00000
      8      -3.7686      2.00000
      9       6.2650      2.00000
     10       6.2650      2.00000
     11       6.2650      2.00000
     12       6.2650      2.00000
     13       6.6027      2.00000
     14       6.6027      2.00000
     15       6.6027      2.00000
     16       6.6027      2.00000
     17      17.0645      0.00000
     18      17.0645      0.00000
     19      17.0645      0.00000
     20      17.0645      0.00000
     21      17.3220      0.00000
     22      17.3220      0.00000
     23      17.3220      0.00000
     24      17.3221      0.00000


--------------------------------------------------------------------------------------------------------


 soft charge-density along one line, spin component           1
         0         1         2         3         4         5         6         7         8         9
 total charge-density along one line
 
 pseudopotential strength for first ion, spin component:           1
  9.474  -0.004   0.000   0.000  -0.000  -0.000  -0.000   0.000
 -0.004  -0.002  -0.000  -0.000   0.000  -0.000  -0.000   0.000
  0.000  -0.000  -3.696   0.000  -0.000  -0.007   0.000  -0.000
  0.000  -0.000   0.000  -3.696   0.000   0.000  -0.007   0.000
 -0.000   0.000  -0.000   0.000  -3.696  -0.000   0.000  -0.007
 -0.000  -0.000  -0.007   0.000  -0.000  -0.758   0.000  -0.000
 -0.000  -0.000   0.000  -0.007   0.000   0.000  -0.758   0.000
  0.000   0.000  -0.000   0.000  -0.007  -0.000   0.000  -0.758
 total augmentation occupancy for first ion, spin component:           1
  1.419  -0.974   0.000   0.000  -0.000   0.000   0.000   0.000
 -0.974   0.942   0.000   0.000  -0.000   0.000   0.000   0.000
  0.000  -0.000   1.072   0.000  -0.000   0.178   0.000  -0.000
  0.000   0.000  -0.000   1.078  -0.000   0.000   0.176  -0.000
 -0.000   0.000   0.000  -0.000   1.072   0.000  -0.000   0.178
  0.000  -0.000   0.178  -0.000   0.000   0.034   0.000   0.000
 -0.000   0.000   0.000   0.176  -0.000   0.000   0.034   0.000
  0.000   0.000  -0.000  -0.000   0.178   0.000   0.000   0.034


------------------------ aborting loop because EDIFF is reached ----------------------------------------


    CHARGE:  cpu time    0.3326: real time    0.3326
    FORLOC:  cpu time    0.0021: real time    0.0021
    FORNL :  cpu time    0.5011: real time    0.5011
    STRESS:  cpu time    1.1620: real time    1.1623
    FORHAR:  cpu time    0.0057: real time    0.0057
    MIXING:  cpu time    0.0020: real time    0.0020
    OFIELD:  cpu time    0.0001: real time    0.0001

  FORCE on cell =-STRESS in cart. coord.  units (eV):
  Direction    XX          YY          ZZ          XY          YZ          ZX
  --------------------------------------------------------------------------------------
  Alpha Z   109.86028   109.86028   109.86028
  Ewald    -452.95239  -452.95239  -465.27974     0.00000     0.00000     0.00000
  Hartree    36.89619    36.89619    34.19309    -0.00000    -0.00000    -0.00000
  E(xc)    -118.45820  -118.45820  -118.54946    -0.00000    -0.00000     0.00000
  Local     -54.43966   -54.43966   -40.30390    -0.00000     0.00000     0.00000
  n-local   -26.33825   -26.28572   -26.85560     0.63313     0.70507     0.60016
  augment    -2.67691    -2.67691    -2.66855    -0.00000     0.00000     0.00000
  Kinetic   495.86630   505.02861   507.00587    -4.74342    -5.41108    -4.22719
  Fock        0.00000     0.00000     0.00000     0.00000     0.00000     0.00000
  -------------------------------------------------------------------------------------
  Total      -7.63522    -7.63522    -2.59801     0.00000     0.00000     0.00000
  in kB    -257.71567  -257.71567   -87.69214     0.00000     0.00000     0.00000
  external pressure =     -201.04 kB  Pullay stress =        0.00 kB


 VOLUME and BASIS-vectors are now :
 -----------------------------------------------------------------------------
  energy-cutoff  :      400.00
  volume of cell :       47.47
      direct lattice vectors                 reciprocal lattice vectors
     3.644483000  0.000000000  0.000000000     0.274387341  0.000000000  0.000000000
     0.000000000  3.644483000  0.000000000     0.000000000  0.274387341  0.000000000
     0.000000000  0.000000000  3.573710000     0.000000000  0.000000000  0.279821250

  length of vectors
     3.644483000  3.644483000  3.573710000     0.274387341  0.274387341  0.279821250


 FORCES acting on ions
    electron-ion (+dipol)            ewald-force                    non-local-force                 convergence-correction
 -----------------------------------------------------------------------------------------------
   0.234E-13 -.140E-12 0.486E-14   -.355E-13 -.284E-13 -.711E-14   0.270E-16 0.379E-17 -.733E-17   -.488E-14 0.930E-15 0.330E-14
   0.780E-14 -.365E-14 0.192E-13   -.152E-13 -.153E-13 -.709E-14   0.251E-17 0.670E-18 0.946E-18   0.219E-14 0.132E-14 -.364E-14
   0.156E-13 -.169E-12 0.267E-13   -.213E-13 -.142E-13 -.142E-13   0.420E-17 -.407E-17 0.147E-16   -.527E-14 0.687E-15 0.323E-14
   0.780E-14 0.261E-13 -.800E-14   -.282E-14 0.364E-17 -.142E-13   -.105E-16 0.453E-18 0.414E-17   0.326E-14 -.137E-14 -.971E-15
   0.390E-13 0.211E-12 0.394E-12   0.000E+00 0.000E+00 0.142E-13   0.990E-17 -.601E-19 -.305E-17   0.107E-13 0.203E-14 0.285E-14
   0.780E-14 -.341E-14 -.430E-12   0.284E-13 0.127E-13 0.142E-13   -.262E-16 -.439E-18 0.536E-17   -.163E-14 0.164E-14 -.513E-15
   0.390E-13 -.193E-12 -.936E-14   0.142E-13 0.142E-13 0.711E-14   0.365E-17 -.217E-18 -.966E-17   0.102E-13 -.505E-15 0.285E-14
   0.780E-14 0.377E-12 0.111E-13   0.427E-13 0.283E-13 0.706E-14   -.405E-17 0.762E-17 -.970E-17   -.308E-14 -.974E-15 -.403E-14
 -----------------------------------------------------------------------------------------------
   0.148E-12 0.105E-12 0.801E-14   0.104E-13 -.265E-14 -.173E-16   0.650E-17 0.775E-17 -.461E-17   0.114E-13 0.375E-14 0.308E-14
 
 
 POSITION                                       TOTAL-FORCE (eV/Angst)
 -----------------------------------------------------------------------------------
      0.91112      2.73336      0.89343        -0.000000      0.000000      0.000000
      0.00000      0.00000      1.78686         0.000000     -0.000000      0.000000
      0.91112      0.91112      2.68028         0.000000      0.000000     -0.000000
      0.00000      1.82224      0.00000        -0.000000     -0.000000      0.000000
      2.73336      2.73336      2.68028        -0.000000      0.000000     -0.000000
      1.82224      0.00000      0.00000        -0.000000     -0.000000      0.000000
      2.73336      0.91112      0.89343         0.000000      0.000000     -0.000000
      1.82224      1.82224      1.78686         0.000000     -0.000000     -0.000000
 -----------------------------------------------------------------------------------
    total drift:                                0.000000      0.000000      0.000000


--------------------------------------------------------------------------------------------------------



  FREE ENERGIE OF THE ION-ELECTRON SYSTEM (eV)
  ---------------------------------------------------
  free  energy   TOTEN  =       -72.61983307 eV

  energy  without entropy=      -72.61983307  energy(sigma->0) =      -72.61983307
 


--------------------------------------------------------------------------------------------------------


    POTLOK:  cpu time    0.0389: real time    0.0390


--------------------------------------------------------------------------------------------------------


     LOOP+:  cpu time  163.6591: real time  163.6892
    4ORBIT:  cpu time    0.0000: real time    0.0000
 BZINTS: Fermi energy:  9.434175; 32.000000 electrons
         Band energy:  13.272643;  BLOECHL correction:  0.000000

 total amount of memory used by VASP MPI-rank0    38185. kBytes
=======================================================================

   base      :      30000. kBytes
   nonl-proj :       2838. kBytes
   fftplans  :        345. kBytes
   grid      :        481. kBytes
   one-center:          6. kBytes
   wavefun   :       4515. kBytes
 
  
  
 General timing and accounting informations for this job:
 ========================================================
  
                  Total CPU time used (sec):      167.758
                            User time (sec):      163.586
                          System time (sec):        4.172
                         Elapsed time (sec):      167.861
  
                   Maximum memory used (kb):      195736.
                   Average memory used (kb):           0.
  
                          Minor page faults:        36892
                          Major page faults:           36
                 Voluntary context switches:          787
