   8   8   0   0
  0.5248748E+01  0.3427782E-09  0.3427782E-09  0.3573710E-09  0.2000000E-16
  1.000000000000000E-004
  CAR 
 unknown system                          
     25.03952270    -13.37895625  301     11.21687413      1.00000000
    -13.379  0.0000E+00  0.0000E+00
    -13.251  0.0000E+00  0.0000E+00
    -13.123  0.0000E+00  0.0000E+00
    -12.995  0.0000E+00  0.0000E+00
    -12.867  0.0000E+00  0.0000E+00
    -12.739  0.0000E+00  0.0000E+00
    -12.611  0.0000E+00  0.0000E+00
    -12.483  0.0000E+00  0.0000E+00
    -12.354  0.0000E+00  0.0000E+00
    -12.226  0.0000E+00  0.0000E+00
    -12.098  0.0000E+00  0.0000E+00
    -11.970  0.0000E+00  0.0000E+00
    -11.842  0.0000E+00  0.0000E+00
    -11.714  0.0000E+00  0.0000E+00
    -11.586  0.3252E-01  0.5048E-03
    -11.458  0.1451E+00  0.1478E-01
    -11.330  0.2267E+00  0.3855E-01
    -11.202  0.2568E+00  0.6925E-01
    -11.074  0.3014E+00  0.1050E+00
    -10.946  0.3402E+00  0.1464E+00
    -10.818  0.3667E+00  0.1916E+00
    -10.690  0.3955E+00  0.2403E+00
    -10.562  0.4300E+00  0.2932E+00
    -10.434  0.4539E+00  0.3500E+00
    -10.305  0.4753E+00  0.4095E+00
    -10.177  0.4991E+00  0.4718E+00
    -10.049  0.5255E+00  0.5374E+00
     -9.921  0.5491E+00  0.6062E+00
     -9.793  0.5687E+00  0.6779E+00
     -9.665  0.5878E+00  0.7520E+00
     -9.537  0.6076E+00  0.8285E+00
     -9.409  0.6285E+00  0.9076E+00
     -9.281  0.6498E+00  0.9895E+00
     -9.153  0.6707E+00  0.1074E+01
     -9.025  0.6873E+00  0.1161E+01
     -8.897  0.7040E+00  0.1250E+01
     -8.769  0.7218E+00  0.1341E+01
     -8.641  0.7406E+00  0.1435E+01
     -8.513  0.7599E+00  0.1531E+01
     -8.385  0.7780E+00  0.1630E+01
     -8.256  0.7966E+00  0.1730E+01
     -8.128  0.8124E+00  0.1833E+01
     -8.000  0.8291E+00  0.1939E+01
     -7.872  0.8467E+00  0.2046E+01
     -7.744  0.8649E+00  0.2155E+01
     -7.616  0.8969E+00  0.2268E+01
     -7.488  0.9326E+00  0.2385E+01
     -7.360  0.9797E+00  0.2508E+01
     -7.232  0.1011E+01  0.2636E+01
     -7.104  0.1025E+01  0.2766E+01
     -6.976  0.1009E+01  0.2897E+01
     -6.848  0.9800E+00  0.3024E+01
     -6.720  0.9831E+00  0.3150E+01
     -6.592  0.9830E+00  0.3276E+01
     -6.464  0.9839E+00  0.3401E+01
     -6.336  0.1004E+01  0.3529E+01
     -6.208  0.1052E+01  0.3660E+01
     -6.079  0.1103E+01  0.3798E+01
     -5.951  0.1152E+01  0.3943E+01
     -5.823  0.1157E+01  0.4090E+01
     -5.695  0.1221E+01  0.4241E+01
     -5.567  0.1304E+01  0.4401E+01
     -5.439  0.1463E+01  0.4579E+01
     -5.311  0.1543E+01  0.4773E+01
     -5.183  0.1436E+01  0.4961E+01
     -5.055  0.1565E+01  0.5143E+01
     -4.927  0.1273E+01  0.5315E+01
     -4.799  0.1290E+01  0.5478E+01
     -4.671  0.1299E+01  0.5644E+01
     -4.543  0.1331E+01  0.5813E+01
     -4.415  0.1200E+01  0.5973E+01
     -4.287  0.1142E+01  0.6121E+01
     -4.159  0.1124E+01  0.6267E+01
     -4.030  0.1089E+01  0.6408E+01
     -3.902  0.1089E+01  0.6547E+01
     -3.774  0.1034E+01  0.6685E+01
     -3.646  0.9901E+00  0.6815E+01
     -3.518  0.9779E+00  0.6939E+01
     -3.390  0.9389E+00  0.7063E+01
     -3.262  0.9206E+00  0.7181E+01
     -3.134  0.1043E+01  0.7305E+01
     -3.006  0.1078E+01  0.7443E+01
     -2.878  0.1204E+01  0.7586E+01
     -2.750  0.1114E+01  0.7733E+01
     -2.622  0.1082E+01  0.7874E+01
     -2.494  0.1083E+01  0.8011E+01
     -2.366  0.1099E+01  0.8152E+01
     -2.238  0.1077E+01  0.8292E+01
     -2.110  0.1103E+01  0.8430E+01
     -1.981  0.1015E+01  0.8564E+01
     -1.853  0.1086E+01  0.8698E+01
     -1.725  0.1168E+01  0.8843E+01
     -1.597  0.1300E+01  0.9000E+01
     -1.469  0.1487E+01  0.9179E+01
     -1.341  0.1780E+01  0.9387E+01
     -1.213  0.1988E+01  0.9629E+01
     -1.085  0.2373E+01  0.9906E+01
     -0.957  0.2290E+01  0.1022E+02
     -0.829  0.2065E+01  0.1049E+02
     -0.701  0.1851E+01  0.1074E+02
     -0.573  0.1670E+01  0.1097E+02
     -0.445  0.1516E+01  0.1117E+02
     -0.317  0.1428E+01  0.1136E+02
     -0.189  0.1360E+01  0.1154E+02
     -0.061  0.1313E+01  0.1171E+02
      0.068  0.1296E+01  0.1188E+02
      0.196  0.1250E+01  0.1204E+02
      0.324  0.1194E+01  0.1220E+02
      0.452  0.1144E+01  0.1235E+02
      0.580  0.1151E+01  0.1250E+02
      0.708  0.1134E+01  0.1264E+02
      0.836  0.1139E+01  0.1279E+02
      0.964  0.1127E+01  0.1293E+02
      1.092  0.1264E+01  0.1308E+02
      1.220  0.1478E+01  0.1326E+02
      1.348  0.1848E+01  0.1347E+02
      1.476  0.2055E+01  0.1372E+02
      1.604  0.2114E+01  0.1400E+02
      1.732  0.2026E+01  0.1426E+02
      1.860  0.1922E+01  0.1452E+02
      1.988  0.2004E+01  0.1477E+02
      2.116  0.2108E+01  0.1503E+02
      2.245  0.1991E+01  0.1530E+02
      2.373  0.1698E+01  0.1553E+02
      2.501  0.1333E+01  0.1573E+02
      2.629  0.1541E+01  0.1591E+02
      2.757  0.1858E+01  0.1612E+02
      2.885  0.2138E+01  0.1638E+02
      3.013  0.2189E+01  0.1666E+02
      3.141  0.2228E+01  0.1694E+02
      3.269  0.2292E+01  0.1723E+02
      3.397  0.2246E+01  0.1752E+02
      3.525  0.2312E+01  0.1781E+02
      3.653  0.2594E+01  0.1812E+02
      3.781  0.2719E+01  0.1847E+02
      3.909  0.2748E+01  0.1882E+02
      4.037  0.2868E+01  0.1918E+02
      4.165  0.2459E+01  0.1952E+02
      4.294  0.2354E+01  0.1983E+02
      4.422  0.2574E+01  0.2014E+02
      4.550  0.2937E+01  0.2049E+02
      4.678  0.3227E+01  0.2089E+02
      4.806  0.3172E+01  0.2130E+02
      4.934  0.3036E+01  0.2169E+02
      5.062  0.2928E+01  0.2208E+02
      5.190  0.2794E+01  0.2244E+02
      5.318  0.2753E+01  0.2280E+02
      5.446  0.2597E+01  0.2314E+02
      5.574  0.2494E+01  0.2347E+02
      5.702  0.2525E+01  0.2379E+02
      5.830  0.2925E+01  0.2413E+02
      5.958  0.2872E+01  0.2450E+02
      6.086  0.2810E+01  0.2487E+02
      6.214  0.2798E+01  0.2523E+02
      6.343  0.2758E+01  0.2558E+02
      6.471  0.2492E+01  0.2592E+02
      6.599  0.2286E+01  0.2623E+02
      6.727  0.2269E+01  0.2652E+02
      6.855  0.2365E+01  0.2681E+02
      6.983  0.2419E+01  0.2712E+02
      7.111  0.2523E+01  0.2744E+02
      7.239  0.2492E+01  0.2776E+02
      7.367  0.2451E+01  0.2808E+02
      7.495  0.2221E+01  0.2838E+02
      7.623  0.2229E+01  0.2867E+02
      7.751  0.2323E+01  0.2896E+02
      7.879  0.2126E+01  0.2925E+02
      8.007  0.1904E+01  0.2951E+02
      8.135  0.1762E+01  0.2974E+02
      8.263  0.1723E+01  0.2997E+02
      8.392  0.1596E+01  0.3018E+02
      8.520  0.1383E+01  0.3037E+02
      8.648  0.1271E+01  0.3054E+02
      8.776  0.1181E+01  0.3070E+02
      8.904  0.1069E+01  0.3084E+02
      9.032  0.9945E+00  0.3097E+02
      9.160  0.9342E+00  0.3110E+02
      9.288  0.8728E+00  0.3121E+02
      9.416  0.8086E+00  0.3132E+02
      9.544  0.7309E+00  0.3142E+02
      9.672  0.6610E+00  0.3151E+02
      9.800  0.5995E+00  0.3159E+02
      9.928  0.5647E+00  0.3166E+02
     10.056  0.5046E+00  0.3173E+02
     10.184  0.4396E+00  0.3179E+02
     10.312  0.3621E+00  0.3184E+02
     10.441  0.3181E+00  0.3189E+02
     10.569  0.2481E+00  0.3192E+02
     10.697  0.2120E+00  0.3195E+02
     10.825  0.1504E+00  0.3198E+02
     10.953  0.8914E-01  0.3199E+02
     11.081  0.1390E-01  0.3200E+02
     11.209  0.0000E+00  0.3200E+02
     11.337  0.0000E+00  0.3200E+02
     11.465  0.0000E+00  0.3200E+02
     11.593  0.0000E+00  0.3200E+02
     11.721  0.0000E+00  0.3200E+02
     11.849  0.0000E+00  0.3200E+02
     11.977  0.0000E+00  0.3200E+02
     12.105  0.0000E+00  0.3200E+02
     12.233  0.0000E+00  0.3200E+02
     12.361  0.0000E+00  0.3200E+02
     12.489  0.0000E+00  0.3200E+02
     12.618  0.0000E+00  0.3200E+02
     12.746  0.0000E+00  0.3200E+02
     12.874  0.0000E+00  0.3200E+02
     13.002  0.0000E+00  0.3200E+02
     13.130  0.0000E+00  0.3200E+02
     13.258  0.0000E+00  0.3200E+02
     13.386  0.0000E+00  0.3200E+02
     13.514  0.0000E+00  0.3200E+02
     13.642  0.0000E+00  0.3200E+02
     13.770  0.0000E+00  0.3200E+02
     13.898  0.0000E+00  0.3200E+02
     14.026  0.0000E+00  0.3200E+02
     14.154  0.0000E+00  0.3200E+02
     14.282  0.0000E+00  0.3200E+02
     14.410  0.0000E+00  0.3200E+02
     14.538  0.0000E+00  0.3200E+02
     14.667  0.0000E+00  0.3200E+02
     14.795  0.0000E+00  0.3200E+02
     14.923  0.4818E-02  0.3200E+02
     15.051  0.8082E-01  0.3200E+02
     15.179  0.2060E+00  0.3202E+02
     15.307  0.3285E+00  0.3206E+02
     15.435  0.3716E+00  0.3210E+02
     15.563  0.4142E+00  0.3215E+02
     15.691  0.5215E+00  0.3221E+02
     15.819  0.5777E+00  0.3228E+02
     15.947  0.7488E+00  0.3236E+02
     16.075  0.9264E+00  0.3248E+02
     16.203  0.9680E+00  0.3260E+02
     16.331  0.1089E+01  0.3273E+02
     16.459  0.1111E+01  0.3287E+02
     16.587  0.1198E+01  0.3302E+02
     16.716  0.1344E+01  0.3318E+02
     16.844  0.1551E+01  0.3337E+02
     16.972  0.1757E+01  0.3358E+02
     17.100  0.1921E+01  0.3382E+02
     17.228  0.1776E+01  0.3405E+02
     17.356  0.1788E+01  0.3428E+02
     17.484  0.1832E+01  0.3451E+02
     17.612  0.1923E+01  0.3475E+02
     17.740  0.2032E+01  0.3500E+02
     17.868  0.2139E+01  0.3527E+02
     17.996  0.2284E+01  0.3555E+02
     18.124  0.2298E+01  0.3585E+02
     18.252  0.2381E+01  0.3614E+02
     18.380  0.2521E+01  0.3646E+02
     18.508  0.2602E+01  0.3679E+02
     18.636  0.2750E+01  0.3713E+02
     18.765  0.3082E+01  0.3750E+02
     18.893  0.3228E+01  0.3791E+02
     19.021  0.3598E+01  0.3834E+02
     19.149  0.4306E+01  0.3884E+02
     19.277  0.4553E+01  0.3943E+02
     19.405  0.3243E+01  0.3990E+02
     19.533  0.2972E+01  0.4029E+02
     19.661  0.2617E+01  0.4064E+02
     19.789  0.3191E+01  0.4100E+02
     19.917  0.3418E+01  0.4142E+02
     20.045  0.3183E+01  0.4183E+02
     20.173  0.2992E+01  0.4223E+02
     20.301  0.2789E+01  0.4260E+02
     20.429  0.2738E+01  0.4296E+02
     20.557  0.2756E+01  0.4331E+02
     20.685  0.2895E+01  0.4367E+02
     20.813  0.2780E+01  0.4403E+02
     20.942  0.2677E+01  0.4438E+02
     21.070  0.2804E+01  0.4473E+02
     21.198  0.3138E+01  0.4511E+02
     21.326  0.2914E+01  0.4550E+02
     21.454  0.2678E+01  0.4585E+02
     21.582  0.2532E+01  0.4618E+02
     21.710  0.2566E+01  0.4651E+02
     21.838  0.2312E+01  0.4683E+02
     21.966  0.1980E+01  0.4710E+02
     22.094  0.1660E+01  0.4733E+02
     22.222  0.1350E+01  0.4752E+02
     22.350  0.1247E+01  0.4769E+02
     22.478  0.8331E+00  0.4783E+02
     22.606  0.5095E+00  0.4792E+02
     22.734  0.2490E+00  0.4796E+02
     22.862  0.1102E+00  0.4799E+02
     22.991  0.4537E-01  0.4799E+02
     23.119  0.1804E-01  0.4800E+02
     23.247  0.2640E-02  0.4800E+02
     23.375  0.0000E+00  0.4800E+02
     23.503  0.0000E+00  0.4800E+02
     23.631  0.0000E+00  0.4800E+02
     23.759  0.0000E+00  0.4800E+02
     23.887  0.0000E+00  0.4800E+02
     24.015  0.0000E+00  0.4800E+02
     24.143  0.0000E+00  0.4800E+02
     24.271  0.0000E+00  0.4800E+02
     24.399  0.0000E+00  0.4800E+02
     24.527  0.0000E+00  0.4800E+02
     24.655  0.0000E+00  0.4800E+02
     24.783  0.0000E+00  0.4800E+02
     24.911  0.0000E+00  0.4800E+02
     25.040  0.0000E+00  0.4800E+02
