       N       E                     dE             d eps       ncg     rms          rms(c)
DAV:   1     0.599660066784E+02    0.59966E+02   -0.14598E+04  9408   0.106E+03
DAV:   2    -0.712328136470E+02   -0.13120E+03   -0.12457E+03 12952   0.228E+02
DAV:   3    -0.752817011875E+02   -0.40489E+01   -0.40290E+01 12248   0.372E+01
DAV:   4    -0.753184112432E+02   -0.36710E-01   -0.36678E-01 11696   0.393E+00
DAV:   5    -0.753190657247E+02   -0.65448E-03   -0.65406E-03 12176   0.463E-01    0.104E+01
DAV:   6    -0.729439057461E+02    0.23752E+01   -0.15468E+00 10456   0.726E+00    0.564E+00
DAV:   7    -0.721440526700E+02    0.79985E+00   -0.17111E+00 10856   0.785E+00    0.715E-01
DAV:   8    -0.721523401394E+02   -0.82875E-02   -0.32222E-02 11664   0.106E+00    0.858E-02
DAV:   9    -0.721525365204E+02   -0.19638E-03   -0.42336E-04 11240   0.141E-01    0.293E-02
DAV:  10    -0.721525848601E+02   -0.48340E-04   -0.38034E-05 11712   0.481E-02    0.284E-03
DAV:  11    -0.721525856345E+02   -0.77439E-06   -0.10002E-06  8736   0.722E-03
   1 F= -.72152586E+02 E0= -.72152586E+02  d E =0.000000E+00
