   8   8   0   0
  0.5362850E+01  0.3464840E-09  0.3464840E-09  0.3573710E-09  0.2000000E-16
  1.000000000000000E-004
  CAR 
 unknown system                          
     24.53543095    -13.38213880  301     10.77451293      1.00000000
    -13.382  0.0000E+00  0.0000E+00
    -13.256  0.0000E+00  0.0000E+00
    -13.129  0.0000E+00  0.0000E+00
    -13.003  0.0000E+00  0.0000E+00
    -12.877  0.0000E+00  0.0000E+00
    -12.750  0.0000E+00  0.0000E+00
    -12.624  0.0000E+00  0.0000E+00
    -12.497  0.0000E+00  0.0000E+00
    -12.371  0.0000E+00  0.0000E+00
    -12.245  0.0000E+00  0.0000E+00
    -12.118  0.0000E+00  0.0000E+00
    -11.992  0.0000E+00  0.0000E+00
    -11.865  0.0000E+00  0.0000E+00
    -11.739  0.0000E+00  0.0000E+00
    -11.613  0.3308E-01  0.5068E-03
    -11.486  0.1473E+00  0.1481E-01
    -11.360  0.2304E+00  0.3864E-01
    -11.233  0.2608E+00  0.6941E-01
    -11.107  0.3060E+00  0.1052E+00
    -10.981  0.3451E+00  0.1468E+00
    -10.854  0.3723E+00  0.1920E+00
    -10.728  0.4017E+00  0.2409E+00
    -10.602  0.4374E+00  0.2939E+00
    -10.475  0.4607E+00  0.3508E+00
    -10.349  0.4827E+00  0.4104E+00
    -10.222  0.5070E+00  0.4729E+00
    -10.096  0.5338E+00  0.5387E+00
     -9.970  0.5586E+00  0.6078E+00
     -9.843  0.5778E+00  0.6797E+00
     -9.717  0.5971E+00  0.7539E+00
     -9.590  0.6174E+00  0.8307E+00
     -9.464  0.6388E+00  0.9100E+00
     -9.338  0.6612E+00  0.9922E+00
     -9.211  0.6823E+00  0.1077E+01
     -9.085  0.6987E+00  0.1164E+01
     -8.958  0.7155E+00  0.1254E+01
     -8.832  0.7339E+00  0.1345E+01
     -8.706  0.7532E+00  0.1439E+01
     -8.579  0.7731E+00  0.1536E+01
     -8.453  0.7921E+00  0.1635E+01
     -8.326  0.8107E+00  0.1736E+01
     -8.200  0.8266E+00  0.1839E+01
     -8.074  0.8437E+00  0.1945E+01
     -7.947  0.8618E+00  0.2053E+01
     -7.821  0.8803E+00  0.2163E+01
     -7.695  0.9118E+00  0.2276E+01
     -7.568  0.9571E+00  0.2394E+01
     -7.442  0.9970E+00  0.2517E+01
     -7.315  0.1032E+01  0.2646E+01
     -7.189  0.1040E+01  0.2777E+01
     -7.063  0.1020E+01  0.2908E+01
     -6.936  0.9938E+00  0.3035E+01
     -6.810  0.1003E+01  0.3161E+01
     -6.683  0.1007E+01  0.3288E+01
     -6.557  0.1006E+01  0.3415E+01
     -6.431  0.1028E+01  0.3543E+01
     -6.304  0.1079E+01  0.3676E+01
     -6.178  0.1135E+01  0.3816E+01
     -6.051  0.1191E+01  0.3964E+01
     -5.925  0.1203E+01  0.4115E+01
     -5.799  0.1263E+01  0.4271E+01
     -5.672  0.1379E+01  0.4436E+01
     -5.546  0.1531E+01  0.4621E+01
     -5.419  0.1476E+01  0.4817E+01
     -5.293  0.1447E+01  0.5002E+01
     -5.167  0.1402E+01  0.5186E+01
     -5.040  0.1298E+01  0.5354E+01
     -4.914  0.1300E+01  0.5518E+01
     -4.787  0.1347E+01  0.5685E+01
     -4.661  0.1292E+01  0.5855E+01
     -4.535  0.1168E+01  0.6011E+01
     -4.408  0.1163E+01  0.6158E+01
     -4.282  0.1128E+01  0.6303E+01
     -4.156  0.1112E+01  0.6444E+01
     -4.029  0.1129E+01  0.6585E+01
     -3.903  0.1036E+01  0.6720E+01
     -3.776  0.1005E+01  0.6849E+01
     -3.650  0.9810E+00  0.6975E+01
     -3.524  0.9463E+00  0.7097E+01
     -3.397  0.9095E+00  0.7214E+01
     -3.271  0.9889E+00  0.7331E+01
     -3.144  0.1090E+01  0.7466E+01
     -3.018  0.1115E+01  0.7603E+01
     -2.892  0.1100E+01  0.7745E+01
     -2.765  0.1064E+01  0.7881E+01
     -2.639  0.1036E+01  0.8013E+01
     -2.512  0.1086E+01  0.8149E+01
     -2.386  0.1091E+01  0.8286E+01
     -2.260  0.1016E+01  0.8421E+01
     -2.133  0.9996E+00  0.8547E+01
     -2.007  0.1073E+01  0.8677E+01
     -1.880  0.1176E+01  0.8820E+01
     -1.754  0.1319E+01  0.8977E+01
     -1.628  0.1517E+01  0.9156E+01
     -1.501  0.1813E+01  0.9365E+01
     -1.375  0.2112E+01  0.9614E+01
     -1.249  0.2568E+01  0.9909E+01
     -1.122  0.2397E+01  0.1023E+02
     -0.996  0.2091E+01  0.1052E+02
     -0.869  0.1834E+01  0.1077E+02
     -0.743  0.1645E+01  0.1099E+02
     -0.617  0.1511E+01  0.1119E+02
     -0.490  0.1428E+01  0.1137E+02
     -0.364  0.1361E+01  0.1155E+02
     -0.237  0.1319E+01  0.1172E+02
     -0.111  0.1298E+01  0.1188E+02
      0.015  0.1278E+01  0.1205E+02
      0.142  0.1203E+01  0.1220E+02
      0.268  0.1151E+01  0.1235E+02
      0.395  0.1159E+01  0.1250E+02
      0.521  0.1116E+01  0.1265E+02
      0.647  0.1094E+01  0.1279E+02
      0.774  0.1086E+01  0.1292E+02
      0.900  0.1138E+01  0.1306E+02
      1.027  0.1404E+01  0.1322E+02
      1.153  0.1748E+01  0.1342E+02
      1.279  0.1982E+01  0.1366E+02
      1.406  0.2219E+01  0.1392E+02
      1.532  0.2100E+01  0.1420E+02
      1.658  0.2023E+01  0.1446E+02
      1.785  0.2090E+01  0.1472E+02
      1.911  0.2114E+01  0.1498E+02
      2.038  0.2116E+01  0.1525E+02
      2.164  0.1748E+01  0.1550E+02
      2.290  0.1344E+01  0.1570E+02
      2.417  0.1456E+01  0.1587E+02
      2.543  0.1785E+01  0.1607E+02
      2.670  0.2153E+01  0.1632E+02
      2.796  0.2213E+01  0.1660E+02
      2.922  0.2245E+01  0.1688E+02
      3.049  0.2267E+01  0.1717E+02
      3.175  0.2283E+01  0.1745E+02
      3.302  0.2281E+01  0.1774E+02
      3.428  0.2606E+01  0.1805E+02
      3.554  0.2825E+01  0.1840E+02
      3.681  0.2870E+01  0.1875E+02
      3.807  0.2710E+01  0.1910E+02
      3.934  0.2527E+01  0.1944E+02
      4.060  0.2451E+01  0.1975E+02
      4.186  0.2614E+01  0.2006E+02
      4.313  0.2968E+01  0.2041E+02
      4.439  0.3267E+01  0.2081E+02
      4.566  0.3364E+01  0.2123E+02
      4.692  0.3148E+01  0.2164E+02
      4.818  0.3001E+01  0.2203E+02
      4.945  0.2804E+01  0.2239E+02
      5.071  0.2707E+01  0.2275E+02
      5.197  0.2603E+01  0.2308E+02
      5.324  0.2572E+01  0.2341E+02
      5.450  0.2611E+01  0.2374E+02
      5.577  0.2934E+01  0.2408E+02
      5.703  0.2888E+01  0.2445E+02
      5.829  0.2844E+01  0.2481E+02
      5.956  0.2879E+01  0.2518E+02
      6.082  0.2858E+01  0.2554E+02
      6.209  0.2569E+01  0.2589E+02
      6.335  0.2358E+01  0.2619E+02
      6.461  0.2305E+01  0.2649E+02
      6.588  0.2335E+01  0.2678E+02
      6.714  0.2470E+01  0.2708E+02
      6.841  0.2569E+01  0.2740E+02
      6.967  0.2620E+01  0.2773E+02
      7.093  0.2547E+01  0.2806E+02
      7.220  0.2472E+01  0.2838E+02
      7.346  0.2189E+01  0.2868E+02
      7.473  0.2358E+01  0.2896E+02
      7.599  0.2340E+01  0.2927E+02
      7.725  0.1988E+01  0.2953E+02
      7.852  0.1880E+01  0.2978E+02
      7.978  0.1722E+01  0.3001E+02
      8.104  0.1492E+01  0.3021E+02
      8.231  0.1368E+01  0.3039E+02
      8.357  0.1300E+01  0.3056E+02
      8.484  0.1175E+01  0.3072E+02
      8.610  0.1081E+01  0.3086E+02
      8.736  0.9997E+00  0.3099E+02
      8.863  0.9354E+00  0.3111E+02
      8.989  0.8666E+00  0.3123E+02
      9.116  0.8191E+00  0.3134E+02
      9.242  0.7398E+00  0.3143E+02
      9.368  0.6731E+00  0.3152E+02
      9.495  0.6142E+00  0.3160E+02
      9.621  0.5605E+00  0.3168E+02
      9.748  0.5172E+00  0.3175E+02
      9.874  0.4380E+00  0.3181E+02
     10.000  0.3771E+00  0.3186E+02
     10.127  0.3101E+00  0.3190E+02
     10.253  0.2476E+00  0.3194E+02
     10.380  0.1997E+00  0.3197E+02
     10.506  0.1294E+00  0.3199E+02
     10.632  0.5490E-01  0.3200E+02
     10.759  0.2376E-03  0.3200E+02
     10.885  0.0000E+00  0.3200E+02
     11.011  0.0000E+00  0.3200E+02
     11.138  0.0000E+00  0.3200E+02
     11.264  0.0000E+00  0.3200E+02
     11.391  0.0000E+00  0.3200E+02
     11.517  0.0000E+00  0.3200E+02
     11.643  0.0000E+00  0.3200E+02
     11.770  0.0000E+00  0.3200E+02
     11.896  0.0000E+00  0.3200E+02
     12.023  0.0000E+00  0.3200E+02
     12.149  0.0000E+00  0.3200E+02
     12.275  0.0000E+00  0.3200E+02
     12.402  0.0000E+00  0.3200E+02
     12.528  0.0000E+00  0.3200E+02
     12.655  0.0000E+00  0.3200E+02
     12.781  0.0000E+00  0.3200E+02
     12.907  0.0000E+00  0.3200E+02
     13.034  0.0000E+00  0.3200E+02
     13.160  0.0000E+00  0.3200E+02
     13.287  0.0000E+00  0.3200E+02
     13.413  0.0000E+00  0.3200E+02
     13.539  0.0000E+00  0.3200E+02
     13.666  0.0000E+00  0.3200E+02
     13.792  0.0000E+00  0.3200E+02
     13.919  0.0000E+00  0.3200E+02
     14.045  0.0000E+00  0.3200E+02
     14.171  0.0000E+00  0.3200E+02
     14.298  0.0000E+00  0.3200E+02
     14.424  0.0000E+00  0.3200E+02
     14.550  0.0000E+00  0.3200E+02
     14.677  0.2619E-01  0.3200E+02
     14.803  0.1230E+00  0.3201E+02
     14.930  0.2721E+00  0.3203E+02
     15.056  0.3539E+00  0.3207E+02
     15.182  0.3705E+00  0.3212E+02
     15.309  0.4679E+00  0.3217E+02
     15.435  0.5801E+00  0.3224E+02
     15.562  0.7022E+00  0.3232E+02
     15.688  0.1058E+01  0.3242E+02
     15.814  0.1013E+01  0.3256E+02
     15.941  0.1139E+01  0.3269E+02
     16.067  0.1163E+01  0.3284E+02
     16.194  0.1247E+01  0.3299E+02
     16.320  0.1388E+01  0.3316E+02
     16.446  0.1712E+01  0.3335E+02
     16.573  0.1703E+01  0.3356E+02
     16.699  0.1781E+01  0.3378E+02
     16.826  0.1835E+01  0.3401E+02
     16.952  0.1855E+01  0.3425E+02
     17.078  0.1895E+01  0.3449E+02
     17.205  0.1981E+01  0.3473E+02
     17.331  0.2058E+01  0.3499E+02
     17.457  0.2147E+01  0.3525E+02
     17.584  0.2248E+01  0.3553E+02
     17.710  0.2320E+01  0.3582E+02
     17.837  0.2353E+01  0.3611E+02
     17.963  0.2517E+01  0.3642E+02
     18.089  0.2584E+01  0.3674E+02
     18.216  0.2690E+01  0.3708E+02
     18.342  0.2931E+01  0.3743E+02
     18.469  0.3157E+01  0.3782E+02
     18.595  0.3283E+01  0.3822E+02
     18.721  0.3821E+01  0.3866E+02
     18.848  0.4188E+01  0.3917E+02
     18.974  0.4381E+01  0.3979E+02
     19.101  0.3328E+01  0.4025E+02
     19.227  0.2709E+01  0.4065E+02
     19.353  0.2809E+01  0.4098E+02
     19.480  0.3290E+01  0.4139E+02
     19.606  0.3102E+01  0.4178E+02
     19.733  0.3097E+01  0.4218E+02
     19.859  0.2963E+01  0.4257E+02
     19.985  0.3088E+01  0.4294E+02
     20.112  0.3324E+01  0.4335E+02
     20.238  0.2991E+01  0.4374E+02
     20.364  0.2993E+01  0.4412E+02
     20.491  0.2924E+01  0.4449E+02
     20.617  0.2942E+01  0.4486E+02
     20.744  0.2877E+01  0.4523E+02
     20.870  0.2721E+01  0.4558E+02
     20.996  0.2655E+01  0.4592E+02
     21.123  0.2577E+01  0.4626E+02
     21.249  0.2623E+01  0.4658E+02
     21.376  0.2443E+01  0.4691E+02
     21.502  0.2059E+01  0.4720E+02
     21.628  0.1604E+01  0.4743E+02
     21.755  0.1382E+01  0.4761E+02
     21.881  0.1106E+01  0.4777E+02
     22.008  0.6394E+00  0.4788E+02
     22.134  0.3149E+00  0.4794E+02
     22.260  0.1726E+00  0.4797E+02
     22.387  0.9902E-01  0.4799E+02
     22.513  0.4893E-01  0.4799E+02
     22.640  0.1637E-01  0.4800E+02
     22.766  0.2534E-02  0.4800E+02
     22.892  0.0000E+00  0.4800E+02
     23.019  0.0000E+00  0.4800E+02
     23.145  0.0000E+00  0.4800E+02
     23.272  0.0000E+00  0.4800E+02
     23.398  0.0000E+00  0.4800E+02
     23.524  0.0000E+00  0.4800E+02
     23.651  0.0000E+00  0.4800E+02
     23.777  0.0000E+00  0.4800E+02
     23.903  0.0000E+00  0.4800E+02
     24.030  0.0000E+00  0.4800E+02
     24.156  0.0000E+00  0.4800E+02
     24.283  0.0000E+00  0.4800E+02
     24.409  0.0000E+00  0.4800E+02
     24.535  0.0000E+00  0.4800E+02
