<?xml version="1.0" encoding="ISO-8859-1"?>
<modeling>
 <generator>
  <i name="program" type="string">vasp </i>
  <i name="version" type="string">5.4.4.18Apr17-6-g9f103f2a35  </i>
  <i name="subversion" type="string">(build Mar 12 2022 03:36:41) complex            parallel </i>
  <i name="platform" type="string">IFC19.0.3.199_CrayMPICH7.7.19 </i>
  <i name="date" type="string">2022 11 30 </i>
  <i name="time" type="string">12:14:19 </i>
 </generator>
 <incar>
  <i type="int" name="ISTART">     0</i>
  <i type="string" name="PREC">accurate</i>
  <i name="EDIFF">      0.00000100</i>
  <i name="POTIM">      0.02000000</i>
  <i type="int" name="ISMEAR">    -5</i>
  <i name="SIGMA">      0.06000000</i>
  <i type="logical" name="LWAVE"> F  </i>
  <i type="logical" name="LCHARG"> F  </i>
  <v type="int" name="KPOINT_BSE">    -1     0     0     0</v>
 </incar>
 <structure name="primitive_cell" >
  <crystal>
   <varray name="basis" >
    <v>       0.00000000      -1.73242000       1.78685500 </v>
    <v>       0.00000000       1.73242000       1.78685500 </v>
    <v>      -1.73242000       0.00000000      -1.78685500 </v>
   </varray>
   <i name="volume">     10.72570098 </i>
   <varray name="rec_basis" >
    <v>      -0.28861362      -0.28861362       0.27982125 </v>
    <v>      -0.28861362       0.28861362       0.27982125 </v>
    <v>      -0.57722723       0.00000000       0.00000000 </v>
   </varray>
  </crystal>
  <varray name="positions" >
   <v>       0.25000000      -0.25000000      -0.50000000 </v>
   <v>      -0.50000000      -0.50000000       0.00000000 </v>
  </varray>
 </structure>
 <varray name="primitive_index" >
  <v type="int" >        1 </v>
  <v type="int" >        2 </v>
 </varray>
 <kpoints>
  <generation param="Gamma">
   <v type="int" name="divisions">      12       12       12 </v>
   <v name="usershift">      0.00000000       0.00000000       0.00000000 </v>
   <v name="genvec1">      0.08333333       0.00000000       0.00000000 </v>
   <v name="genvec2">      0.00000000       0.08333333       0.00000000 </v>
   <v name="genvec3">      0.00000000       0.00000000       0.08333333 </v>
   <v name="shift">      0.00000000       0.00000000       0.00000000 </v>
  </generation>
  <varray name="kpointlist" >
   <v>       0.00000000       0.00000000       0.00000000 </v>
   <v>       0.08333333       0.00000000       0.00000000 </v>
   <v>       0.16666667       0.00000000       0.00000000 </v>
   <v>       0.25000000       0.00000000       0.00000000 </v>
   <v>       0.33333333       0.00000000       0.00000000 </v>
   <v>       0.41666667       0.00000000       0.00000000 </v>
   <v>       0.50000000       0.00000000       0.00000000 </v>
   <v>       0.08333333       0.08333333       0.00000000 </v>
   <v>       0.16666667       0.08333333       0.00000000 </v>
   <v>       0.25000000       0.08333333       0.00000000 </v>
   <v>       0.33333333       0.08333333       0.00000000 </v>
   <v>       0.41666667       0.08333333       0.00000000 </v>
   <v>       0.50000000       0.08333333       0.00000000 </v>
   <v>       0.16666667       0.16666667       0.00000000 </v>
   <v>       0.25000000       0.16666667       0.00000000 </v>
   <v>       0.33333333       0.16666667       0.00000000 </v>
   <v>       0.41666667       0.16666667       0.00000000 </v>
   <v>       0.50000000       0.16666667       0.00000000 </v>
   <v>       0.25000000       0.25000000       0.00000000 </v>
   <v>       0.33333333       0.25000000       0.00000000 </v>
   <v>       0.41666667       0.25000000       0.00000000 </v>
   <v>       0.50000000       0.25000000       0.00000000 </v>
   <v>       0.33333333       0.33333333       0.00000000 </v>
   <v>       0.41666667       0.33333333       0.00000000 </v>
   <v>       0.50000000       0.33333333       0.00000000 </v>
   <v>       0.41666667       0.41666667       0.00000000 </v>
   <v>       0.50000000       0.41666667       0.00000000 </v>
   <v>       0.50000000       0.50000000       0.00000000 </v>
   <v>       0.00000000       0.00000000       0.08333333 </v>
   <v>       0.08333333       0.00000000       0.08333333 </v>
   <v>       0.16666667       0.00000000       0.08333333 </v>
   <v>       0.25000000       0.00000000       0.08333333 </v>
   <v>       0.33333333       0.00000000       0.08333333 </v>
   <v>       0.41666667       0.00000000       0.08333333 </v>
   <v>       0.50000000       0.00000000       0.08333333 </v>
   <v>       0.08333333       0.08333333       0.08333333 </v>
   <v>       0.16666667       0.08333333       0.08333333 </v>
   <v>       0.25000000       0.08333333       0.08333333 </v>
   <v>       0.33333333       0.08333333       0.08333333 </v>
   <v>       0.41666667       0.08333333       0.08333333 </v>
   <v>       0.50000000       0.08333333       0.08333333 </v>
   <v>       0.16666667       0.16666667       0.08333333 </v>
   <v>       0.25000000       0.16666667       0.08333333 </v>
   <v>       0.33333333       0.16666667       0.08333333 </v>
   <v>       0.41666667       0.16666667       0.08333333 </v>
   <v>       0.50000000       0.16666667       0.08333333 </v>
   <v>       0.25000000       0.25000000       0.08333333 </v>
   <v>       0.33333333       0.25000000       0.08333333 </v>
   <v>       0.41666667       0.25000000       0.08333333 </v>
   <v>       0.50000000       0.25000000       0.08333333 </v>
   <v>       0.33333333       0.33333333       0.08333333 </v>
   <v>       0.41666667       0.33333333       0.08333333 </v>
   <v>       0.50000000       0.33333333       0.08333333 </v>
   <v>       0.41666667       0.41666667       0.08333333 </v>
   <v>       0.50000000       0.41666667       0.08333333 </v>
   <v>       0.50000000       0.50000000       0.08333333 </v>
   <v>       0.00000000       0.00000000       0.16666667 </v>
   <v>       0.08333333       0.00000000       0.16666667 </v>
   <v>       0.16666667       0.00000000       0.16666667 </v>
   <v>       0.25000000       0.00000000       0.16666667 </v>
   <v>       0.33333333       0.00000000       0.16666667 </v>
   <v>       0.41666667       0.00000000       0.16666667 </v>
   <v>       0.50000000       0.00000000       0.16666667 </v>
   <v>       0.08333333       0.08333333       0.16666667 </v>
   <v>       0.16666667       0.08333333       0.16666667 </v>
   <v>       0.25000000       0.08333333       0.16666667 </v>
   <v>       0.33333333       0.08333333       0.16666667 </v>
   <v>       0.41666667       0.08333333       0.16666667 </v>
   <v>       0.50000000       0.08333333       0.16666667 </v>
   <v>       0.16666667       0.16666667       0.16666667 </v>
   <v>       0.25000000       0.16666667       0.16666667 </v>
   <v>       0.33333333       0.16666667       0.16666667 </v>
   <v>       0.41666667       0.16666667       0.16666667 </v>
   <v>       0.50000000       0.16666667       0.16666667 </v>
   <v>       0.25000000       0.25000000       0.16666667 </v>
   <v>       0.33333333       0.25000000       0.16666667 </v>
   <v>       0.41666667       0.25000000       0.16666667 </v>
   <v>       0.50000000       0.25000000       0.16666667 </v>
   <v>       0.33333333       0.33333333       0.16666667 </v>
   <v>       0.41666667       0.33333333       0.16666667 </v>
   <v>       0.50000000       0.33333333       0.16666667 </v>
   <v>       0.41666667       0.41666667       0.16666667 </v>
   <v>       0.50000000       0.41666667       0.16666667 </v>
   <v>       0.50000000       0.50000000       0.16666667 </v>
   <v>       0.00000000       0.00000000       0.25000000 </v>
   <v>       0.08333333       0.00000000       0.25000000 </v>
   <v>       0.16666667       0.00000000       0.25000000 </v>
   <v>       0.25000000       0.00000000       0.25000000 </v>
   <v>       0.33333333       0.00000000       0.25000000 </v>
   <v>       0.41666667       0.00000000       0.25000000 </v>
   <v>       0.50000000       0.00000000       0.25000000 </v>
   <v>       0.08333333       0.08333333       0.25000000 </v>
   <v>       0.16666667       0.08333333       0.25000000 </v>
   <v>       0.25000000       0.08333333       0.25000000 </v>
   <v>       0.33333333       0.08333333       0.25000000 </v>
   <v>       0.41666667       0.08333333       0.25000000 </v>
   <v>       0.50000000       0.08333333       0.25000000 </v>
   <v>       0.16666667       0.16666667       0.25000000 </v>
   <v>       0.25000000       0.16666667       0.25000000 </v>
   <v>       0.33333333       0.16666667       0.25000000 </v>
   <v>       0.41666667       0.16666667       0.25000000 </v>
   <v>       0.50000000       0.16666667       0.25000000 </v>
   <v>       0.25000000       0.25000000       0.25000000 </v>
   <v>       0.33333333       0.25000000       0.25000000 </v>
   <v>       0.41666667       0.25000000       0.25000000 </v>
   <v>       0.50000000       0.25000000       0.25000000 </v>
   <v>       0.33333333       0.33333333       0.25000000 </v>
   <v>       0.41666667       0.33333333       0.25000000 </v>
   <v>       0.50000000       0.33333333       0.25000000 </v>
   <v>       0.41666667       0.41666667       0.25000000 </v>
   <v>       0.50000000       0.41666667       0.25000000 </v>
   <v>       0.50000000       0.50000000       0.25000000 </v>
   <v>       0.00000000       0.00000000       0.33333333 </v>
   <v>       0.08333333       0.00000000       0.33333333 </v>
   <v>       0.16666667       0.00000000       0.33333333 </v>
   <v>       0.25000000       0.00000000       0.33333333 </v>
   <v>       0.33333333       0.00000000       0.33333333 </v>
   <v>       0.41666667       0.00000000       0.33333333 </v>
   <v>       0.50000000       0.00000000       0.33333333 </v>
   <v>       0.08333333       0.08333333       0.33333333 </v>
   <v>       0.16666667       0.08333333       0.33333333 </v>
   <v>       0.25000000       0.08333333       0.33333333 </v>
   <v>       0.33333333       0.08333333       0.33333333 </v>
   <v>       0.41666667       0.08333333       0.33333333 </v>
   <v>       0.50000000       0.08333333       0.33333333 </v>
   <v>       0.16666667       0.16666667       0.33333333 </v>
   <v>       0.25000000       0.16666667       0.33333333 </v>
   <v>       0.33333333       0.16666667       0.33333333 </v>
   <v>       0.41666667       0.16666667       0.33333333 </v>
   <v>       0.50000000       0.16666667       0.33333333 </v>
   <v>       0.25000000       0.25000000       0.33333333 </v>
   <v>       0.33333333       0.25000000       0.33333333 </v>
   <v>       0.41666667       0.25000000       0.33333333 </v>
   <v>       0.50000000       0.25000000       0.33333333 </v>
   <v>       0.33333333       0.33333333       0.33333333 </v>
   <v>       0.41666667       0.33333333       0.33333333 </v>
   <v>       0.50000000       0.33333333       0.33333333 </v>
   <v>       0.41666667       0.41666667       0.33333333 </v>
   <v>       0.50000000       0.41666667       0.33333333 </v>
   <v>       0.50000000       0.50000000       0.33333333 </v>
   <v>       0.00000000       0.00000000       0.41666667 </v>
   <v>       0.08333333       0.00000000       0.41666667 </v>
   <v>       0.16666667       0.00000000       0.41666667 </v>
   <v>       0.25000000       0.00000000       0.41666667 </v>
   <v>       0.33333333       0.00000000       0.41666667 </v>
   <v>       0.41666667       0.00000000       0.41666667 </v>
   <v>       0.50000000       0.00000000       0.41666667 </v>
   <v>       0.08333333       0.08333333       0.41666667 </v>
   <v>       0.16666667       0.08333333       0.41666667 </v>
   <v>       0.25000000       0.08333333       0.41666667 </v>
   <v>       0.33333333       0.08333333       0.41666667 </v>
   <v>       0.41666667       0.08333333       0.41666667 </v>
   <v>       0.50000000       0.08333333       0.41666667 </v>
   <v>       0.16666667       0.16666667       0.41666667 </v>
   <v>       0.25000000       0.16666667       0.41666667 </v>
   <v>       0.33333333       0.16666667       0.41666667 </v>
   <v>       0.41666667       0.16666667       0.41666667 </v>
   <v>       0.50000000       0.16666667       0.41666667 </v>
   <v>       0.25000000       0.25000000       0.41666667 </v>
   <v>       0.33333333       0.25000000       0.41666667 </v>
   <v>       0.41666667       0.25000000       0.41666667 </v>
   <v>       0.50000000       0.25000000       0.41666667 </v>
   <v>       0.33333333       0.33333333       0.41666667 </v>
   <v>       0.41666667       0.33333333       0.41666667 </v>
   <v>       0.50000000       0.33333333       0.41666667 </v>
   <v>       0.41666667       0.41666667       0.41666667 </v>
   <v>       0.50000000       0.41666667       0.41666667 </v>
   <v>       0.50000000       0.50000000       0.41666667 </v>
   <v>       0.00000000       0.00000000       0.50000000 </v>
   <v>       0.08333333       0.00000000       0.50000000 </v>
   <v>       0.16666667       0.00000000       0.50000000 </v>
   <v>       0.25000000       0.00000000       0.50000000 </v>
   <v>       0.33333333       0.00000000       0.50000000 </v>
   <v>       0.41666667       0.00000000       0.50000000 </v>
   <v>       0.50000000       0.00000000       0.50000000 </v>
   <v>       0.08333333       0.08333333       0.50000000 </v>
   <v>       0.16666667       0.08333333       0.50000000 </v>
   <v>       0.25000000       0.08333333       0.50000000 </v>
   <v>       0.33333333       0.08333333       0.50000000 </v>
   <v>       0.41666667       0.08333333       0.50000000 </v>
   <v>       0.50000000       0.08333333       0.50000000 </v>
   <v>       0.16666667       0.16666667       0.50000000 </v>
   <v>       0.25000000       0.16666667       0.50000000 </v>
   <v>       0.33333333       0.16666667       0.50000000 </v>
   <v>       0.41666667       0.16666667       0.50000000 </v>
   <v>       0.50000000       0.16666667       0.50000000 </v>
   <v>       0.25000000       0.25000000       0.50000000 </v>
   <v>       0.33333333       0.25000000       0.50000000 </v>
   <v>       0.41666667       0.25000000       0.50000000 </v>
   <v>       0.50000000       0.25000000       0.50000000 </v>
   <v>       0.33333333       0.33333333       0.50000000 </v>
   <v>       0.41666667       0.33333333       0.50000000 </v>
   <v>       0.50000000       0.33333333       0.50000000 </v>
   <v>       0.41666667       0.41666667       0.50000000 </v>
   <v>       0.50000000       0.41666667       0.50000000 </v>
   <v>       0.50000000       0.50000000       0.50000000 </v>
  </varray>
  <varray name="weights" >
   <v>       0.00057870 </v>
   <v>       0.00231481 </v>
   <v>       0.00231481 </v>
   <v>       0.00231481 </v>
   <v>       0.00231481 </v>
   <v>       0.00231481 </v>
   <v>       0.00115741 </v>
   <v>       0.00231481 </v>
   <v>       0.00462963 </v>
   <v>       0.00462963 </v>
   <v>       0.00462963 </v>
   <v>       0.00462963 </v>
   <v>       0.00231481 </v>
   <v>       0.00231481 </v>
   <v>       0.00462963 </v>
   <v>       0.00462963 </v>
   <v>       0.00462963 </v>
   <v>       0.00231481 </v>
   <v>       0.00231481 </v>
   <v>       0.00462963 </v>
   <v>       0.00462963 </v>
   <v>       0.00231481 </v>
   <v>       0.00231481 </v>
   <v>       0.00462963 </v>
   <v>       0.00231481 </v>
   <v>       0.00231481 </v>
   <v>       0.00231481 </v>
   <v>       0.00057870 </v>
   <v>       0.00115741 </v>
   <v>       0.00462963 </v>
   <v>       0.00462963 </v>
   <v>       0.00462963 </v>
   <v>       0.00462963 </v>
   <v>       0.00462963 </v>
   <v>       0.00231481 </v>
   <v>       0.00462963 </v>
   <v>       0.00925926 </v>
   <v>       0.00925926 </v>
   <v>       0.00925926 </v>
   <v>       0.00925926 </v>
   <v>       0.00462963 </v>
   <v>       0.00462963 </v>
   <v>       0.00925926 </v>
   <v>       0.00925926 </v>
   <v>       0.00925926 </v>
   <v>       0.00462963 </v>
   <v>       0.00462963 </v>
   <v>       0.00925926 </v>
   <v>       0.00925926 </v>
   <v>       0.00462963 </v>
   <v>       0.00462963 </v>
   <v>       0.00925926 </v>
   <v>       0.00462963 </v>
   <v>       0.00462963 </v>
   <v>       0.00462963 </v>
   <v>       0.00115741 </v>
   <v>       0.00115741 </v>
   <v>       0.00462963 </v>
   <v>       0.00462963 </v>
   <v>       0.00462963 </v>
   <v>       0.00462963 </v>
   <v>       0.00462963 </v>
   <v>       0.00231481 </v>
   <v>       0.00462963 </v>
   <v>       0.00925926 </v>
   <v>       0.00925926 </v>
   <v>       0.00925926 </v>
   <v>       0.00925926 </v>
   <v>       0.00462963 </v>
   <v>       0.00462963 </v>
   <v>       0.00925926 </v>
   <v>       0.00925926 </v>
   <v>       0.00925926 </v>
   <v>       0.00462963 </v>
   <v>       0.00462963 </v>
   <v>       0.00925926 </v>
   <v>       0.00925926 </v>
   <v>       0.00462963 </v>
   <v>       0.00462963 </v>
   <v>       0.00925926 </v>
   <v>       0.00462963 </v>
   <v>       0.00462963 </v>
   <v>       0.00462963 </v>
   <v>       0.00115741 </v>
   <v>       0.00115741 </v>
   <v>       0.00462963 </v>
   <v>       0.00462963 </v>
   <v>       0.00462963 </v>
   <v>       0.00462963 </v>
   <v>       0.00462963 </v>
   <v>       0.00231481 </v>
   <v>       0.00462963 </v>
   <v>       0.00925926 </v>
   <v>       0.00925926 </v>
   <v>       0.00925926 </v>
   <v>       0.00925926 </v>
   <v>       0.00462963 </v>
   <v>       0.00462963 </v>
   <v>       0.00925926 </v>
   <v>       0.00925926 </v>
   <v>       0.00925926 </v>
   <v>       0.00462963 </v>
   <v>       0.00462963 </v>
   <v>       0.00925926 </v>
   <v>       0.00925926 </v>
   <v>       0.00462963 </v>
   <v>       0.00462963 </v>
   <v>       0.00925926 </v>
   <v>       0.00462963 </v>
   <v>       0.00462963 </v>
   <v>       0.00462963 </v>
   <v>       0.00115741 </v>
   <v>       0.00115741 </v>
   <v>       0.00462963 </v>
   <v>       0.00462963 </v>
   <v>       0.00462963 </v>
   <v>       0.00462963 </v>
   <v>       0.00462963 </v>
   <v>       0.00231481 </v>
   <v>       0.00462963 </v>
   <v>       0.00925926 </v>
   <v>       0.00925926 </v>
   <v>       0.00925926 </v>
   <v>       0.00925926 </v>
   <v>       0.00462963 </v>
   <v>       0.00462963 </v>
   <v>       0.00925926 </v>
   <v>       0.00925926 </v>
   <v>       0.00925926 </v>
   <v>       0.00462963 </v>
   <v>       0.00462963 </v>
   <v>       0.00925926 </v>
   <v>       0.00925926 </v>
   <v>       0.00462963 </v>
   <v>       0.00462963 </v>
   <v>       0.00925926 </v>
   <v>       0.00462963 </v>
   <v>       0.00462963 </v>
   <v>       0.00462963 </v>
   <v>       0.00115741 </v>
   <v>       0.00115741 </v>
   <v>       0.00462963 </v>
   <v>       0.00462963 </v>
   <v>       0.00462963 </v>
   <v>       0.00462963 </v>
   <v>       0.00462963 </v>
   <v>       0.00231481 </v>
   <v>       0.00462963 </v>
   <v>       0.00925926 </v>
   <v>       0.00925926 </v>
   <v>       0.00925926 </v>
   <v>       0.00925926 </v>
   <v>       0.00462963 </v>
   <v>       0.00462963 </v>
   <v>       0.00925926 </v>
   <v>       0.00925926 </v>
   <v>       0.00925926 </v>
   <v>       0.00462963 </v>
   <v>       0.00462963 </v>
   <v>       0.00925926 </v>
   <v>       0.00925926 </v>
   <v>       0.00462963 </v>
   <v>       0.00462963 </v>
   <v>       0.00925926 </v>
   <v>       0.00462963 </v>
   <v>       0.00462963 </v>
   <v>       0.00462963 </v>
   <v>       0.00115741 </v>
   <v>       0.00057870 </v>
   <v>       0.00231481 </v>
   <v>       0.00231481 </v>
   <v>       0.00231481 </v>
   <v>       0.00231481 </v>
   <v>       0.00231481 </v>
   <v>       0.00115741 </v>
   <v>       0.00231481 </v>
   <v>       0.00462963 </v>
   <v>       0.00462963 </v>
   <v>       0.00462963 </v>
   <v>       0.00462963 </v>
   <v>       0.00231481 </v>
   <v>       0.00231481 </v>
   <v>       0.00462963 </v>
   <v>       0.00462963 </v>
   <v>       0.00462963 </v>
   <v>       0.00231481 </v>
   <v>       0.00231481 </v>
   <v>       0.00462963 </v>
   <v>       0.00462963 </v>
   <v>       0.00231481 </v>
   <v>       0.00231481 </v>
   <v>       0.00462963 </v>
   <v>       0.00231481 </v>
   <v>       0.00231481 </v>
   <v>       0.00231481 </v>
   <v>       0.00057870 </v>
  </varray>
  <varray name="tetrahedronlist"  type="int" >
   <v type="int" >        4        1        2        8       29 </v>
   <v type="int" >        4        2        8       29       30 </v>
   <v type="int" >        4        8       29       30       36 </v>
   <v type="int" >        4        2        3        9       30 </v>
   <v type="int" >        4        2        8        9       30 </v>
   <v type="int" >        4        8        9       30       36 </v>
   <v type="int" >        4        3        9       30       31 </v>
   <v type="int" >        4        9       30       31       37 </v>
   <v type="int" >        4        9       30       36       37 </v>
   <v type="int" >        4        3        4       10       31 </v>
   <v type="int" >        4        3        9       10       31 </v>
   <v type="int" >        4        9       10       31       37 </v>
   <v type="int" >        4        4       10       31       32 </v>
   <v type="int" >        4       10       31       32       38 </v>
   <v type="int" >        4       10       31       37       38 </v>
   <v type="int" >        4        4        5       11       32 </v>
   <v type="int" >        4        4       10       11       32 </v>
   <v type="int" >        4       10       11       32       38 </v>
   <v type="int" >        4        5       11       32       33 </v>
   <v type="int" >        4       11       32       33       39 </v>
   <v type="int" >        4       11       32       38       39 </v>
   <v type="int" >        4        5        6       12       33 </v>
   <v type="int" >        4        5       11       12       33 </v>
   <v type="int" >        4       11       12       33       39 </v>
   <v type="int" >        4        6       12       33       34 </v>
   <v type="int" >        4       12       33       34       40 </v>
   <v type="int" >        4       12       33       39       40 </v>
   <v type="int" >        4        6        7       13       34 </v>
   <v type="int" >        4        6       12       13       34 </v>
   <v type="int" >        4       12       13       34       40 </v>
   <v type="int" >        4        7       13       34       35 </v>
   <v type="int" >        4       13       34       35       41 </v>
   <v type="int" >        4       13       34       40       41 </v>
   <v type="int" >        4        6        7       12       35 </v>
   <v type="int" >        4        7       12       13       35 </v>
   <v type="int" >        4       12       13       35       41 </v>
   <v type="int" >        4        6       12       34       35 </v>
   <v type="int" >        4       12       34       35       40 </v>
   <v type="int" >        4       12       35       40       41 </v>
   <v type="int" >        4        5        6       11       34 </v>
   <v type="int" >        4        6       11       12       34 </v>
   <v type="int" >        4       11       12       34       40 </v>
   <v type="int" >        4        5       11       33       34 </v>
   <v type="int" >        4       11       33       34       39 </v>
   <v type="int" >        4       11       34       39       40 </v>
   <v type="int" >        4        4        5       10       33 </v>
   <v type="int" >        4        5       10       11       33 </v>
   <v type="int" >        4       10       11       33       39 </v>
   <v type="int" >        4        4       10       32       33 </v>
   <v type="int" >        4       10       32       33       38 </v>
   <v type="int" >        4       10       33       38       39 </v>
   <v type="int" >        4        3        4        9       32 </v>
   <v type="int" >        4        4        9       10       32 </v>
   <v type="int" >        4        9       10       32       38 </v>
   <v type="int" >        4        3        9       31       32 </v>
   <v type="int" >        4        9       31       32       37 </v>
   <v type="int" >        4        9       32       37       38 </v>
   <v type="int" >        4        2        3        8       31 </v>
   <v type="int" >        4        3        8        9       31 </v>
   <v type="int" >        4        8        9       31       37 </v>
   <v type="int" >        4        2        8       30       31 </v>
   <v type="int" >        4        8       30       31       36 </v>
   <v type="int" >        4        8       31       36       37 </v>
   <v type="int" >        4        1        2        2       30 </v>
   <v type="int" >        4        2        2        8       30 </v>
   <v type="int" >        4        2        8       30       36 </v>
   <v type="int" >        4        1        2       29       30 </v>
   <v type="int" >        4        2       29       30       30 </v>
   <v type="int" >        4        2       30       30       36 </v>
   <v type="int" >        4        8        9       14       36 </v>
   <v type="int" >        4        9       14       36       37 </v>
   <v type="int" >        4       14       36       37       42 </v>
   <v type="int" >        4        9       10       15       37 </v>
   <v type="int" >        4        9       14       15       37 </v>
   <v type="int" >        4       14       15       37       42 </v>
   <v type="int" >        4       10       15       37       38 </v>
   <v type="int" >        4       15       37       38       43 </v>
   <v type="int" >        4       15       37       42       43 </v>
   <v type="int" >        4       10       11       16       38 </v>
   <v type="int" >        4       10       15       16       38 </v>
   <v type="int" >        4       15       16       38       43 </v>
   <v type="int" >        4       11       16       38       39 </v>
   <v type="int" >        4       16       38       39       44 </v>
   <v type="int" >        4       16       38       43       44 </v>
   <v type="int" >        4       11       12       17       39 </v>
   <v type="int" >        4       11       16       17       39 </v>
   <v type="int" >        4       16       17       39       44 </v>
   <v type="int" >        4       12       17       39       40 </v>
   <v type="int" >        4       17       39       40       45 </v>
   <v type="int" >        4       17       39       44       45 </v>
   <v type="int" >        4       12       13       18       40 </v>
   <v type="int" >        4       12       17       18       40 </v>
   <v type="int" >        4       17       18       40       45 </v>
   <v type="int" >        4       13       18       40       41 </v>
   <v type="int" >        4       18       40       41       46 </v>
   <v type="int" >        4       18       40       45       46 </v>
   <v type="int" >        4       12       13       17       41 </v>
   <v type="int" >        4       13       17       18       41 </v>
   <v type="int" >        4       17       18       41       46 </v>
   <v type="int" >        4       12       17       40       41 </v>
   <v type="int" >        4       17       40       41       45 </v>
   <v type="int" >        4       17       41       45       46 </v>
   <v type="int" >        4       11       12       16       40 </v>
   <v type="int" >        4       12       16       17       40 </v>
   <v type="int" >        4       16       17       40       45 </v>
   <v type="int" >        4       11       16       39       40 </v>
   <v type="int" >        4       16       39       40       44 </v>
   <v type="int" >        4       16       40       44       45 </v>
   <v type="int" >        4       10       11       15       39 </v>
   <v type="int" >        4       11       15       16       39 </v>
   <v type="int" >        4       15       16       39       44 </v>
   <v type="int" >        4       10       15       38       39 </v>
   <v type="int" >        4       15       38       39       43 </v>
   <v type="int" >        4       15       39       43       44 </v>
   <v type="int" >        4        9       10       14       38 </v>
   <v type="int" >        4       10       14       15       38 </v>
   <v type="int" >        4       14       15       38       43 </v>
   <v type="int" >        4        9       14       37       38 </v>
   <v type="int" >        4       14       37       38       42 </v>
   <v type="int" >        4       14       38       42       43 </v>
   <v type="int" >        4        8        9        9       37 </v>
   <v type="int" >        4        9        9       14       37 </v>
   <v type="int" >        4        9       14       37       42 </v>
   <v type="int" >        4        8        9       36       37 </v>
   <v type="int" >        4        9       36       37       37 </v>
   <v type="int" >        4        9       37       37       42 </v>
   <v type="int" >        4        2        3        8       36 </v>
   <v type="int" >        4        3        8        9       36 </v>
   <v type="int" >        4        3        9       36       37 </v>
   <v type="int" >        4        2        3       30       36 </v>
   <v type="int" >        4        3       30       31       36 </v>
   <v type="int" >        4        3       31       36       37 </v>
   <v type="int" >        4       14       15       19       42 </v>
   <v type="int" >        4       15       19       42       43 </v>
   <v type="int" >        4       19       42       43       47 </v>
   <v type="int" >        4       15       16       20       43 </v>
   <v type="int" >        4       15       19       20       43 </v>
   <v type="int" >        4       19       20       43       47 </v>
   <v type="int" >        4       16       20       43       44 </v>
   <v type="int" >        4       20       43       44       48 </v>
   <v type="int" >        4       20       43       47       48 </v>
   <v type="int" >        4       16       17       21       44 </v>
   <v type="int" >        4       16       20       21       44 </v>
   <v type="int" >        4       20       21       44       48 </v>
   <v type="int" >        4       17       21       44       45 </v>
   <v type="int" >        4       21       44       45       49 </v>
   <v type="int" >        4       21       44       48       49 </v>
   <v type="int" >        4       17       18       22       45 </v>
   <v type="int" >        4       17       21       22       45 </v>
   <v type="int" >        4       21       22       45       49 </v>
   <v type="int" >        4       18       22       45       46 </v>
   <v type="int" >        4       22       45       46       50 </v>
   <v type="int" >        4       22       45       49       50 </v>
   <v type="int" >        4       17       18       21       46 </v>
   <v type="int" >        4       18       21       22       46 </v>
   <v type="int" >        4       21       22       46       50 </v>
   <v type="int" >        4       17       21       45       46 </v>
   <v type="int" >        4       21       45       46       49 </v>
   <v type="int" >        4       21       46       49       50 </v>
   <v type="int" >        4       16       17       20       45 </v>
   <v type="int" >        4       17       20       21       45 </v>
   <v type="int" >        4       20       21       45       49 </v>
   <v type="int" >        4       16       20       44       45 </v>
   <v type="int" >        4       20       44       45       48 </v>
   <v type="int" >        4       20       45       48       49 </v>
   <v type="int" >        4       15       16       19       44 </v>
   <v type="int" >        4       16       19       20       44 </v>
   <v type="int" >        4       19       20       44       48 </v>
   <v type="int" >        4       15       19       43       44 </v>
   <v type="int" >        4       19       43       44       47 </v>
   <v type="int" >        4       19       44       47       48 </v>
   <v type="int" >        4       14       15       15       43 </v>
   <v type="int" >        4       15       15       19       43 </v>
   <v type="int" >        4       15       19       43       47 </v>
   <v type="int" >        4       14       15       42       43 </v>
   <v type="int" >        4       15       42       43       43 </v>
   <v type="int" >        4       15       43       43       47 </v>
   <v type="int" >        4        9       10       14       42 </v>
   <v type="int" >        4       10       14       15       42 </v>
   <v type="int" >        4       10       15       42       43 </v>
   <v type="int" >        4        9       10       37       42 </v>
   <v type="int" >        4       10       37       38       42 </v>
   <v type="int" >        4       10       38       42       43 </v>
   <v type="int" >        4        3        4        9       37 </v>
   <v type="int" >        4        4        9       10       37 </v>
   <v type="int" >        4        4       10       37       38 </v>
   <v type="int" >        4        3        4       31       37 </v>
   <v type="int" >        4        4       31       32       37 </v>
   <v type="int" >        4        4       32       37       38 </v>
   <v type="int" >        4       19       20       23       47 </v>
   <v type="int" >        4       20       23       47       48 </v>
   <v type="int" >        4       23       47       48       51 </v>
   <v type="int" >        4       20       21       24       48 </v>
   <v type="int" >        4       20       23       24       48 </v>
   <v type="int" >        4       23       24       48       51 </v>
   <v type="int" >        4       21       24       48       49 </v>
   <v type="int" >        4       24       48       49       52 </v>
   <v type="int" >        4       24       48       51       52 </v>
   <v type="int" >        4       21       22       25       49 </v>
   <v type="int" >        4       21       24       25       49 </v>
   <v type="int" >        4       24       25       49       52 </v>
   <v type="int" >        4       22       25       49       50 </v>
   <v type="int" >        4       25       49       50       53 </v>
   <v type="int" >        4       25       49       52       53 </v>
   <v type="int" >        4       21       22       24       50 </v>
   <v type="int" >        4       22       24       25       50 </v>
   <v type="int" >        4       24       25       50       53 </v>
   <v type="int" >        4       21       24       49       50 </v>
   <v type="int" >        4       24       49       50       52 </v>
   <v type="int" >        4       24       50       52       53 </v>
   <v type="int" >        4       20       21       23       49 </v>
   <v type="int" >        4       21       23       24       49 </v>
   <v type="int" >        4       23       24       49       52 </v>
   <v type="int" >        4       20       23       48       49 </v>
   <v type="int" >        4       23       48       49       51 </v>
   <v type="int" >        4       23       49       51       52 </v>
   <v type="int" >        4       19       20       20       48 </v>
   <v type="int" >        4       20       20       23       48 </v>
   <v type="int" >        4       20       23       48       51 </v>
   <v type="int" >        4       19       20       47       48 </v>
   <v type="int" >        4       20       47       48       48 </v>
   <v type="int" >        4       20       48       48       51 </v>
   <v type="int" >        4       15       16       19       47 </v>
   <v type="int" >        4       16       19       20       47 </v>
   <v type="int" >        4       16       20       47       48 </v>
   <v type="int" >        4       15       16       43       47 </v>
   <v type="int" >        4       16       43       44       47 </v>
   <v type="int" >        4       16       44       47       48 </v>
   <v type="int" >        4       10       11       15       43 </v>
   <v type="int" >        4       11       15       16       43 </v>
   <v type="int" >        4       11       16       43       44 </v>
   <v type="int" >        4       10       11       38       43 </v>
   <v type="int" >        4       11       38       39       43 </v>
   <v type="int" >        4       11       39       43       44 </v>
   <v type="int" >        4        4        5       10       38 </v>
   <v type="int" >        4        5       10       11       38 </v>
   <v type="int" >        4        5       11       38       39 </v>
   <v type="int" >        4        4        5       32       38 </v>
   <v type="int" >        4        5       32       33       38 </v>
   <v type="int" >        4        5       33       38       39 </v>
   <v type="int" >        4       23       24       26       51 </v>
   <v type="int" >        4       24       26       51       52 </v>
   <v type="int" >        4       26       51       52       54 </v>
   <v type="int" >        4       24       25       27       52 </v>
   <v type="int" >        4       24       26       27       52 </v>
   <v type="int" >        4       26       27       52       54 </v>
   <v type="int" >        4       25       27       52       53 </v>
   <v type="int" >        4       27       52       53       55 </v>
   <v type="int" >        4       27       52       54       55 </v>
   <v type="int" >        4       24       25       26       53 </v>
   <v type="int" >        4       25       26       27       53 </v>
   <v type="int" >        4       26       27       53       55 </v>
   <v type="int" >        4       24       26       52       53 </v>
   <v type="int" >        4       26       52       53       54 </v>
   <v type="int" >        4       26       53       54       55 </v>
   <v type="int" >        4       23       24       24       52 </v>
   <v type="int" >        4       24       24       26       52 </v>
   <v type="int" >        4       24       26       52       54 </v>
   <v type="int" >        4       23       24       51       52 </v>
   <v type="int" >        4       24       51       52       52 </v>
   <v type="int" >        4       24       52       52       54 </v>
   <v type="int" >        4       20       21       23       51 </v>
   <v type="int" >        4       21       23       24       51 </v>
   <v type="int" >        4       21       24       51       52 </v>
   <v type="int" >        4       20       21       48       51 </v>
   <v type="int" >        4       21       48       49       51 </v>
   <v type="int" >        4       21       49       51       52 </v>
   <v type="int" >        4       16       17       20       48 </v>
   <v type="int" >        4       17       20       21       48 </v>
   <v type="int" >        4       17       21       48       49 </v>
   <v type="int" >        4       16       17       44       48 </v>
   <v type="int" >        4       17       44       45       48 </v>
   <v type="int" >        4       17       45       48       49 </v>
   <v type="int" >        4       11       12       16       44 </v>
   <v type="int" >        4       12       16       17       44 </v>
   <v type="int" >        4       12       17       44       45 </v>
   <v type="int" >        4       11       12       39       44 </v>
   <v type="int" >        4       12       39       40       44 </v>
   <v type="int" >        4       12       40       44       45 </v>
   <v type="int" >        4        5        6       11       39 </v>
   <v type="int" >        4        6       11       12       39 </v>
   <v type="int" >        4        6       12       39       40 </v>
   <v type="int" >        4        5        6       33       39 </v>
   <v type="int" >        4        6       33       34       39 </v>
   <v type="int" >        4        6       34       39       40 </v>
   <v type="int" >        4       26       27       28       54 </v>
   <v type="int" >        4       27       28       54       55 </v>
   <v type="int" >        4       28       54       55       56 </v>
   <v type="int" >        4       26       27       27       55 </v>
   <v type="int" >        4       27       27       28       55 </v>
   <v type="int" >        4       27       28       55       56 </v>
   <v type="int" >        4       26       27       54       55 </v>
   <v type="int" >        4       27       54       55       55 </v>
   <v type="int" >        4       27       55       55       56 </v>
   <v type="int" >        4       24       25       26       54 </v>
   <v type="int" >        4       25       26       27       54 </v>
   <v type="int" >        4       25       27       54       55 </v>
   <v type="int" >        4       24       25       52       54 </v>
   <v type="int" >        4       25       52       53       54 </v>
   <v type="int" >        4       25       53       54       55 </v>
   <v type="int" >        4       21       22       24       52 </v>
   <v type="int" >        4       22       24       25       52 </v>
   <v type="int" >        4       22       25       52       53 </v>
   <v type="int" >        4       21       22       49       52 </v>
   <v type="int" >        4       22       49       50       52 </v>
   <v type="int" >        4       22       50       52       53 </v>
   <v type="int" >        4       17       18       21       49 </v>
   <v type="int" >        4       18       21       22       49 </v>
   <v type="int" >        4       18       22       49       50 </v>
   <v type="int" >        4       17       18       45       49 </v>
   <v type="int" >        4       18       45       46       49 </v>
   <v type="int" >        4       18       46       49       50 </v>
   <v type="int" >        4       12       13       17       45 </v>
   <v type="int" >        4       13       17       18       45 </v>
   <v type="int" >        4       13       18       45       46 </v>
   <v type="int" >        4       12       13       40       45 </v>
   <v type="int" >        4       13       40       41       45 </v>
   <v type="int" >        4       13       41       45       46 </v>
   <v type="int" >        4        6        7       12       40 </v>
   <v type="int" >        4        7       12       13       40 </v>
   <v type="int" >        4        7       13       40       41 </v>
   <v type="int" >        4        6        7       34       40 </v>
   <v type="int" >        4        7       34       35       40 </v>
   <v type="int" >        4        7       35       40       41 </v>
   <v type="int" >        4       26       27       28       56 </v>
   <v type="int" >        4       26       27       55       56 </v>
   <v type="int" >        4       26       54       55       56 </v>
   <v type="int" >        4       24       25       27       55 </v>
   <v type="int" >        4       24       26       27       55 </v>
   <v type="int" >        4       24       26       54       55 </v>
   <v type="int" >        4       24       25       53       55 </v>
   <v type="int" >        4       24       52       53       55 </v>
   <v type="int" >        4       24       52       54       55 </v>
   <v type="int" >        4       21       22       25       53 </v>
   <v type="int" >        4       21       24       25       53 </v>
   <v type="int" >        4       21       24       52       53 </v>
   <v type="int" >        4       21       22       50       53 </v>
   <v type="int" >        4       21       49       50       53 </v>
   <v type="int" >        4       21       49       52       53 </v>
   <v type="int" >        4       17       18       22       50 </v>
   <v type="int" >        4       17       21       22       50 </v>
   <v type="int" >        4       17       21       49       50 </v>
   <v type="int" >        4       17       18       46       50 </v>
   <v type="int" >        4       17       45       46       50 </v>
   <v type="int" >        4       17       45       49       50 </v>
   <v type="int" >        4       12       13       18       46 </v>
   <v type="int" >        4       12       17       18       46 </v>
   <v type="int" >        4       12       17       45       46 </v>
   <v type="int" >        4       12       13       41       46 </v>
   <v type="int" >        4       12       40       41       46 </v>
   <v type="int" >        4       12       40       45       46 </v>
   <v type="int" >        4        6        7       13       41 </v>
   <v type="int" >        4        6       12       13       41 </v>
   <v type="int" >        4        6       12       40       41 </v>
   <v type="int" >        4        6        7       35       41 </v>
   <v type="int" >        4        6       34       35       41 </v>
   <v type="int" >        4        6       34       40       41 </v>
   <v type="int" >        4       23       24       26       54 </v>
   <v type="int" >        4       23       24       52       54 </v>
   <v type="int" >        4       23       51       52       54 </v>
   <v type="int" >        4       20       21       24       52 </v>
   <v type="int" >        4       20       23       24       52 </v>
   <v type="int" >        4       20       23       51       52 </v>
   <v type="int" >        4       20       21       49       52 </v>
   <v type="int" >        4       20       48       49       52 </v>
   <v type="int" >        4       20       48       51       52 </v>
   <v type="int" >        4       16       17       21       49 </v>
   <v type="int" >        4       16       20       21       49 </v>
   <v type="int" >        4       16       20       48       49 </v>
   <v type="int" >        4       16       17       45       49 </v>
   <v type="int" >        4       16       44       45       49 </v>
   <v type="int" >        4       16       44       48       49 </v>
   <v type="int" >        4       11       12       17       45 </v>
   <v type="int" >        4       11       16       17       45 </v>
   <v type="int" >        4       11       16       44       45 </v>
   <v type="int" >        4       11       12       40       45 </v>
   <v type="int" >        4       11       39       40       45 </v>
   <v type="int" >        4       11       39       44       45 </v>
   <v type="int" >        4        5        6       12       40 </v>
   <v type="int" >        4        5       11       12       40 </v>
   <v type="int" >        4        5       11       39       40 </v>
   <v type="int" >        4        5        6       34       40 </v>
   <v type="int" >        4        5       33       34       40 </v>
   <v type="int" >        4        5       33       39       40 </v>
   <v type="int" >        4       19       20       23       51 </v>
   <v type="int" >        4       19       20       48       51 </v>
   <v type="int" >        4       19       47       48       51 </v>
   <v type="int" >        4       15       16       20       48 </v>
   <v type="int" >        4       15       19       20       48 </v>
   <v type="int" >        4       15       19       47       48 </v>
   <v type="int" >        4       15       16       44       48 </v>
   <v type="int" >        4       15       43       44       48 </v>
   <v type="int" >        4       15       43       47       48 </v>
   <v type="int" >        4       10       11       16       44 </v>
   <v type="int" >        4       10       15       16       44 </v>
   <v type="int" >        4       10       15       43       44 </v>
   <v type="int" >        4       10       11       39       44 </v>
   <v type="int" >        4       10       38       39       44 </v>
   <v type="int" >        4       10       38       43       44 </v>
   <v type="int" >        4        4        5       11       39 </v>
   <v type="int" >        4        4       10       11       39 </v>
   <v type="int" >        4        4       10       38       39 </v>
   <v type="int" >        4        4        5       33       39 </v>
   <v type="int" >        4        4       32       33       39 </v>
   <v type="int" >        4        4       32       38       39 </v>
   <v type="int" >        4       14       15       19       47 </v>
   <v type="int" >        4       14       15       43       47 </v>
   <v type="int" >        4       14       42       43       47 </v>
   <v type="int" >        4        9       10       15       43 </v>
   <v type="int" >        4        9       14       15       43 </v>
   <v type="int" >        4        9       14       42       43 </v>
   <v type="int" >        4        9       10       38       43 </v>
   <v type="int" >        4        9       37       38       43 </v>
   <v type="int" >        4        9       37       42       43 </v>
   <v type="int" >        4        3        4       10       38 </v>
   <v type="int" >        4        3        9       10       38 </v>
   <v type="int" >        4        3        9       37       38 </v>
   <v type="int" >        4        3        4       32       38 </v>
   <v type="int" >        4        3       31       32       38 </v>
   <v type="int" >        4        3       31       37       38 </v>
   <v type="int" >        4        8        9       14       42 </v>
   <v type="int" >        4        8        9       37       42 </v>
   <v type="int" >        4        8       36       37       42 </v>
   <v type="int" >        4        2        3        9       37 </v>
   <v type="int" >        4        2        8        9       37 </v>
   <v type="int" >        4        2        8       36       37 </v>
   <v type="int" >        4        2        3       31       37 </v>
   <v type="int" >        4        2       30       31       37 </v>
   <v type="int" >        4        2       30       36       37 </v>
   <v type="int" >        4        1        2        8       36 </v>
   <v type="int" >        4        1        2       30       36 </v>
   <v type="int" >        4        1       29       30       36 </v>
   <v type="int" >        4       29       30       36       57 </v>
   <v type="int" >        4       30       36       57       58 </v>
   <v type="int" >        4       36       57       58       64 </v>
   <v type="int" >        4       30       31       37       58 </v>
   <v type="int" >        4       30       36       37       58 </v>
   <v type="int" >        4       36       37       58       64 </v>
   <v type="int" >        4       31       37       58       59 </v>
   <v type="int" >        4       37       58       59       65 </v>
   <v type="int" >        4       37       58       64       65 </v>
   <v type="int" >        4       31       32       38       59 </v>
   <v type="int" >        4       31       37       38       59 </v>
   <v type="int" >        4       37       38       59       65 </v>
   <v type="int" >        4       32       38       59       60 </v>
   <v type="int" >        4       38       59       60       66 </v>
   <v type="int" >        4       38       59       65       66 </v>
   <v type="int" >        4       32       33       39       60 </v>
   <v type="int" >        4       32       38       39       60 </v>
   <v type="int" >        4       38       39       60       66 </v>
   <v type="int" >        4       33       39       60       61 </v>
   <v type="int" >        4       39       60       61       67 </v>
   <v type="int" >        4       39       60       66       67 </v>
   <v type="int" >        4       33       34       40       61 </v>
   <v type="int" >        4       33       39       40       61 </v>
   <v type="int" >        4       39       40       61       67 </v>
   <v type="int" >        4       34       40       61       62 </v>
   <v type="int" >        4       40       61       62       68 </v>
   <v type="int" >        4       40       61       67       68 </v>
   <v type="int" >        4       34       35       41       62 </v>
   <v type="int" >        4       34       40       41       62 </v>
   <v type="int" >        4       40       41       62       68 </v>
   <v type="int" >        4       35       41       62       63 </v>
   <v type="int" >        4       41       62       63       69 </v>
   <v type="int" >        4       41       62       68       69 </v>
   <v type="int" >        4       34       35       40       63 </v>
   <v type="int" >        4       35       40       41       63 </v>
   <v type="int" >        4       40       41       63       69 </v>
   <v type="int" >        4       34       40       62       63 </v>
   <v type="int" >        4       40       62       63       68 </v>
   <v type="int" >        4       40       63       68       69 </v>
   <v type="int" >        4       33       34       39       62 </v>
   <v type="int" >        4       34       39       40       62 </v>
   <v type="int" >        4       39       40       62       68 </v>
   <v type="int" >        4       33       39       61       62 </v>
   <v type="int" >        4       39       61       62       67 </v>
   <v type="int" >        4       39       62       67       68 </v>
   <v type="int" >        4       32       33       38       61 </v>
   <v type="int" >        4       33       38       39       61 </v>
   <v type="int" >        4       38       39       61       67 </v>
   <v type="int" >        4       32       38       60       61 </v>
   <v type="int" >        4       38       60       61       66 </v>
   <v type="int" >        4       38       61       66       67 </v>
   <v type="int" >        4       31       32       37       60 </v>
   <v type="int" >        4       32       37       38       60 </v>
   <v type="int" >        4       37       38       60       66 </v>
   <v type="int" >        4       31       37       59       60 </v>
   <v type="int" >        4       37       59       60       65 </v>
   <v type="int" >        4       37       60       65       66 </v>
   <v type="int" >        4       30       31       36       59 </v>
   <v type="int" >        4       31       36       37       59 </v>
   <v type="int" >        4       36       37       59       65 </v>
   <v type="int" >        4       30       36       58       59 </v>
   <v type="int" >        4       36       58       59       64 </v>
   <v type="int" >        4       36       59       64       65 </v>
   <v type="int" >        4       29       30       30       58 </v>
   <v type="int" >        4       30       30       36       58 </v>
   <v type="int" >        4       30       36       58       64 </v>
   <v type="int" >        4       29       30       57       58 </v>
   <v type="int" >        4       30       57       58       58 </v>
   <v type="int" >        4       30       58       58       64 </v>
   <v type="int" >        4       36       37       42       64 </v>
   <v type="int" >        4       37       42       64       65 </v>
   <v type="int" >        4       42       64       65       70 </v>
   <v type="int" >        4       37       38       43       65 </v>
   <v type="int" >        4       37       42       43       65 </v>
   <v type="int" >        4       42       43       65       70 </v>
   <v type="int" >        4       38       43       65       66 </v>
   <v type="int" >        4       43       65       66       71 </v>
   <v type="int" >        4       43       65       70       71 </v>
   <v type="int" >        4       38       39       44       66 </v>
   <v type="int" >        4       38       43       44       66 </v>
   <v type="int" >        4       43       44       66       71 </v>
   <v type="int" >        4       39       44       66       67 </v>
   <v type="int" >        4       44       66       67       72 </v>
   <v type="int" >        4       44       66       71       72 </v>
   <v type="int" >        4       39       40       45       67 </v>
   <v type="int" >        4       39       44       45       67 </v>
   <v type="int" >        4       44       45       67       72 </v>
   <v type="int" >        4       40       45       67       68 </v>
   <v type="int" >        4       45       67       68       73 </v>
   <v type="int" >        4       45       67       72       73 </v>
   <v type="int" >        4       40       41       46       68 </v>
   <v type="int" >        4       40       45       46       68 </v>
   <v type="int" >        4       45       46       68       73 </v>
   <v type="int" >        4       41       46       68       69 </v>
   <v type="int" >        4       46       68       69       74 </v>
   <v type="int" >        4       46       68       73       74 </v>
   <v type="int" >        4       40       41       45       69 </v>
   <v type="int" >        4       41       45       46       69 </v>
   <v type="int" >        4       45       46       69       74 </v>
   <v type="int" >        4       40       45       68       69 </v>
   <v type="int" >        4       45       68       69       73 </v>
   <v type="int" >        4       45       69       73       74 </v>
   <v type="int" >        4       39       40       44       68 </v>
   <v type="int" >        4       40       44       45       68 </v>
   <v type="int" >        4       44       45       68       73 </v>
   <v type="int" >        4       39       44       67       68 </v>
   <v type="int" >        4       44       67       68       72 </v>
   <v type="int" >        4       44       68       72       73 </v>
   <v type="int" >        4       38       39       43       67 </v>
   <v type="int" >        4       39       43       44       67 </v>
   <v type="int" >        4       43       44       67       72 </v>
   <v type="int" >        4       38       43       66       67 </v>
   <v type="int" >        4       43       66       67       71 </v>
   <v type="int" >        4       43       67       71       72 </v>
   <v type="int" >        4       37       38       42       66 </v>
   <v type="int" >        4       38       42       43       66 </v>
   <v type="int" >        4       42       43       66       71 </v>
   <v type="int" >        4       37       42       65       66 </v>
   <v type="int" >        4       42       65       66       70 </v>
   <v type="int" >        4       42       66       70       71 </v>
   <v type="int" >        4       36       37       37       65 </v>
   <v type="int" >        4       37       37       42       65 </v>
   <v type="int" >        4       37       42       65       70 </v>
   <v type="int" >        4       36       37       64       65 </v>
   <v type="int" >        4       37       64       65       65 </v>
   <v type="int" >        4       37       65       65       70 </v>
   <v type="int" >        4       30       31       36       64 </v>
   <v type="int" >        4       31       36       37       64 </v>
   <v type="int" >        4       31       37       64       65 </v>
   <v type="int" >        4       30       31       58       64 </v>
   <v type="int" >        4       31       58       59       64 </v>
   <v type="int" >        4       31       59       64       65 </v>
   <v type="int" >        4       42       43       47       70 </v>
   <v type="int" >        4       43       47       70       71 </v>
   <v type="int" >        4       47       70       71       75 </v>
   <v type="int" >        4       43       44       48       71 </v>
   <v type="int" >        4       43       47       48       71 </v>
   <v type="int" >        4       47       48       71       75 </v>
   <v type="int" >        4       44       48       71       72 </v>
   <v type="int" >        4       48       71       72       76 </v>
   <v type="int" >        4       48       71       75       76 </v>
   <v type="int" >        4       44       45       49       72 </v>
   <v type="int" >        4       44       48       49       72 </v>
   <v type="int" >        4       48       49       72       76 </v>
   <v type="int" >        4       45       49       72       73 </v>
   <v type="int" >        4       49       72       73       77 </v>
   <v type="int" >        4       49       72       76       77 </v>
   <v type="int" >        4       45       46       50       73 </v>
   <v type="int" >        4       45       49       50       73 </v>
   <v type="int" >        4       49       50       73       77 </v>
   <v type="int" >        4       46       50       73       74 </v>
   <v type="int" >        4       50       73       74       78 </v>
   <v type="int" >        4       50       73       77       78 </v>
   <v type="int" >        4       45       46       49       74 </v>
   <v type="int" >        4       46       49       50       74 </v>
   <v type="int" >        4       49       50       74       78 </v>
   <v type="int" >        4       45       49       73       74 </v>
   <v type="int" >        4       49       73       74       77 </v>
   <v type="int" >        4       49       74       77       78 </v>
   <v type="int" >        4       44       45       48       73 </v>
   <v type="int" >        4       45       48       49       73 </v>
   <v type="int" >        4       48       49       73       77 </v>
   <v type="int" >        4       44       48       72       73 </v>
   <v type="int" >        4       48       72       73       76 </v>
   <v type="int" >        4       48       73       76       77 </v>
   <v type="int" >        4       43       44       47       72 </v>
   <v type="int" >        4       44       47       48       72 </v>
   <v type="int" >        4       47       48       72       76 </v>
   <v type="int" >        4       43       47       71       72 </v>
   <v type="int" >        4       47       71       72       75 </v>
   <v type="int" >        4       47       72       75       76 </v>
   <v type="int" >        4       42       43       43       71 </v>
   <v type="int" >        4       43       43       47       71 </v>
   <v type="int" >        4       43       47       71       75 </v>
   <v type="int" >        4       42       43       70       71 </v>
   <v type="int" >        4       43       70       71       71 </v>
   <v type="int" >        4       43       71       71       75 </v>
   <v type="int" >        4       37       38       42       70 </v>
   <v type="int" >        4       38       42       43       70 </v>
   <v type="int" >        4       38       43       70       71 </v>
   <v type="int" >        4       37       38       65       70 </v>
   <v type="int" >        4       38       65       66       70 </v>
   <v type="int" >        4       38       66       70       71 </v>
   <v type="int" >        4       31       32       37       65 </v>
   <v type="int" >        4       32       37       38       65 </v>
   <v type="int" >        4       32       38       65       66 </v>
   <v type="int" >        4       31       32       59       65 </v>
   <v type="int" >        4       32       59       60       65 </v>
   <v type="int" >        4       32       60       65       66 </v>
   <v type="int" >        4       47       48       51       75 </v>
   <v type="int" >        4       48       51       75       76 </v>
   <v type="int" >        4       51       75       76       79 </v>
   <v type="int" >        4       48       49       52       76 </v>
   <v type="int" >        4       48       51       52       76 </v>
   <v type="int" >        4       51       52       76       79 </v>
   <v type="int" >        4       49       52       76       77 </v>
   <v type="int" >        4       52       76       77       80 </v>
   <v type="int" >        4       52       76       79       80 </v>
   <v type="int" >        4       49       50       53       77 </v>
   <v type="int" >        4       49       52       53       77 </v>
   <v type="int" >        4       52       53       77       80 </v>
   <v type="int" >        4       50       53       77       78 </v>
   <v type="int" >        4       53       77       78       81 </v>
   <v type="int" >        4       53       77       80       81 </v>
   <v type="int" >        4       49       50       52       78 </v>
   <v type="int" >        4       50       52       53       78 </v>
   <v type="int" >        4       52       53       78       81 </v>
   <v type="int" >        4       49       52       77       78 </v>
   <v type="int" >        4       52       77       78       80 </v>
   <v type="int" >        4       52       78       80       81 </v>
   <v type="int" >        4       48       49       51       77 </v>
   <v type="int" >        4       49       51       52       77 </v>
   <v type="int" >        4       51       52       77       80 </v>
   <v type="int" >        4       48       51       76       77 </v>
   <v type="int" >        4       51       76       77       79 </v>
   <v type="int" >        4       51       77       79       80 </v>
   <v type="int" >        4       47       48       48       76 </v>
   <v type="int" >        4       48       48       51       76 </v>
   <v type="int" >        4       48       51       76       79 </v>
   <v type="int" >        4       47       48       75       76 </v>
   <v type="int" >        4       48       75       76       76 </v>
   <v type="int" >        4       48       76       76       79 </v>
   <v type="int" >        4       43       44       47       75 </v>
   <v type="int" >        4       44       47       48       75 </v>
   <v type="int" >        4       44       48       75       76 </v>
   <v type="int" >        4       43       44       71       75 </v>
   <v type="int" >        4       44       71       72       75 </v>
   <v type="int" >        4       44       72       75       76 </v>
   <v type="int" >        4       38       39       43       71 </v>
   <v type="int" >        4       39       43       44       71 </v>
   <v type="int" >        4       39       44       71       72 </v>
   <v type="int" >        4       38       39       66       71 </v>
   <v type="int" >        4       39       66       67       71 </v>
   <v type="int" >        4       39       67       71       72 </v>
   <v type="int" >        4       32       33       38       66 </v>
   <v type="int" >        4       33       38       39       66 </v>
   <v type="int" >        4       33       39       66       67 </v>
   <v type="int" >        4       32       33       60       66 </v>
   <v type="int" >        4       33       60       61       66 </v>
   <v type="int" >        4       33       61       66       67 </v>
   <v type="int" >        4       51       52       54       79 </v>
   <v type="int" >        4       52       54       79       80 </v>
   <v type="int" >        4       54       79       80       82 </v>
   <v type="int" >        4       52       53       55       80 </v>
   <v type="int" >        4       52       54       55       80 </v>
   <v type="int" >        4       54       55       80       82 </v>
   <v type="int" >        4       53       55       80       81 </v>
   <v type="int" >        4       55       80       81       83 </v>
   <v type="int" >        4       55       80       82       83 </v>
   <v type="int" >        4       52       53       54       81 </v>
   <v type="int" >        4       53       54       55       81 </v>
   <v type="int" >        4       54       55       81       83 </v>
   <v type="int" >        4       52       54       80       81 </v>
   <v type="int" >        4       54       80       81       82 </v>
   <v type="int" >        4       54       81       82       83 </v>
   <v type="int" >        4       51       52       52       80 </v>
   <v type="int" >        4       52       52       54       80 </v>
   <v type="int" >        4       52       54       80       82 </v>
   <v type="int" >        4       51       52       79       80 </v>
   <v type="int" >        4       52       79       80       80 </v>
   <v type="int" >        4       52       80       80       82 </v>
   <v type="int" >        4       48       49       51       79 </v>
   <v type="int" >        4       49       51       52       79 </v>
   <v type="int" >        4       49       52       79       80 </v>
   <v type="int" >        4       48       49       76       79 </v>
   <v type="int" >        4       49       76       77       79 </v>
   <v type="int" >        4       49       77       79       80 </v>
   <v type="int" >        4       44       45       48       76 </v>
   <v type="int" >        4       45       48       49       76 </v>
   <v type="int" >        4       45       49       76       77 </v>
   <v type="int" >        4       44       45       72       76 </v>
   <v type="int" >        4       45       72       73       76 </v>
   <v type="int" >        4       45       73       76       77 </v>
   <v type="int" >        4       39       40       44       72 </v>
   <v type="int" >        4       40       44       45       72 </v>
   <v type="int" >        4       40       45       72       73 </v>
   <v type="int" >        4       39       40       67       72 </v>
   <v type="int" >        4       40       67       68       72 </v>
   <v type="int" >        4       40       68       72       73 </v>
   <v type="int" >        4       33       34       39       67 </v>
   <v type="int" >        4       34       39       40       67 </v>
   <v type="int" >        4       34       40       67       68 </v>
   <v type="int" >        4       33       34       61       67 </v>
   <v type="int" >        4       34       61       62       67 </v>
   <v type="int" >        4       34       62       67       68 </v>
   <v type="int" >        4       54       55       56       82 </v>
   <v type="int" >        4       55       56       82       83 </v>
   <v type="int" >        4       56       82       83       84 </v>
   <v type="int" >        4       54       55       55       83 </v>
   <v type="int" >        4       55       55       56       83 </v>
   <v type="int" >        4       55       56       83       84 </v>
   <v type="int" >        4       54       55       82       83 </v>
   <v type="int" >        4       55       82       83       83 </v>
   <v type="int" >        4       55       83       83       84 </v>
   <v type="int" >        4       52       53       54       82 </v>
   <v type="int" >        4       53       54       55       82 </v>
   <v type="int" >        4       53       55       82       83 </v>
   <v type="int" >        4       52       53       80       82 </v>
   <v type="int" >        4       53       80       81       82 </v>
   <v type="int" >        4       53       81       82       83 </v>
   <v type="int" >        4       49       50       52       80 </v>
   <v type="int" >        4       50       52       53       80 </v>
   <v type="int" >        4       50       53       80       81 </v>
   <v type="int" >        4       49       50       77       80 </v>
   <v type="int" >        4       50       77       78       80 </v>
   <v type="int" >        4       50       78       80       81 </v>
   <v type="int" >        4       45       46       49       77 </v>
   <v type="int" >        4       46       49       50       77 </v>
   <v type="int" >        4       46       50       77       78 </v>
   <v type="int" >        4       45       46       73       77 </v>
   <v type="int" >        4       46       73       74       77 </v>
   <v type="int" >        4       46       74       77       78 </v>
   <v type="int" >        4       40       41       45       73 </v>
   <v type="int" >        4       41       45       46       73 </v>
   <v type="int" >        4       41       46       73       74 </v>
   <v type="int" >        4       40       41       68       73 </v>
   <v type="int" >        4       41       68       69       73 </v>
   <v type="int" >        4       41       69       73       74 </v>
   <v type="int" >        4       34       35       40       68 </v>
   <v type="int" >        4       35       40       41       68 </v>
   <v type="int" >        4       35       41       68       69 </v>
   <v type="int" >        4       34       35       62       68 </v>
   <v type="int" >        4       35       62       63       68 </v>
   <v type="int" >        4       35       63       68       69 </v>
   <v type="int" >        4       54       55       56       84 </v>
   <v type="int" >        4       54       55       83       84 </v>
   <v type="int" >        4       54       82       83       84 </v>
   <v type="int" >        4       52       53       55       83 </v>
   <v type="int" >        4       52       54       55       83 </v>
   <v type="int" >        4       52       54       82       83 </v>
   <v type="int" >        4       52       53       81       83 </v>
   <v type="int" >        4       52       80       81       83 </v>
   <v type="int" >        4       52       80       82       83 </v>
   <v type="int" >        4       49       50       53       81 </v>
   <v type="int" >        4       49       52       53       81 </v>
   <v type="int" >        4       49       52       80       81 </v>
   <v type="int" >        4       49       50       78       81 </v>
   <v type="int" >        4       49       77       78       81 </v>
   <v type="int" >        4       49       77       80       81 </v>
   <v type="int" >        4       45       46       50       78 </v>
   <v type="int" >        4       45       49       50       78 </v>
   <v type="int" >        4       45       49       77       78 </v>
   <v type="int" >        4       45       46       74       78 </v>
   <v type="int" >        4       45       73       74       78 </v>
   <v type="int" >        4       45       73       77       78 </v>
   <v type="int" >        4       40       41       46       74 </v>
   <v type="int" >        4       40       45       46       74 </v>
   <v type="int" >        4       40       45       73       74 </v>
   <v type="int" >        4       40       41       69       74 </v>
   <v type="int" >        4       40       68       69       74 </v>
   <v type="int" >        4       40       68       73       74 </v>
   <v type="int" >        4       34       35       41       69 </v>
   <v type="int" >        4       34       40       41       69 </v>
   <v type="int" >        4       34       40       68       69 </v>
   <v type="int" >        4       34       35       63       69 </v>
   <v type="int" >        4       34       62       63       69 </v>
   <v type="int" >        4       34       62       68       69 </v>
   <v type="int" >        4       51       52       54       82 </v>
   <v type="int" >        4       51       52       80       82 </v>
   <v type="int" >        4       51       79       80       82 </v>
   <v type="int" >        4       48       49       52       80 </v>
   <v type="int" >        4       48       51       52       80 </v>
   <v type="int" >        4       48       51       79       80 </v>
   <v type="int" >        4       48       49       77       80 </v>
   <v type="int" >        4       48       76       77       80 </v>
   <v type="int" >        4       48       76       79       80 </v>
   <v type="int" >        4       44       45       49       77 </v>
   <v type="int" >        4       44       48       49       77 </v>
   <v type="int" >        4       44       48       76       77 </v>
   <v type="int" >        4       44       45       73       77 </v>
   <v type="int" >        4       44       72       73       77 </v>
   <v type="int" >        4       44       72       76       77 </v>
   <v type="int" >        4       39       40       45       73 </v>
   <v type="int" >        4       39       44       45       73 </v>
   <v type="int" >        4       39       44       72       73 </v>
   <v type="int" >        4       39       40       68       73 </v>
   <v type="int" >        4       39       67       68       73 </v>
   <v type="int" >        4       39       67       72       73 </v>
   <v type="int" >        4       33       34       40       68 </v>
   <v type="int" >        4       33       39       40       68 </v>
   <v type="int" >        4       33       39       67       68 </v>
   <v type="int" >        4       33       34       62       68 </v>
   <v type="int" >        4       33       61       62       68 </v>
   <v type="int" >        4       33       61       67       68 </v>
   <v type="int" >        4       47       48       51       79 </v>
   <v type="int" >        4       47       48       76       79 </v>
   <v type="int" >        4       47       75       76       79 </v>
   <v type="int" >        4       43       44       48       76 </v>
   <v type="int" >        4       43       47       48       76 </v>
   <v type="int" >        4       43       47       75       76 </v>
   <v type="int" >        4       43       44       72       76 </v>
   <v type="int" >        4       43       71       72       76 </v>
   <v type="int" >        4       43       71       75       76 </v>
   <v type="int" >        4       38       39       44       72 </v>
   <v type="int" >        4       38       43       44       72 </v>
   <v type="int" >        4       38       43       71       72 </v>
   <v type="int" >        4       38       39       67       72 </v>
   <v type="int" >        4       38       66       67       72 </v>
   <v type="int" >        4       38       66       71       72 </v>
   <v type="int" >        4       32       33       39       67 </v>
   <v type="int" >        4       32       38       39       67 </v>
   <v type="int" >        4       32       38       66       67 </v>
   <v type="int" >        4       32       33       61       67 </v>
   <v type="int" >        4       32       60       61       67 </v>
   <v type="int" >        4       32       60       66       67 </v>
   <v type="int" >        4       42       43       47       75 </v>
   <v type="int" >        4       42       43       71       75 </v>
   <v type="int" >        4       42       70       71       75 </v>
   <v type="int" >        4       37       38       43       71 </v>
   <v type="int" >        4       37       42       43       71 </v>
   <v type="int" >        4       37       42       70       71 </v>
   <v type="int" >        4       37       38       66       71 </v>
   <v type="int" >        4       37       65       66       71 </v>
   <v type="int" >        4       37       65       70       71 </v>
   <v type="int" >        4       31       32       38       66 </v>
   <v type="int" >        4       31       37       38       66 </v>
   <v type="int" >        4       31       37       65       66 </v>
   <v type="int" >        4       31       32       60       66 </v>
   <v type="int" >        4       31       59       60       66 </v>
   <v type="int" >        4       31       59       65       66 </v>
   <v type="int" >        4       36       37       42       70 </v>
   <v type="int" >        4       36       37       65       70 </v>
   <v type="int" >        4       36       64       65       70 </v>
   <v type="int" >        4       30       31       37       65 </v>
   <v type="int" >        4       30       36       37       65 </v>
   <v type="int" >        4       30       36       64       65 </v>
   <v type="int" >        4       30       31       59       65 </v>
   <v type="int" >        4       30       58       59       65 </v>
   <v type="int" >        4       30       58       64       65 </v>
   <v type="int" >        4       29       30       36       64 </v>
   <v type="int" >        4       29       30       58       64 </v>
[...]
       <r>   -6.1387    1.0000 </r>
       <r>   -6.1387    1.0000 </r>
       <r>   -2.3559    1.0000 </r>
       <r>   -2.3559    1.0000 </r>
       <r>   -2.3559    1.0000 </r>
       <r>   -2.3559    1.0000 </r>
       <r>    6.8290    1.0000 </r>
       <r>    6.8290    1.0000 </r>
       <r>    6.8290    1.0000 </r>
       <r>    6.8290    1.0000 </r>
       <r>    7.5175    1.0000 </r>
       <r>    7.5175    1.0000 </r>
       <r>    7.5175    1.0000 </r>
       <r>    7.5175    1.0000 </r>
       <r>   18.9462    0.0000 </r>
       <r>   18.9462    0.0000 </r>
       <r>   18.9462    0.0000 </r>
       <r>   18.9462    0.0000 </r>
       <r>   19.6040    0.0000 </r>
       <r>   19.6040    0.0000 </r>
       <r>   19.6040    0.0000 </r>
       <r>   19.6040    0.0000 </r>
      </set>
      <set comment="kpoint 194">
       <r>   -6.2628    1.0000 </r>
       <r>   -6.2628    1.0000 </r>
       <r>   -5.4310    1.0000 </r>
       <r>   -5.4310    1.0000 </r>
       <r>   -3.2913    1.0000 </r>
       <r>   -3.2913    1.0000 </r>
       <r>   -2.4781    1.0000 </r>
       <r>   -2.4781    1.0000 </r>
       <r>    7.1464    1.0000 </r>
       <r>    7.1464    1.0000 </r>
       <r>    7.2884    1.0000 </r>
       <r>    7.2884    1.0000 </r>
       <r>    7.3535    1.0000 </r>
       <r>    7.3535    1.0000 </r>
       <r>    7.8254    1.0000 </r>
       <r>    7.8254    1.0000 </r>
       <r>   18.8894    0.0000 </r>
       <r>   18.8894    0.0000 </r>
       <r>   19.0472    0.0000 </r>
       <r>   19.0472    0.0000 </r>
       <r>   19.2395    0.0000 </r>
       <r>   19.2395    0.0000 </r>
       <r>   19.6934    0.0000 </r>
       <r>   19.6934    0.0000 </r>
      </set>
      <set comment="kpoint 195">
       <r>   -5.7485    1.0000 </r>
       <r>   -5.7485    1.0000 </r>
       <r>   -5.7485    1.0000 </r>
       <r>   -5.7485    1.0000 </r>
       <r>   -3.1017    1.0000 </r>
       <r>   -3.1017    1.0000 </r>
       <r>   -3.1017    1.0000 </r>
       <r>   -3.1017    1.0000 </r>
       <r>    7.2677    1.0000 </r>
       <r>    7.2677    1.0000 </r>
       <r>    7.2677    1.0000 </r>
       <r>    7.2677    1.0000 </r>
       <r>    7.7757    1.0000 </r>
       <r>    7.7757    1.0000 </r>
       <r>    7.7757    1.0000 </r>
       <r>    7.7757    1.0000 </r>
       <r>   18.9254    0.0000 </r>
       <r>   18.9254    0.0000 </r>
       <r>   18.9254    0.0000 </r>
       <r>   18.9254    0.0000 </r>
       <r>   19.4691    0.0000 </r>
       <r>   19.4691    0.0000 </r>
       <r>   19.4691    0.0000 </r>
       <r>   19.4691    0.0000 </r>
      </set>
      <set comment="kpoint 196">
       <r>   -5.5508    1.0000 </r>
       <r>   -5.5508    1.0000 </r>
       <r>   -5.5508    1.0000 </r>
       <r>   -5.5508    1.0000 </r>
       <r>   -3.4187    1.0000 </r>
       <r>   -3.4187    1.0000 </r>
       <r>   -3.4187    1.0000 </r>
       <r>   -3.4187    1.0000 </r>
       <r>    7.3478    1.0000 </r>
       <r>    7.3478    1.0000 </r>
       <r>    7.3478    1.0000 </r>
       <r>    7.3478    1.0000 </r>
       <r>    7.9455    1.0000 </r>
       <r>    7.9455    1.0000 </r>
       <r>    7.9455    1.0000 </r>
       <r>    7.9455    1.0000 </r>
       <r>   18.8791    0.0000 </r>
       <r>   18.8791    0.0000 </r>
       <r>   18.8791    0.0000 </r>
       <r>   18.8791    0.0000 </r>
       <r>   19.4604    0.0000 </r>
       <r>   19.4604    0.0000 </r>
       <r>   19.4604    0.0000 </r>
       <r>   19.4604    0.0000 </r>
      </set>
     </set>
    </set>
   </array>
  </eigenvalues>
  <separator name="orbital magnetization" >
   <v name="MAGDIPOLOUT">      0.00000000      0.00000000      0.00000000</v>
  </separator>
  <dos>
   <i name="efermi">     10.77451293 </i>
   <total>
    <array>
     <dimension dim="1">gridpoints</dimension>
     <dimension dim="2">spin</dimension>
     <field>energy</field>
     <field>total</field>
     <field>integrated</field>
     <set>
      <set comment="spin 1">
       <r>   -13.3821     0.0000     0.0000 </r>
       <r>   -13.2557     0.0000     0.0000 </r>
       <r>   -13.1294     0.0000     0.0000 </r>
       <r>   -13.0030     0.0000     0.0000 </r>
       <r>   -12.8766     0.0000     0.0000 </r>
       <r>   -12.7502     0.0000     0.0000 </r>
       <r>   -12.6238     0.0000     0.0000 </r>
       <r>   -12.4974     0.0000     0.0000 </r>
       <r>   -12.3710     0.0000     0.0000 </r>
       <r>   -12.2446     0.0000     0.0000 </r>
       <r>   -12.1182     0.0000     0.0000 </r>
       <r>   -11.9918     0.0000     0.0000 </r>
       <r>   -11.8654     0.0000     0.0000 </r>
       <r>   -11.7390     0.0000     0.0000 </r>
       <r>   -11.6127     0.0331     0.0005 </r>
       <r>   -11.4863     0.1473     0.0148 </r>
       <r>   -11.3599     0.2304     0.0386 </r>
       <r>   -11.2335     0.2608     0.0694 </r>
       <r>   -11.1071     0.3060     0.1052 </r>
       <r>   -10.9807     0.3451     0.1468 </r>
       <r>   -10.8543     0.3723     0.1920 </r>
       <r>   -10.7279     0.4017     0.2409 </r>
       <r>   -10.6015     0.4374     0.2939 </r>
       <r>   -10.4751     0.4607     0.3508 </r>
       <r>   -10.3487     0.4827     0.4104 </r>
       <r>   -10.2223     0.5070     0.4729 </r>
       <r>   -10.0959     0.5338     0.5387 </r>
       <r>    -9.9696     0.5586     0.6078 </r>
       <r>    -9.8432     0.5778     0.6797 </r>
       <r>    -9.7168     0.5971     0.7539 </r>
       <r>    -9.5904     0.6174     0.8307 </r>
       <r>    -9.4640     0.6388     0.9100 </r>
       <r>    -9.3376     0.6612     0.9922 </r>
       <r>    -9.2112     0.6823     1.0771 </r>
       <r>    -9.0848     0.6987     1.1644 </r>
       <r>    -8.9584     0.7155     1.2537 </r>
       <r>    -8.8320     0.7339     1.3453 </r>
       <r>    -8.7056     0.7532     1.4393 </r>
       <r>    -8.5792     0.7731     1.5357 </r>
       <r>    -8.4529     0.7921     1.6347 </r>
       <r>    -8.3265     0.8107     1.7360 </r>
       <r>    -8.2001     0.8266     1.8394 </r>
       <r>    -8.0737     0.8437     1.9450 </r>
       <r>    -7.9473     0.8618     2.0528 </r>
       <r>    -7.8209     0.8803     2.1629 </r>
       <r>    -7.6945     0.9118     2.2756 </r>
       <r>    -7.5681     0.9571     2.3938 </r>
       <r>    -7.4417     0.9970     2.5172 </r>
       <r>    -7.3153     1.0325     2.6457 </r>
       <r>    -7.1889     1.0401     2.7771 </r>
       <r>    -7.0625     1.0200     2.9075 </r>
       <r>    -6.9362     0.9938     3.0348 </r>
       <r>    -6.8098     1.0029     3.1607 </r>
       <r>    -6.6834     1.0074     3.2880 </r>
       <r>    -6.5570     1.0063     3.4150 </r>
       <r>    -6.4306     1.0277     3.5434 </r>
       <r>    -6.3042     1.0795     3.6761 </r>
       <r>    -6.1778     1.1355     3.8164 </r>
       <r>    -6.0514     1.1914     3.9642 </r>
       <r>    -5.9250     1.2031     4.1150 </r>
       <r>    -5.7986     1.2635     4.2710 </r>
       <r>    -5.6722     1.3787     4.4360 </r>
       <r>    -5.5458     1.5309     4.6213 </r>
       <r>    -5.4194     1.4760     4.8166 </r>
       <r>    -5.2931     1.4471     5.0018 </r>
       <r>    -5.1667     1.4020     5.1856 </r>
       <r>    -5.0403     1.2982     5.3536 </r>
       <r>    -4.9139     1.2998     5.5182 </r>
       <r>    -4.7875     1.3474     5.6847 </r>
       <r>    -4.6611     1.2925     5.8553 </r>
       <r>    -4.5347     1.1684     6.0112 </r>
       <r>    -4.4083     1.1634     6.1579 </r>
       <r>    -4.2819     1.1285     6.3030 </r>
       <r>    -4.1555     1.1118     6.4437 </r>
       <r>    -4.0291     1.1287     6.5854 </r>
       <r>    -3.9027     1.0362     6.7198 </r>
       <r>    -3.7764     1.0053     6.8490 </r>
       <r>    -3.6500     0.9810     6.9754 </r>
       <r>    -3.5236     0.9463     7.0967 </r>
       <r>    -3.3972     0.9095     7.2140 </r>
       <r>    -3.2708     0.9889     7.3306 </r>
       <r>    -3.1444     1.0897     7.4658 </r>
       <r>    -3.0180     1.1148     7.6026 </r>
       <r>    -2.8916     1.1002     7.7449 </r>
       <r>    -2.7652     1.0643     7.8809 </r>
       <r>    -2.6388     1.0357     8.0135 </r>
       <r>    -2.5124     1.0861     8.1492 </r>
       <r>    -2.3860     1.0906     8.2862 </r>
       <r>    -2.2597     1.0165     8.4212 </r>
       <r>    -2.1333     0.9996     8.5470 </r>
       <r>    -2.0069     1.0735     8.6770 </r>
       <r>    -1.8805     1.1764     8.8199 </r>
       <r>    -1.7541     1.3192     8.9768 </r>
       <r>    -1.6277     1.5167     9.1561 </r>
       <r>    -1.5013     1.8133     9.3651 </r>
       <r>    -1.3749     2.1121     9.6144 </r>
       <r>    -1.2485     2.5685     9.9093 </r>
       <r>    -1.1221     2.3967    10.2343 </r>
       <r>    -0.9957     2.0912    10.5187 </r>
       <r>    -0.8693     1.8338    10.7704 </r>
       <r>    -0.7429     1.6455    10.9911 </r>
       <r>    -0.6166     1.5107    11.1890 </r>
       <r>    -0.4902     1.4276    11.3744 </r>
       <r>    -0.3638     1.3614    11.5506 </r>
       <r>    -0.2374     1.3191    11.7195 </r>
       <r>    -0.1110     1.2984    11.8847 </r>
       <r>     0.0154     1.2776    12.0477 </r>
       <r>     0.1418     1.2035    12.2048 </r>
       <r>     0.2682     1.1510    12.3525 </r>
       <r>     0.3946     1.1588    12.4985 </r>
       <r>     0.5210     1.1158    12.6458 </r>
       <r>     0.6474     1.0944    12.7851 </r>
       <r>     0.7738     1.0862    12.9227 </r>
       <r>     0.9001     1.1378    13.0605 </r>
       <r>     1.0265     1.4043    13.2215 </r>
       <r>     1.1529     1.7478    13.4216 </r>
       <r>     1.2793     1.9819    13.6579 </r>
       <r>     1.4057     2.2193    13.9243 </r>
       <r>     1.5321     2.1005    14.1990 </r>
       <r>     1.6585     2.0231    14.4590 </r>
       <r>     1.7849     2.0902    14.7173 </r>
       <r>     1.9113     2.1139    14.9842 </r>
       <r>     2.0377     2.1160    15.2506 </r>
       <r>     2.1641     1.7483    15.5014 </r>
       <r>     2.2905     1.3444    15.6963 </r>
       <r>     2.4168     1.4562    15.8681 </r>
       <r>     2.5432     1.7850    16.0696 </r>
       <r>     2.6696     2.1526    16.3207 </r>
       <r>     2.7960     2.2132    16.5991 </r>
       <r>     2.9224     2.2450    16.8805 </r>
       <r>     3.0488     2.2672    17.1663 </r>
       <r>     3.1752     2.2829    17.4539 </r>
       <r>     3.3016     2.2808    17.7407 </r>
       <r>     3.4280     2.6062    18.0451 </r>
       <r>     3.5544     2.8253    18.3951 </r>
       <r>     3.6808     2.8699    18.7507 </r>
       <r>     3.8072     2.7103    19.0980 </r>
       <r>     3.9336     2.5274    19.4417 </r>
       <r>     4.0599     2.4513    19.7464 </r>
       <r>     4.1863     2.6143    20.0622 </r>
       <r>     4.3127     2.9678    20.4121 </r>
       <r>     4.4391     3.2670    20.8102 </r>
       <r>     4.5655     3.3637    21.2300 </r>
       <r>     4.6919     3.1476    21.6447 </r>
       <r>     4.8183     3.0013    22.0319 </r>
       <r>     4.9447     2.8037    22.3944 </r>
       <r>     5.0711     2.7066    22.7461 </r>
       <r>     5.1975     2.6031    23.0815 </r>
       <r>     5.3239     2.5723    23.4094 </r>
       <r>     5.4503     2.6112    23.7373 </r>
       <r>     5.5766     2.9342    24.0816 </r>
       <r>     5.7030     2.8883    24.4530 </r>
       <r>     5.8294     2.8439    24.8149 </r>
       <r>     5.9558     2.8795    25.1766 </r>
       <r>     6.0822     2.8578    25.5409 </r>
       <r>     6.2086     2.5689    25.8850 </r>
       <r>     6.3350     2.3577    26.1942 </r>
       <r>     6.4614     2.3052    26.4877 </r>
       <r>     6.5878     2.3347    26.7767 </r>
       <r>     6.7142     2.4698    27.0847 </r>
       <r>     6.8406     2.5687    27.4033 </r>
       <r>     6.9670     2.6202    27.7304 </r>
       <r>     7.0933     2.5475    28.0578 </r>
       <r>     7.2197     2.4723    28.3773 </r>
       <r>     7.3461     2.1893    28.6766 </r>
       <r>     7.4725     2.3576    28.9592 </r>
       <r>     7.5989     2.3400    29.2656 </r>
       <r>     7.7253     1.9881    29.5344 </r>
       <r>     7.8517     1.8800    29.7781 </r>
       <r>     7.9781     1.7217    30.0119 </r>
       <r>     8.1045     1.4918    30.2127 </r>
       <r>     8.2309     1.3682    30.3934 </r>
       <r>     8.3573     1.3004    30.5619 </r>
       <r>     8.4837     1.1752    30.7183 </r>
       <r>     8.6101     1.0814    30.8614 </r>
       <r>     8.7364     0.9997    30.9929 </r>
       <r>     8.8628     0.9354    31.1150 </r>
       <r>     8.9892     0.8666    31.2285 </r>
       <r>     9.1156     0.8191    31.3351 </r>
       <r>     9.2420     0.7398    31.4335 </r>
       <r>     9.3684     0.6731    31.5231 </r>
       <r>     9.4948     0.6142    31.6042 </r>
       <r>     9.6212     0.5605    31.6778 </r>
       <r>     9.7476     0.5172    31.7463 </r>
       <r>     9.8740     0.4380    31.8067 </r>
       <r>    10.0004     0.3771    31.8577 </r>
       <r>    10.1268     0.3101    31.9016 </r>
       <r>    10.2531     0.2476    31.9370 </r>
       <r>    10.3795     0.1997    31.9657 </r>
       <r>    10.5059     0.1294    31.9854 </r>
       <r>    10.6323     0.0549    31.9978 </r>
       <r>    10.7587     0.0002    32.0000 </r>
       <r>    10.8851     0.0000    32.0000 </r>
       <r>    11.0115     0.0000    32.0000 </r>
       <r>    11.1379     0.0000    32.0000 </r>
       <r>    11.2643     0.0000    32.0000 </r>
       <r>    11.3907     0.0000    32.0000 </r>
       <r>    11.5171     0.0000    32.0000 </r>
       <r>    11.6435     0.0000    32.0000 </r>
       <r>    11.7698     0.0000    32.0000 </r>
       <r>    11.8962     0.0000    32.0000 </r>
       <r>    12.0226     0.0000    32.0000 </r>
       <r>    12.1490     0.0000    32.0000 </r>
       <r>    12.2754     0.0000    32.0000 </r>
       <r>    12.4018     0.0000    32.0000 </r>
       <r>    12.5282     0.0000    32.0000 </r>
       <r>    12.6546     0.0000    32.0000 </r>
       <r>    12.7810     0.0000    32.0000 </r>
       <r>    12.9074     0.0000    32.0000 </r>
       <r>    13.0338     0.0000    32.0000 </r>
       <r>    13.1602     0.0000    32.0000 </r>
       <r>    13.2866     0.0000    32.0000 </r>
       <r>    13.4129     0.0000    32.0000 </r>
       <r>    13.5393     0.0000    32.0000 </r>
       <r>    13.6657     0.0000    32.0000 </r>
       <r>    13.7921     0.0000    32.0000 </r>
       <r>    13.9185     0.0000    32.0000 </r>
       <r>    14.0449     0.0000    32.0000 </r>
       <r>    14.1713     0.0000    32.0000 </r>
       <r>    14.2977     0.0000    32.0000 </r>
       <r>    14.4241     0.0000    32.0000 </r>
       <r>    14.5505     0.0000    32.0000 </r>
       <r>    14.6769     0.0262    32.0007 </r>
       <r>    14.8033     0.1230    32.0097 </r>
       <r>    14.9296     0.2721    32.0339 </r>
       <r>    15.0560     0.3539    32.0743 </r>
       <r>    15.1824     0.3705    32.1210 </r>
       <r>    15.3088     0.4679    32.1722 </r>
       <r>    15.4352     0.5801    32.2388 </r>
       <r>    15.5616     0.7022    32.3191 </r>
       <r>    15.6880     1.0584    32.4241 </r>
       <r>    15.8144     1.0132    32.5574 </r>
       <r>    15.9408     1.1390    32.6921 </r>
       <r>    16.0672     1.1633    32.8373 </r>
       <r>    16.1936     1.2472    32.9902 </r>
       <r>    16.3200     1.3883    33.1557 </r>
       <r>    16.4463     1.7124    33.3472 </r>
       <r>    16.5727     1.7030    33.5642 </r>
       <r>    16.6991     1.7811    33.7847 </r>
       <r>    16.8255     1.8349    34.0150 </r>
       <r>    16.9519     1.8555    34.2499 </r>
       <r>    17.0783     1.8946    34.4871 </r>
       <r>    17.2047     1.9810    34.7316 </r>
       <r>    17.3311     2.0579    34.9869 </r>
       <r>    17.4575     2.1468    35.2528 </r>
       <r>    17.5839     2.2482    35.5302 </r>
       <r>    17.7103     2.3198    35.8197 </r>
       <r>    17.8367     2.3534    36.1140 </r>
       <r>    17.9631     2.5167    36.4191 </r>
       <r>    18.0894     2.5841    36.7432 </r>
       <r>    18.2158     2.6903    37.0761 </r>
       <r>    18.3422     2.9313    37.4292 </r>
       <r>    18.4686     3.1568    37.8163 </r>
       <r>    18.5950     3.2832    38.2212 </r>
       <r>    18.7214     3.8209    38.6617 </r>
       <r>    18.8478     4.1881    39.1711 </r>
       <r>    18.9742     4.3810    39.7887 </r>
       <r>    19.1006     3.3278    40.2493 </r>
       <r>    19.2270     2.7093    40.6473 </r>
       <r>    19.3534     2.8093    40.9830 </r>
       <r>    19.4798     3.2898    41.3899 </r>
       <r>    19.6061     3.1020    41.7845 </r>
       <r>    19.7325     3.0972    42.1786 </r>
       <r>    19.8589     2.9634    42.5652 </r>
       <r>    19.9853     3.0881    42.9450 </r>
       <r>    20.1117     3.3241    43.3490 </r>
       <r>    20.2381     2.9912    43.7403 </r>
       <r>    20.3645     2.9927    44.1190 </r>
       <r>    20.4909     2.9240    44.4908 </r>
       <r>    20.6173     2.9418    44.8589 </r>
       <r>    20.7437     2.8769    45.2304 </r>
       <r>    20.8701     2.7208    45.5837 </r>
       <r>    20.9965     2.6547    45.9248 </r>
       <r>    21.1228     2.5769    46.2553 </r>
       <r>    21.2492     2.6232    46.5834 </r>
       <r>    21.3756     2.4429    46.9089 </r>
       <r>    21.5020     2.0588    47.1955 </r>
       <r>    21.6284     1.6042    47.4263 </r>
       <r>    21.7548     1.3822    47.6128 </r>
       <r>    21.8812     1.1061    47.7706 </r>
       <r>    22.0076     0.6394    47.8842 </r>
       <r>    22.1340     0.3149    47.9395 </r>
       <r>    22.2604     0.1726    47.9690 </r>
       <r>    22.3868     0.0990    47.9858 </r>
       <r>    22.5132     0.0489    47.9949 </r>
       <r>    22.6396     0.0164    47.9989 </r>
       <r>    22.7659     0.0025    47.9999 </r>
       <r>    22.8923     0.0000    48.0000 </r>
       <r>    23.0187     0.0000    48.0000 </r>
       <r>    23.1451     0.0000    48.0000 </r>
       <r>    23.2715     0.0000    48.0000 </r>
       <r>    23.3979     0.0000    48.0000 </r>
       <r>    23.5243     0.0000    48.0000 </r>
       <r>    23.6507     0.0000    48.0000 </r>
       <r>    23.7771     0.0000    48.0000 </r>
       <r>    23.9035     0.0000    48.0000 </r>
       <r>    24.0299     0.0000    48.0000 </r>
       <r>    24.1563     0.0000    48.0000 </r>
       <r>    24.2826     0.0000    48.0000 </r>
       <r>    24.4090     0.0000    48.0000 </r>
       <r>    24.5354     0.0000    48.0000 </r>
      </set>
     </set>
    </array>
   </total>
  </dos>
 </calculation>
 <structure name="finalpos" >
  <crystal>
   <varray name="basis" >
    <v>       3.46484000       0.00000000       0.00000000 </v>
    <v>       0.00000000       3.46484000       0.00000000 </v>
    <v>       0.00000000       0.00000000       3.57371000 </v>
   </varray>
   <i name="volume">     42.90280391 </i>
   <varray name="rec_basis" >
    <v>       0.28861362       0.00000000       0.00000000 </v>
    <v>       0.00000000       0.28861362       0.00000000 </v>
    <v>       0.00000000       0.00000000       0.27982125 </v>
   </varray>
  </crystal>
  <varray name="positions" >
   <v>       0.25000000       0.75000000       0.25000000 </v>
   <v>       0.00000000       0.00000000       0.50000000 </v>
   <v>       0.25000000       0.25000000       0.75000000 </v>
   <v>       0.00000000       0.50000000       0.00000000 </v>
   <v>       0.75000000       0.75000000       0.75000000 </v>
   <v>       0.50000000       0.00000000       0.00000000 </v>
   <v>       0.75000000       0.25000000       0.25000000 </v>
   <v>       0.50000000       0.50000000       0.50000000 </v>
  </varray>
 </structure>
</modeling>
