  64  64   0   0
  0.6311783E+01  0.7392262E-09  0.7392262E-09  0.7392262E-09  0.5000000E-15
  1.000000000000000E-004
  CAR 
 unknown system                          
     20.50522796    -13.36752755  301      8.54391117      1.00000000
    -13.368  0.0000E+00  0.0000E+00
    -13.255  0.0000E+00  0.0000E+00
    -13.142  0.0000E+00  0.0000E+00
    -13.029  0.0000E+00  0.0000E+00
    -12.916  0.0000E+00  0.0000E+00
    -12.803  0.0000E+00  0.0000E+00
    -12.690  0.0000E+00  0.0000E+00
    -12.577  0.0000E+00  0.0000E+00
    -12.464  0.0000E+00  0.0000E+00
    -12.351  0.0000E+00  0.0000E+00
    -12.238  0.0000E+00  0.0000E+00
    -12.126  0.9352E-13  0.1056E-13
    -12.013  0.5481E-06  0.6188E-07
    -11.900  0.4189E-02  0.4730E-03
    -11.787  0.2603E+00  0.2986E-01
    -11.674  0.1283E+01  0.1747E+00
    -11.561  0.1526E+01  0.3470E+00
    -11.448  0.2957E+01  0.6809E+00
    -11.335  0.1685E+01  0.8711E+00
    -11.222  0.3733E+01  0.1293E+01
    -11.109  0.3064E+01  0.1639E+01
    -10.996  0.4042E+01  0.2095E+01
    -10.884  0.2543E+01  0.2382E+01
    -10.771  0.4864E+01  0.2931E+01
    -10.658  0.4658E+01  0.3457E+01
    -10.545  0.5307E+01  0.4056E+01
    -10.432  0.2589E+01  0.4349E+01
    -10.319  0.4967E+01  0.4909E+01
    -10.206  0.6701E+01  0.5666E+01
    -10.093  0.5939E+01  0.6337E+01
     -9.980  0.4668E+01  0.6864E+01
     -9.867  0.4463E+01  0.7368E+01
     -9.754  0.7279E+01  0.8190E+01
     -9.642  0.5453E+01  0.8805E+01
     -9.529  0.5835E+01  0.9464E+01
     -9.416  0.7415E+01  0.1030E+02
     -9.303  0.7737E+01  0.1117E+02
     -9.190  0.6632E+01  0.1192E+02
     -9.077  0.5620E+01  0.1256E+02
     -8.964  0.4516E+01  0.1307E+02
     -8.851  0.9654E+01  0.1416E+02
     -8.738  0.8200E+01  0.1508E+02
     -8.625  0.9681E+01  0.1618E+02
     -8.512  0.6424E+01  0.1690E+02
     -8.400  0.6899E+01  0.1768E+02
     -8.287  0.8131E+01  0.1860E+02
     -8.174  0.7674E+01  0.1947E+02
     -8.061  0.8004E+01  0.2037E+02
     -7.948  0.1099E+02  0.2161E+02
     -7.835  0.1064E+02  0.2281E+02
     -7.722  0.5245E+01  0.2340E+02
     -7.609  0.9666E+01  0.2450E+02
     -7.496  0.1434E+02  0.2611E+02
     -7.383  0.8354E+01  0.2706E+02
     -7.270  0.5733E+01  0.2770E+02
     -7.158  0.1058E+02  0.2890E+02
     -7.045  0.1075E+02  0.3011E+02
     -6.932  0.1168E+02  0.3143E+02
     -6.819  0.1424E+02  0.3304E+02
     -6.706  0.1249E+02  0.3445E+02
     -6.593  0.1430E+02  0.3606E+02
     -6.480  0.1191E+02  0.3741E+02
     -6.367  0.6784E+01  0.3818E+02
     -6.254  0.1752E+02  0.4015E+02
     -6.141  0.1535E+02  0.4189E+02
     -6.028  0.9146E+01  0.4292E+02
     -5.916  0.9863E+01  0.4403E+02
     -5.803  0.1608E+02  0.4585E+02
     -5.690  0.1190E+02  0.4719E+02
     -5.577  0.1142E+02  0.4848E+02
     -5.464  0.8740E+01  0.4947E+02
     -5.351  0.1164E+02  0.5078E+02
     -5.238  0.1248E+02  0.5219E+02
     -5.125  0.3477E+01  0.5258E+02
     -5.012  0.1092E+02  0.5382E+02
     -4.899  0.1092E+02  0.5505E+02
     -4.786  0.4866E+01  0.5560E+02
     -4.674  0.9818E+01  0.5671E+02
     -4.561  0.1203E+02  0.5807E+02
     -4.448  0.1162E+02  0.5938E+02
     -4.335  0.7553E+01  0.6023E+02
     -4.222  0.3418E+01  0.6062E+02
     -4.109  0.5146E+01  0.6120E+02
     -3.996  0.4478E+01  0.6170E+02
     -3.883  0.2679E+01  0.6201E+02
     -3.770  0.6994E+01  0.6280E+02
     -3.657  0.1220E+02  0.6417E+02
     -3.544  0.1118E+02  0.6544E+02
     -3.432  0.5227E+01  0.6603E+02
     -3.319  0.7959E+01  0.6693E+02
     -3.206  0.1076E+02  0.6814E+02
     -3.093  0.1153E+02  0.6944E+02
     -2.980  0.6874E+01  0.7022E+02
     -2.867  0.8849E+01  0.7122E+02
     -2.754  0.1516E+02  0.7293E+02
     -2.641  0.1006E+02  0.7407E+02
     -2.528  0.2060E+02  0.7639E+02
     -2.415  0.4541E+02  0.8152E+02
     -2.302  0.2667E+02  0.8453E+02
     -2.190  0.8219E+01  0.8546E+02
     -2.077  0.1143E+02  0.8675E+02
     -1.964  0.1715E+02  0.8868E+02
     -1.851  0.8345E+01  0.8963E+02
     -1.738  0.9535E+01  0.9070E+02
     -1.625  0.1531E+02  0.9243E+02
     -1.512  0.1308E+02  0.9391E+02
     -1.399  0.1189E+02  0.9525E+02
     -1.286  0.9920E+01  0.9637E+02
     -1.173  0.1260E+02  0.9779E+02
     -1.060  0.1580E+02  0.9958E+02
     -0.948  0.1014E+02  0.1007E+03
     -0.835  0.3524E+01  0.1011E+03
     -0.722  0.5261E+01  0.1017E+03
     -0.609  0.5056E+01  0.1023E+03
     -0.496  0.1533E+02  0.1040E+03
     -0.383  0.7388E+01  0.1049E+03
     -0.270  0.5977E+01  0.1055E+03
     -0.157  0.9195E+01  0.1066E+03
     -0.044  0.1021E+02  0.1077E+03
      0.069  0.1494E+02  0.1094E+03
      0.182  0.1539E+02  0.1111E+03
      0.294  0.1401E+02  0.1127E+03
      0.407  0.1631E+02  0.1146E+03
      0.520  0.1741E+02  0.1165E+03
      0.633  0.1536E+02  0.1183E+03
      0.746  0.2241E+02  0.1208E+03
      0.859  0.1855E+02  0.1229E+03
      0.972  0.1117E+02  0.1242E+03
      1.085  0.2536E+02  0.1270E+03
      1.198  0.2125E+02  0.1294E+03
      1.311  0.7540E+01  0.1303E+03
      1.424  0.2095E+02  0.1326E+03
      1.536  0.2230E+02  0.1351E+03
      1.649  0.2670E+02  0.1382E+03
      1.762  0.1179E+02  0.1395E+03
      1.875  0.1179E+02  0.1408E+03
      1.988  0.2027E+02  0.1431E+03
      2.101  0.2332E+02  0.1457E+03
      2.214  0.2457E+02  0.1485E+03
      2.327  0.2462E+02  0.1513E+03
      2.440  0.2173E+02  0.1538E+03
      2.553  0.2870E+02  0.1570E+03
      2.666  0.2526E+02  0.1598E+03
      2.778  0.2391E+02  0.1625E+03
      2.891  0.1629E+02  0.1644E+03
      3.004  0.3082E+02  0.1679E+03
      3.117  0.3347E+02  0.1716E+03
      3.230  0.3936E+02  0.1761E+03
      3.343  0.2442E+02  0.1788E+03
      3.456  0.1238E+02  0.1802E+03
      3.569  0.2435E+02  0.1830E+03
      3.682  0.3304E+02  0.1867E+03
      3.795  0.1952E+02  0.1889E+03
      3.908  0.2821E+02  0.1921E+03
      4.020  0.2998E+02  0.1955E+03
      4.133  0.2529E+02  0.1984E+03
      4.246  0.1968E+02  0.2006E+03
      4.359  0.2511E+02  0.2034E+03
      4.472  0.2480E+02  0.2062E+03
      4.585  0.2383E+02  0.2089E+03
      4.698  0.2837E+02  0.2121E+03
      4.811  0.1711E+02  0.2140E+03
      4.924  0.2120E+02  0.2164E+03
      5.037  0.2492E+02  0.2192E+03
      5.150  0.2638E+02  0.2222E+03
      5.262  0.2814E+02  0.2254E+03
      5.375  0.2101E+02  0.2278E+03
      5.488  0.1515E+02  0.2295E+03
      5.601  0.1667E+02  0.2314E+03
      5.714  0.2367E+02  0.2340E+03
      5.827  0.3325E+02  0.2378E+03
      5.940  0.1428E+02  0.2394E+03
      6.053  0.9089E+01  0.2404E+03
      6.166  0.1396E+02  0.2420E+03
      6.279  0.1411E+02  0.2436E+03
      6.392  0.8328E+01  0.2445E+03
      6.504  0.1544E+02  0.2463E+03
      6.617  0.1150E+02  0.2476E+03
      6.730  0.6581E+01  0.2483E+03
      6.843  0.8879E+01  0.2493E+03
      6.956  0.8333E+01  0.2503E+03
      7.069  0.6995E+01  0.2511E+03
      7.182  0.7672E+01  0.2519E+03
      7.295  0.5115E+01  0.2525E+03
      7.408  0.5059E+01  0.2531E+03
      7.521  0.7210E+01  0.2539E+03
      7.634  0.4671E+01  0.2544E+03
      7.746  0.2297E+01  0.2547E+03
      7.859  0.3392E+01  0.2551E+03
      7.972  0.3754E+01  0.2555E+03
      8.085  0.2799E+01  0.2558E+03
      8.198  0.1032E+01  0.2559E+03
      8.311  0.7112E+00  0.2560E+03
      8.424  0.3679E-01  0.2560E+03
      8.537  0.1966E-04  0.2560E+03
      8.650  0.1496E-10  0.2560E+03
      8.763  0.0000E+00  0.2560E+03
      8.876  0.0000E+00  0.2560E+03
      8.988  0.0000E+00  0.2560E+03
      9.101  0.0000E+00  0.2560E+03
      9.214  0.0000E+00  0.2560E+03
      9.327  0.0000E+00  0.2560E+03
      9.440  0.0000E+00  0.2560E+03
      9.553  0.0000E+00  0.2560E+03
      9.666  0.0000E+00  0.2560E+03
      9.779  0.0000E+00  0.2560E+03
      9.892  0.0000E+00  0.2560E+03
     10.005  0.0000E+00  0.2560E+03
     10.118  0.0000E+00  0.2560E+03
     10.230  0.0000E+00  0.2560E+03
     10.343  0.0000E+00  0.2560E+03
     10.456  0.0000E+00  0.2560E+03
     10.569  0.0000E+00  0.2560E+03
     10.682  0.0000E+00  0.2560E+03
     10.795  0.0000E+00  0.2560E+03
     10.908  0.0000E+00  0.2560E+03
     11.021  0.0000E+00  0.2560E+03
     11.134  0.0000E+00  0.2560E+03
     11.247  0.0000E+00  0.2560E+03
     11.360  0.0000E+00  0.2560E+03
     11.472  0.0000E+00  0.2560E+03
     11.585  0.0000E+00  0.2560E+03
     11.698  0.0000E+00  0.2560E+03
     11.811  0.0000E+00  0.2560E+03
     11.924  0.1001E-08  0.2560E+03
     12.037  0.3795E-03  0.2560E+03
     12.150  0.2283E+00  0.2560E+03
     12.263  0.1097E+01  0.2561E+03
     12.376  0.9300E+00  0.2563E+03
     12.489  0.4532E+01  0.2568E+03
     12.602  0.4939E+01  0.2573E+03
     12.714  0.7202E+01  0.2581E+03
     12.827  0.5944E+01  0.2588E+03
     12.940  0.4093E+01  0.2593E+03
     13.053  0.3296E+01  0.2596E+03
     13.166  0.1150E+02  0.2609E+03
     13.279  0.2217E+02  0.2634E+03
     13.392  0.9909E+01  0.2646E+03
     13.505  0.9760E+01  0.2657E+03
     13.618  0.1104E+02  0.2669E+03
     13.731  0.1649E+02  0.2688E+03
     13.844  0.1225E+02  0.2702E+03
     13.956  0.1363E+02  0.2717E+03
     14.069  0.2185E+02  0.2742E+03
     14.182  0.1899E+02  0.2763E+03
     14.295  0.2295E+02  0.2789E+03
     14.408  0.1437E+02  0.2805E+03
     14.521  0.1904E+02  0.2827E+03
     14.634  0.2184E+02  0.2851E+03
     14.747  0.2366E+02  0.2878E+03
     14.860  0.2383E+02  0.2905E+03
     14.973  0.1425E+02  0.2921E+03
     15.086  0.2379E+02  0.2948E+03
     15.198  0.3075E+02  0.2983E+03
     15.311  0.1282E+02  0.2997E+03
     15.424  0.2424E+02  0.3024E+03
     15.537  0.3949E+02  0.3069E+03
     15.650  0.4802E+02  0.3123E+03
     15.763  0.3921E+02  0.3168E+03
     15.876  0.3519E+02  0.3207E+03
     15.989  0.2595E+02  0.3237E+03
     16.102  0.3318E+02  0.3274E+03
     16.215  0.4323E+02  0.3323E+03
     16.328  0.4067E+02  0.3369E+03
     16.440  0.4387E+02  0.3418E+03
     16.553  0.3323E+02  0.3456E+03
     16.666  0.3805E+02  0.3499E+03
     16.779  0.3895E+02  0.3543E+03
     16.892  0.2984E+02  0.3576E+03
     17.005  0.1886E+02  0.3598E+03
     17.118  0.1653E+02  0.3616E+03
     17.231  0.2517E+02  0.3645E+03
     17.344  0.3547E+02  0.3685E+03
     17.457  0.3416E+02  0.3723E+03
     17.570  0.2571E+02  0.3752E+03
     17.682  0.1492E+02  0.3769E+03
     17.795  0.1836E+02  0.3790E+03
     17.908  0.1366E+02  0.3805E+03
     18.021  0.5091E+01  0.3811E+03
     18.134  0.6630E+01  0.3819E+03
     18.247  0.7299E+01  0.3827E+03
     18.360  0.3664E+01  0.3831E+03
     18.473  0.1038E+01  0.3832E+03
     18.586  0.1533E+01  0.3834E+03
     18.699  0.5907E-01  0.3834E+03
     18.812  0.8789E+00  0.3835E+03
     18.924  0.3198E+01  0.3839E+03
     19.037  0.1142E+01  0.3840E+03
     19.150  0.2535E-01  0.3840E+03
     19.263  0.3304E-05  0.3840E+03
     19.376  0.5614E-12  0.3840E+03
     19.489  0.0000E+00  0.3840E+03
     19.602  0.0000E+00  0.3840E+03
     19.715  0.0000E+00  0.3840E+03
     19.828  0.0000E+00  0.3840E+03
     19.941  0.0000E+00  0.3840E+03
     20.054  0.0000E+00  0.3840E+03
     20.167  0.0000E+00  0.3840E+03
     20.279  0.0000E+00  0.3840E+03
     20.392  0.0000E+00  0.3840E+03
     20.505  0.0000E+00  0.3840E+03
