mesh: [    48,    48,    48 ]
nqpoint: 2600   
reciprocal_lattice:
- [   0.27055319,   0.00000000,   0.00000000 ] # a*
- [   0.00000000,   0.27055319,   0.00000000 ] # b*
- [   0.00000000,   0.00000000,   0.27055319 ] # c*
natom:   8      
lattice:
- [     3.696130923159654,     0.000000000000000,     0.000000000000000 ] # a
- [     0.000000000000000,     3.696130923159654,     0.000000000000000 ] # b
- [     0.000000000000000,     0.000000000000000,     3.696130923159654 ] # c
points:
- symbol: C  # 1
  coordinates: [  0.250000000000000,  0.750000000000000,  0.250000000000000 ]
  mass: 12.010700
- symbol: C  # 2
  coordinates: [  0.000000000000000,  0.000000000000000,  0.500000000000000 ]
  mass: 12.010700
- symbol: C  # 3
  coordinates: [  0.250000000000000,  0.250000000000000,  0.750000000000000 ]
  mass: 12.010700
- symbol: C  # 4
  coordinates: [  0.000000000000000,  0.500000000000000,  0.000000000000000 ]
  mass: 12.010700
- symbol: C  # 5
  coordinates: [  0.750000000000000,  0.750000000000000,  0.750000000000000 ]
  mass: 12.010700
- symbol: C  # 6
  coordinates: [  0.500000000000000,  0.000000000000000,  0.000000000000000 ]
  mass: 12.010700
- symbol: C  # 7
  coordinates: [  0.750000000000000,  0.250000000000000,  0.250000000000000 ]
  mass: 12.010700
- symbol: C  # 8
  coordinates: [  0.500000000000000,  0.500000000000000,  0.500000000000000 ]
  mass: 12.010700

phonon:
- q-position: [    0.0104167,    0.0104167,    0.0104167 ]
  distance_from_gamma:  0.004881374
  weight: 8    
  band:
  - # 1
    frequency:     0.5545949860
  - # 2
    frequency:     0.5545949860
  - # 3
    frequency:     0.7952507499
  - # 4
    frequency:    22.6841296547
  - # 5
    frequency:    22.6841296547
  - # 6
    frequency:    22.6841296547
  - # 7
    frequency:    22.6944519150
  - # 8
    frequency:    22.6944519150
  - # 9
    frequency:    22.6944519150
  - # 10
    frequency:    26.8613925509
  - # 11
    frequency:    26.8613925509
  - # 12
    frequency:    26.8613925509
  - # 13
    frequency:    26.8640789926
  - # 14
    frequency:    26.8640789926
  - # 15
    frequency:    26.8640789926
  - # 16
    frequency:    32.2832385068
  - # 17
    frequency:    32.2832385068
  - # 18
    frequency:    32.2832385068
  - # 19
    frequency:    32.5836560066
  - # 20
    frequency:    32.5836560066
  - # 21
    frequency:    32.5836560066
  - # 22
    frequency:    34.8872084077
  - # 23
    frequency:    34.8872084077
  - # 24
    frequency:    34.8919219918

- q-position: [    0.0312500,    0.0104167,    0.0104167 ]
  distance_from_gamma:  0.009347119
  weight: 24   
  band:
  - # 1
    frequency:     1.0600474837
  - # 2
    frequency:     1.0612403319
  - # 3
    frequency:     1.5236891801
  - # 4
    frequency:    22.6269630471
  - # 5
    frequency:    22.6372133928
  - # 6
    frequency:    22.6896231944
  - # 7
    frequency:    22.6896231944
  - # 8
    frequency:    22.7205438595
  - # 9
    frequency:    22.7205438595
  - # 10
    frequency:    26.8578790402
  - # 11
    frequency:    26.8578790402
  - # 12
    frequency:    26.8659490997
  - # 13
    frequency:    26.8659490997
  - # 14
    frequency:    26.9085381115
  - # 15
    frequency:    26.9112057968
  - # 16
    frequency:    31.9664490422
  - # 17
    frequency:    32.2690521975
  - # 18
    frequency:    32.2690521975
  - # 19
    frequency:    32.5694109515
  - # 20
    frequency:    32.5694109515
  - # 21
    frequency:    32.8676454867
  - # 22
    frequency:    34.8758622372
  - # 23
    frequency:    34.8764176314
  - # 24
    frequency:    34.8961393557

- q-position: [    0.0520833,    0.0104167,    0.0104167 ]
  distance_from_gamma:  0.014644121
  weight: 24   
  band:
  - # 1
    frequency:     1.6594583500
  - # 2
    frequency:     1.6609059788
  - # 3
    frequency:     2.3867711300
  - # 4
    frequency:    22.5160351659
  - # 5
    frequency:    22.5261593032
  - # 6
    frequency:    22.7108419466
  - # 7
    frequency:    22.7108419466
  - # 8
    frequency:    22.7622260779
  - # 9
    frequency:    22.7622260779
  - # 10
    frequency:    26.8535185542
  - # 11
    frequency:    26.8535185542
  - # 12
    frequency:    26.8670051556
  - # 13
    frequency:    26.8670051556
  - # 14
    frequency:    26.9993642627
  - # 15
    frequency:    27.0020185892
  - # 16
    frequency:    31.6330019687
  - # 17
    frequency:    32.2408131251
  - # 18
    frequency:    32.2408131251
  - # 19
    frequency:    32.5410393570
  - # 20
    frequency:    32.5410393570
  - # 21
    frequency:    33.1355276302
  - # 22
    frequency:    34.8531910247
  - # 23
    frequency:    34.8538425286
  - # 24
    frequency:    34.9055272362

- q-position: [    0.0729167,    0.0104167,    0.0104167 ]
  distance_from_gamma:  0.020126419
  weight: 24   
  band:
  - # 1
    frequency:     2.2789437439
  - # 2
    frequency:     2.2806555803
  - # 3
    frequency:     3.2778555051
  - # 4
    frequency:    22.3570880433
  - # 5
    frequency:    22.3670575722
  - # 6
    frequency:    22.7475594937
  - # 7
    frequency:    22.7475594937
  - # 8
    frequency:    22.8191856404
  - # 9
    frequency:    22.8191856404
  - # 10
    frequency:    26.8482835533
  - # 11
    frequency:    26.8482835533
  - # 12
    frequency:    26.8672381384
  - # 13
    frequency:    26.8672381384
  - # 14
    frequency:    27.1280174990
  - # 15
    frequency:    27.1307049352
  - # 16
    frequency:    31.2827871228
  - # 17
    frequency:    32.1987895210
  - # 18
    frequency:    32.1987895210
  - # 19
    frequency:    32.4987791059
  - # 20
    frequency:    32.4987791059
  - # 21
    frequency:    33.3874850163
  - # 22
    frequency:    34.8192370388
  - # 23
    frequency:    34.8199259379
  - # 24
    frequency:    34.9195626007

- q-position: [    0.0937500,    0.0104167,    0.0104167 ]
  distance_from_gamma:  0.025675592
  weight: 24   
  band:
  - # 1
    frequency:     2.9045847017
  - # 2
    frequency:     2.9065948871
  - # 3
    frequency:     4.1768615475
  - # 4
    frequency:    22.1567403141
  - # 5
    frequency:    22.1665503540
  - # 6
    frequency:    22.7994124577
  - # 7
    frequency:    22.7994124577
  - # 8
    frequency:    22.8909783120
  - # 9
    frequency:    22.8909783120
  - # 10
    frequency:    26.8421382299
  - # 11
    frequency:    26.8421382299
  - # 12
    frequency:    26.8666257448
  - # 13
    frequency:    26.8666257448
  - # 14
    frequency:    27.2877219835
  - # 15
    frequency:    27.2905419881
  - # 16
    frequency:    30.9157047047
  - # 17
    frequency:    32.1433866448
  - # 18
    frequency:    32.1433866448
  - # 19
    frequency:    32.4429891974
  - # 20
    frequency:    32.4429891974
  - # 21
    frequency:    33.6237333355
  - # 22
    frequency:    34.7740637086
  - # 23
    frequency:    34.7747784631
  - # 24
    frequency:    34.9380160437

- q-position: [    0.1145833,    0.0104167,    0.0104167 ]
  distance_from_gamma:  0.031256042
  weight: 24   
  band:
  - # 1
    frequency:     3.5318998037
  - # 2
    frequency:     3.5342286387
  - # 3
    frequency:     5.0772010182
  - # 4
    frequency:    21.9213256738
  - # 5
    frequency:    21.9309869338
  - # 6
    frequency:    22.8658999373
  - # 7
    frequency:    22.8658999373
  - # 8
    frequency:    22.9770302111
  - # 9
    frequency:    22.9770302111
  - # 10
    frequency:    26.8350378302
  - # 11
    frequency:    26.8350378302
  - # 12
    frequency:    26.8651292118
  - # 13
    frequency:    26.8651292118
  - # 14
    frequency:    27.4719344759
  - # 15
    frequency:    27.4750596624
  - # 16
    frequency:    30.5316952070
  - # 17
    frequency:    32.0751504601
  - # 18
    frequency:    32.0751504601
  - # 19
    frequency:    32.3741524888
  - # 20
    frequency:    32.3741524888
  - # 21
    frequency:    33.8445059250
  - # 22
    frequency:    34.7177556521
  - # 23
    frequency:    34.7184943074
  - # 24
    frequency:    34.9606377051

- q-position: [    0.1354167,    0.0104167,    0.0104167 ]
  distance_from_gamma:  0.036853563
  weight: 24   
  band:
  - # 1
    frequency:     4.1588467677
  - # 2
    frequency:     4.1615049664
  - # 3
    frequency:     5.9757670379
  - # 4
    frequency:    21.6562803099
  - # 5
    frequency:    21.6658108756
  - # 6
    frequency:    22.9463825256
  - # 7
    frequency:    22.9463825256
  - # 8
    frequency:    23.0766392686
  - # 9
    frequency:    23.0766392686
  - # 10
    frequency:    26.8269275772
  - # 11
    frequency:    26.8269275772
  - # 12
    frequency:    26.8626893806
  - # 13
    frequency:    26.8626893806
  - # 14
    frequency:    27.6749222325
  - # 15
    frequency:    27.6786553173
  - # 16
    frequency:    30.1307782296
  - # 17
    frequency:    31.9947728261
  - # 18
    frequency:    31.9947728261
  - # 19
    frequency:    32.2928795713
  - # 20
    frequency:    32.2928795713
  - # 21
    frequency:    34.0500528838
  - # 22
    frequency:    34.6504187049
  - # 23
    frequency:    34.6511820835
  - # 24
    frequency:    34.9871287372

- q-position: [    0.1562500,    0.0104167,    0.0104167 ]
  distance_from_gamma:  0.042461404
  weight: 24   
  band:
  - # 1
    frequency:     4.7842332483
  - # 2
    frequency:     4.7872257140
  - # 3
    frequency:     6.8706727457
  - # 4
    frequency:    21.3659755778
  - # 5
    frequency:    21.3753949055
  - # 6
    frequency:    23.0400804969
  - # 7
    frequency:    23.0400804969
  - # 8
    frequency:    23.1889760661
  - # 9
    frequency:    23.1889760661
  - # 10
    frequency:    26.8177413956
  - # 11
    frequency:    26.8177413956
  - # 12
    frequency:    26.8592219750
  - # 13
    frequency:    26.8592219750
  - # 14
    frequency:    27.8918096761
  - # 15
    frequency:    27.8967636273
  - # 16
    frequency:    29.7131743081
  - # 17
    frequency:    31.9030984318
  - # 18
    frequency:    31.9030984318
  - # 19
    frequency:    32.1999139620
  - # 20
    frequency:    32.1999139620
  - # 21
    frequency:    34.2406412855
  - # 22
    frequency:    34.5721799447
  - # 23
    frequency:    34.5729697862
  - # 24
    frequency:    35.0171390888

- q-position: [    0.1770833,    0.0104167,    0.0104167 ]
  distance_from_gamma:  0.048075954
  weight: 24   
  band:
  - # 1
    frequency:     5.4072248486
  - # 2
    frequency:     5.4105527897
  - # 3
    frequency:     7.7605539672
  - # 4
    frequency:    21.0537958385
  - # 5
    frequency:    21.0631212223
  - # 6
    frequency:    23.1460705943
  - # 7
    frequency:    23.1460705943
  - # 8
    frequency:    23.3130835743
  - # 9
    frequency:    23.3130835743
  - # 10
    frequency:    26.8074006905
  - # 11
    frequency:    26.8074006905
  - # 12
    frequency:    26.8546121440
  - # 13
    frequency:    26.8546121440
  - # 14
    frequency:    28.1179464454
  - # 15
    frequency:    28.1257816659
  - # 16
    frequency:    29.2798602052
  - # 17
    frequency:    31.8011337127
  - # 18
    frequency:    31.8011337127
  - # 19
    frequency:    32.0961388299
  - # 20
    frequency:    32.0961388299
  - # 21
    frequency:    34.4165556592
  - # 22
    frequency:    34.4831877036
  - # 23
    frequency:    34.4840060107
  - # 24
    frequency:    35.0502694649

- q-position: [    0.1979167,    0.0104167,    0.0104167 ]
  distance_from_gamma:  0.053695110
  weight: 24   
  band:
  - # 1
    frequency:     6.0271591119
  - # 2
    frequency:     6.0308212126
  - # 3
    frequency:     8.6443068459
  - # 4
    frequency:    20.7223086899
  - # 5
    frequency:    20.7315535822
  - # 6
    frequency:    23.2632807335
  - # 7
    frequency:    23.2632807335
  - # 8
    frequency:    23.4478752161
  - # 9
    frequency:    23.4478752161
  - # 10
    frequency:    26.7958135583
  - # 11
    frequency:    26.7958135583
  - # 12
    frequency:    26.8487084408
  - # 13
    frequency:    26.8487084408
  - # 14
    frequency:    28.3434445859
  - # 15
    frequency:    28.3629019058
  - # 16
    frequency:    28.8378636246
  - # 17
    frequency:    31.6900579523
  - # 18
    frequency:    31.6900579523
  - # 19
    frequency:    31.9825854911
  - # 20
    frequency:    31.9825854911
  - # 21
    frequency:    34.3836115597
  - # 22
    frequency:    34.3844603281
  - # 23
    frequency:    34.5780985822
  - # 24
    frequency:    35.0860744867

- q-position: [    0.2187500,    0.0104167,    0.0104167 ]
  distance_from_gamma:  0.059317561
  weight: 24   
  band:
  - # 1
    frequency:     6.6434647431
  - # 2
    frequency:     6.6474578392
  - # 3
    frequency:     9.5209747049
  - # 4
    frequency:    20.3734454491
  - # 5
    frequency:    20.3826189315
  - # 6
    frequency:    23.3904818101
  - # 7
    frequency:    23.3904818101
  - # 8
    frequency:    23.5921305467
  - # 9
    frequency:    23.5921305467
  - # 10
    frequency:    26.7828750131
  - # 11
    frequency:    26.7828750131
  - # 12
    frequency:    26.8413166222
  - # 13
    frequency:    26.8413166222
  - # 14
    frequency:    28.3145352367
  - # 15
    frequency:    28.6059352076
  - # 16
    frequency:    28.6387291794
  - # 17
    frequency:    31.5712366332
  - # 18
    frequency:    31.5712366332
  - # 19
    frequency:    31.8604438866
  - # 20
    frequency:    31.8604438866
  - # 21
    frequency:    34.2736422975
  - # 22
    frequency:    34.2745233967
  - # 23
    frequency:    34.7255913242
  - # 24
    frequency:    35.1240664037

- q-position: [    0.2395833,    0.0104167,    0.0104167 ]
  distance_from_gamma:  0.064942452
  weight: 24   
  band:
  - # 1
    frequency:     7.2556228416
  - # 2
    frequency:     7.2599423294
  - # 3
    frequency:    10.3896942760
  - # 4
    frequency:    20.0086584993
  - # 5
    frequency:    20.0177653807
  - # 6
    frequency:    23.5262756685
  - # 7
    frequency:    23.5262756685
  - # 8
    frequency:    23.7444876637
  - # 9
    frequency:    23.7444876637
  - # 10
    frequency:    26.7684691316
  - # 11
    frequency:    26.7684691316
  - # 12
    frequency:    26.8321940595
  - # 13
    frequency:    26.8321940595
  - # 14
    frequency:    27.8488641212
  - # 15
    frequency:    28.8531571135
  - # 16
    frequency:    28.8630694488
  - # 17
    frequency:    31.4462368116
  - # 18
    frequency:    31.4462368116
  - # 19
    frequency:    31.7310751797
  - # 20
    frequency:    31.7310751797
  - # 21
    frequency:    34.1534918282
  - # 22
    frequency:    34.1544069522
  - # 23
    frequency:    34.8593745118
  - # 24
    frequency:    35.1637191410

- q-position: [    0.2604167,    0.0104167,    0.0104167 ]
  distance_from_gamma:  0.070569200
  weight: 24   
  band:
  - # 1
    frequency:     7.8631469044
  - # 2
    frequency:     7.8677870005
  - # 3
    frequency:    11.2496682849
  - # 4
    frequency:    19.6290472073
  - # 5
    frequency:    19.6380884229
  - # 6
    frequency:    23.6690781604
  - # 7
    frequency:    23.6690781604
  - # 8
    frequency:    23.9034311789
  - # 9
    frequency:    23.9034311789
  - # 10
    frequency:    26.7524745131
  - # 11
    frequency:    26.7524745131
  - # 12
    frequency:    26.8210462525
  - # 13
    frequency:    26.8210462525
  - # 14
    frequency:    27.3468201261
  - # 15
    frequency:    29.1031856704
  - # 16
    frequency:    29.1091148577
  - # 17
    frequency:    31.3168437255
  - # 18
    frequency:    31.3168437255
  - # 19
    frequency:    31.5960264291
  - # 20
    frequency:    31.5960264291
  - # 21
    frequency:    34.0233930589
  - # 22
    frequency:    34.0243437168
  - # 23
    frequency:    34.9798087814
  - # 24
    frequency:    35.2044725665

- q-position: [    0.2812500,    0.0104167,    0.0104167 ]
  distance_from_gamma:  0.076197392
  weight: 24   
  band:
  - # 1
    frequency:     8.4655719998
  - # 2
    frequency:     8.4705259136
  - # 3
    frequency:    12.1001507593
  - # 4
    frequency:    19.2354545136
  - # 5
    frequency:    19.2444276410
  - # 6
    frequency:    23.8170961135
  - # 7
    frequency:    23.8170961135
  - # 8
    frequency:    24.0672741159
  - # 9
    frequency:    24.0672741159
  - # 10
    frequency:    26.7347751843
  - # 11
    frequency:    26.7347751843
  - # 12
    frequency:    26.8075281338
  - # 13
    frequency:    26.8075281338
  - # 14
    frequency:    26.8249537306
  - # 15
    frequency:    29.3548886078
  - # 16
    frequency:    29.3592032978
  - # 17
    frequency:    31.1850768854
  - # 18
    frequency:    31.1850768854
  - # 19
    frequency:    31.4570469587
  - # 20
    frequency:    31.4570469587
  - # 21
    frequency:    33.8835997004
  - # 22
    frequency:    33.8845872337
  - # 23
    frequency:    35.0872753972
  - # 24
    frequency:    35.2457368965

- q-position: [    0.3020833,    0.0104167,    0.0104167 ]
  distance_from_gamma:  0.081826732
  weight: 24   
  band:
  - # 1
    frequency:     9.0624487611
  - # 2
    frequency:     9.0677088145
  - # 3
    frequency:    12.9404388884
  - # 4
    frequency:    18.8285394637
  - # 5
    frequency:    18.8374392577
  - # 6
    frequency:    23.9682969975
  - # 7
    frequency:    23.9682969975
  - # 8
    frequency:    24.2341313302
  - # 9
    frequency:    24.2341313302
  - # 10
    frequency:    26.2849286666
  - # 11
    frequency:    26.7152801252
  - # 12
    frequency:    26.7152801252
  - # 13
    frequency:    26.7912547606
  - # 14
    frequency:    26.7912547606
  - # 15
    frequency:    29.6073145430
  - # 16
    frequency:    29.6107606788
  - # 17
    frequency:    31.0532023527
  - # 18
    frequency:    31.0532023527
  - # 19
    frequency:    31.3161054951
  - # 20
    frequency:    31.3161054951
  - # 21
    frequency:    33.7343860031
  - # 22
    frequency:    33.7354116252
  - # 23
    frequency:    35.1821768071
  - # 24
    frequency:    35.2868971674

- q-position: [    0.3229167,    0.0104167,    0.0104167 ]
  distance_from_gamma:  0.087456998
  weight: 24   
  band:
  - # 1
    frequency:     9.6533400760
  - # 2
    frequency:     9.6588977896
  - # 3
    frequency:    13.7698684211
  - # 4
    frequency:    18.4088311070
  - # 5
    frequency:    18.4176500073
  - # 6
    frequency:    24.1203702506
  - # 7
    frequency:    24.1203702506
  - # 8
    frequency:    24.4018807533
  - # 9
    frequency:    24.4018807533
  - # 10
    frequency:    25.7272254740
  - # 11
    frequency:    26.6939559451
  - # 12
    frequency:    26.6939559451
  - # 13
    frequency:    26.7718289032
  - # 14
    frequency:    26.7718289032
  - # 15
    frequency:    29.8596427241
  - # 16
    frequency:    29.8625481953
  - # 17
    frequency:    30.9237356276
  - # 18
    frequency:    30.9237356276
  - # 19
    frequency:    31.1754063323
  - # 20
    frequency:    31.1754063323
  - # 21
    frequency:    33.5760464155
  - # 22
    frequency:    33.5771112691
  - # 23
    frequency:    35.2649371118
  - # 24
    frequency:    35.3273177122

- q-position: [    0.3437500,    0.0104167,    0.0104167 ]
  distance_from_gamma:  0.093088021
  weight: 24   
  band:
  - # 1
    frequency:    10.2378193622
  - # 2
    frequency:    10.2436655213
  - # 3
    frequency:    14.5878110435
  - # 4
    frequency:    17.9767683547
  - # 5
    frequency:    17.9854969453
  - # 6
    frequency:    24.2706799328
  - # 7
    frequency:    24.2706799328
  - # 8
    frequency:    24.5681067295
  - # 9
    frequency:    24.5681067295
  - # 10
    frequency:    25.1520846318
  - # 11
    frequency:    26.6708787106
  - # 12
    frequency:    26.6708787106
  - # 13
    frequency:    26.7488970797
  - # 14
    frequency:    26.7488970797
  - # 15
    frequency:    30.1111466690
  - # 16
    frequency:    30.1136839466
  - # 17
    frequency:    30.7994264813
  - # 18
    frequency:    30.7994264813
  - # 19
    frequency:    31.0374017485
  - # 20
    frequency:    31.0374017485
  - # 21
    frequency:    33.4088951552
  - # 22
    frequency:    33.4100003896
  - # 23
    frequency:    35.3360024216
  - # 24
    frequency:    35.3663465810

- q-position: [    0.3645833,    0.0104167,    0.0104167 ]
  distance_from_gamma:  0.098719672
  weight: 24   
  band:
  - # 1
    frequency:    10.8154698150
  - # 2
    frequency:    10.8215945222
  - # 3
    frequency:    15.3936728831
  - # 4
    frequency:    17.5327293778
  - # 5
    frequency:    17.5413567928
  - # 6
    frequency:    24.4162103302
  - # 7
    frequency:    24.4162103302
  - # 8
    frequency:    24.5596857101
  - # 9
    frequency:    24.7300168160
  - # 10
    frequency:    24.7300168160
  - # 11
    frequency:    26.6463117750
  - # 12
    frequency:    26.6463117750
  - # 13
    frequency:    26.7222503745
  - # 14
    frequency:    26.7222503745
  - # 15
    frequency:    30.3611680759
  - # 16
    frequency:    30.3634388108
  - # 17
    frequency:    30.6832133653
  - # 18
    frequency:    30.6832133653
  - # 19
    frequency:    30.9047969402
  - # 20
    frequency:    30.9047969402
  - # 21
    frequency:    33.2332656921
  - # 22
    frequency:    33.2344125591
  - # 23
    frequency:    35.3958410763
  - # 24
    frequency:    35.4033198544

- q-position: [    0.3854167,    0.0104167,    0.0104167 ]
  distance_from_gamma:  0.104351849
  weight: 24   
  band:
  - # 1
    frequency:    11.3858842629
  - # 2
    frequency:    11.3922769838
  - # 3
    frequency:    16.1868936508
  - # 4
    frequency:    17.0770532377
  - # 5
    frequency:    17.0855675132
  - # 6
    frequency:    23.9501990978
  - # 7
    frequency:    24.5535109816
  - # 8
    frequency:    24.5535109816
  - # 9
    frequency:    24.8843205524
  - # 10
    frequency:    24.8843205524
  - # 11
    frequency:    26.6208148412
  - # 12
    frequency:    26.6208148412
  - # 13
    frequency:    26.6919898566
  - # 14
    frequency:    26.6919898566
  - # 15
    frequency:    30.5781312275
  - # 16
    frequency:    30.5781312275
  - # 17
    frequency:    30.6090982747
  - # 18
    frequency:    30.6111672679
  - # 19
    frequency:    30.7805437449
  - # 20
    frequency:    30.7805437449
  - # 21
    frequency:    33.0495101438
  - # 22
    frequency:    33.0507001140
  - # 23
    frequency:    35.4375658019
  - # 24
    frequency:    35.4449437029

- q-position: [    0.4062500,    0.0104167,    0.0104167 ]
  distance_from_gamma:  0.109984472
  weight: 24   
  band:
  - # 1
    frequency:    11.9486654009
  - # 2
    frequency:    11.9553150062
  - # 3
    frequency:    16.6100557399
  - # 4
    frequency:    16.6184441161
  - # 5
    frequency:    16.9669461351
  - # 6
    frequency:    23.3238052802
  - # 7
    frequency:    24.6786585708
  - # 8
    frequency:    24.6786585708
  - # 9
    frequency:    25.0270603212
  - # 10
    frequency:    25.0270603212
  - # 11
    frequency:    26.5953815293
  - # 12
    frequency:    26.5953815293
  - # 13
    frequency:    26.6587720704
  - # 14
    frequency:    26.6587720704
  - # 15
    frequency:    30.4871531419
  - # 16
    frequency:    30.4871531419
  - # 17
    frequency:    30.6678225718
  - # 18
    frequency:    30.6678225718
  - # 19
    frequency:    30.8543652009
  - # 20
    frequency:    30.8562761636
  - # 21
    frequency:    32.8579985880
  - # 22
    frequency:    32.8592334918
  - # 23
    frequency:    35.4684088460
  - # 24
    frequency:    35.4838230872

- q-position: [    0.4270833,    0.0104167,    0.0104167 ]
  distance_from_gamma:  0.115617475
  weight: 24   
  band:
  - # 1
    frequency:    12.5034262388
  - # 2
    frequency:    12.5103210457
  - # 3
    frequency:    16.1320409757
  - # 4
    frequency:    16.1402901535
  - # 5
    frequency:    17.7333358693
  - # 6
    frequency:    22.6807035099
  - # 7
    frequency:    24.7872750984
  - # 8
    frequency:    24.7872750984
  - # 9
    frequency:    25.1534057297
  - # 10
    frequency:    25.1534057297
  - # 11
    frequency:    26.5715822404
  - # 12
    frequency:    26.5715822404
  - # 13
    frequency:    26.6241204494
  - # 14
    frequency:    26.6241204494
  - # 15
    frequency:    30.4129422360
  - # 16
    frequency:    30.4129422360
  - # 17
    frequency:    30.5700227300
  - # 18
    frequency:    30.5700227300
  - # 19
    frequency:    31.0964244105
  - # 20
    frequency:    31.0982080696
  - # 21
    frequency:    32.6591183083
  - # 22
    frequency:    32.6604005046
  - # 23
    frequency:    35.4951732949
  - # 24
    frequency:    35.5130138372

- q-position: [    0.4479167,    0.0104167,    0.0104167 ]
  distance_from_gamma:  0.121250805
  weight: 24   
  band:
  - # 1
    frequency:    13.0497906371
  - # 2
    frequency:    13.0569184553
  - # 3
    frequency:    15.6433096292
  - # 4
    frequency:    15.6514059873
  - # 5
    frequency:    18.4856008611
  - # 6
    frequency:    22.0211163596
  - # 7
    frequency:    24.8746766075
  - # 8
    frequency:    24.8746766075
  - # 9
    frequency:    25.2575023238
  - # 10
    frequency:    25.2575023238
  - # 11
    frequency:    26.5516499026
  - # 12
    frequency:    26.5516499026
  - # 13
    frequency:    26.5906966326
  - # 14
    frequency:    26.5906966326
  - # 15
    frequency:    30.3574835377
  - # 16
    frequency:    30.3574835377
  - # 17
    frequency:    30.4907550350
  - # 18
    frequency:    30.4907550350
  - # 19
    frequency:    31.3347530412
  - # 20
    frequency:    31.3364316521
  - # 21
    frequency:    32.4532729946
  - # 22
    frequency:    32.4546055746
  - # 23
    frequency:    35.5171868188
  - # 24
    frequency:    35.5330718151

- q-position: [    0.4687500,    0.0104167,    0.0104167 ]
  distance_from_gamma:  0.126884419
  weight: 24   
  band:
  - # 1
    frequency:    13.5873938215
  - # 2
    frequency:    13.5947420030
  - # 3
    frequency:    15.1441648509
  - # 4
    frequency:    15.1520946275
  - # 5
    frequency:    19.2233113121
  - # 6
    frequency:    21.3452924424
  - # 7
    frequency:    24.9362562563
  - # 8
    frequency:    24.9362562563
  - # 9
    frequency:    25.3326561260
  - # 10
    frequency:    25.3326561260
  - # 11
    frequency:    26.5383881151
  - # 12
    frequency:    26.5383881151
  - # 13
    frequency:    26.5622375204
  - # 14
    frequency:    26.5622375204
  - # 15
    frequency:    30.3215777089
  - # 16
    frequency:    30.3215777089
  - # 17
    frequency:    30.4339442287
  - # 18
    frequency:    30.4339442287
  - # 19
    frequency:    31.5688459207
  - # 20
    frequency:    31.5704359445
  - # 21
    frequency:    32.2408819338
  - # 22
    frequency:    32.2422689721
  - # 23
    frequency:    35.5337836447
  - # 24
    frequency:    35.5445733180

- q-position: [    0.4895833,    0.0104167,    0.0104167 ]
  distance_from_gamma:  0.132518280
  weight: 24   
  band:
  - # 1
    frequency:    14.1158827612
  - # 2
    frequency:    14.1234382605
  - # 3
    frequency:    14.6349162932
  - # 4
    frequency:    14.6426657379
  - # 5
    frequency:    19.9460692755
  - # 6
    frequency:    20.6535082168
  - # 7
    frequency:    24.9681653947
  - # 8
    frequency:    24.9681653947
  - # 9
    frequency:    25.3723580392
  - # 10
    frequency:    25.3723580392
  - # 11
    frequency:    26.5347106486
  - # 12
    frequency:    26.5347106486
  - # 13
    frequency:    26.5427238909
  - # 14
    frequency:    26.5427238909
  - # 15
    frequency:    30.3044242065
  - # 16
    frequency:    30.3044242065
  - # 17
    frequency:    30.4038313284
  - # 18
    frequency:    30.4038313284
  - # 19
    frequency:    31.7982132246
  - # 20
    frequency:    31.7997270056
  - # 21
    frequency:    32.0223792441
  - # 22
    frequency:    32.0238261140
  - # 23
    frequency:    35.5443074571
  - # 24
    frequency:    35.5481139915

- q-position: [    0.0312500,    0.0312500,    0.0104167 ]
  distance_from_gamma:  0.012284521
  weight: 24   
  band:
  - # 1
    frequency:     1.3933416868
  - # 2
    frequency:     1.3956234989
  - # 3
    frequency:     1.9998719658
  - # 4
    frequency:    22.6324244329
  - # 5
    frequency:    22.6324244329
  - # 6
    frequency:    22.6631727450
  - # 7
    frequency:    22.6631727450
  - # 8
    frequency:    22.6744385734
  - # 9
    frequency:    22.7670277126
  - # 10
    frequency:    26.8489807649
  - # 11
    frequency:    26.8731981075
  - # 12
    frequency:    26.9050085864
  - # 13
    frequency:    26.9050085864
  - # 14
    frequency:    26.9130490094
  - # 15
    frequency:    26.9130490094
  - # 16
    frequency:    31.9534021830
  - # 17
    frequency:    31.9534021830
  - # 18
    frequency:    32.2522593787
  - # 19
    frequency:    32.5578859916
  - # 20
    frequency:    32.8525912673
  - # 21
    frequency:    32.8525912673
  - # 22
    frequency:    34.8647732372
  - # 23
    frequency:    34.8680723251
  - # 24
    frequency:    34.8976903388

- q-position: [    0.0520833,    0.0312500,    0.0104167 ]
  distance_from_gamma:  0.016673065
  weight: 48   
  band:
  - # 1
    frequency:     1.8900632162
  - # 2
    frequency:     1.8924687357
  - # 3
    frequency:     2.7126809994
  - # 4
    frequency:    22.5214422368
  - # 5
    frequency:    22.5518915770
  - # 6
    frequency:    22.6534530582
  - # 7
    frequency:    22.6749970018
  - # 8
    frequency:    22.7047163730
  - # 9
    frequency:    22.8288006836
  - # 10
    frequency:    26.8392172905
  - # 11
    frequency:    26.8796464185
  - # 12
    frequency:    26.9005625829
  - # 13
    frequency:    26.9140968938
  - # 14
    frequency:    26.9957559685
  - # 15
    frequency:    27.0037814671
  - # 16
    frequency:    31.6211453537
  - # 17
    frequency:    31.9274564503
  - # 18
    frequency:    32.2189681361
  - # 19
    frequency:    32.5347926569
  - # 20
    frequency:    32.8225927727
  - # 21
    frequency:    33.1199693800
  - # 22
    frequency:    34.8422894797
  - # 23
    frequency:    34.8471492311
  - # 24
    frequency:    34.9053111785

- q-position: [    0.0729167,    0.0312500,    0.0104167 ]
  distance_from_gamma:  0.021647484
  weight: 48   
  band: