       N       E                     dE             d eps       ncg     rms          rms(c)
DAV:   1     0.493651782627E+03    0.49365E+03   -0.11206E+05  7680   0.105E+03
DAV:   2    -0.548271225806E+03   -0.10419E+04   -0.99309E+03 10272   0.224E+02
DAV:   3    -0.590903189151E+03   -0.42632E+02   -0.42366E+02 10240   0.426E+01
DAV:   4    -0.591441799544E+03   -0.53861E+00   -0.53779E+00 10528   0.519E+00
DAV:   5    -0.591450830579E+03   -0.90310E-02   -0.90282E-02  9600   0.659E-01    0.236E+01
DAV:   6    -0.580766035249E+03    0.10685E+02   -0.72463E+00  9120   0.523E+00    0.132E+01
DAV:   7    -0.577147135055E+03    0.36189E+01   -0.85693E+00  9248   0.587E+00    0.185E+00
DAV:   8    -0.577196218561E+03   -0.49084E-01   -0.19997E-01  9760   0.878E-01    0.199E-01
DAV:   9    -0.577198388195E+03   -0.21696E-02   -0.36656E-03 10048   0.141E-01    0.750E-02
DAV:  10    -0.577198853629E+03   -0.46543E-03   -0.46422E-04  9536   0.549E-02    0.764E-03
DAV:  11    -0.577198855775E+03   -0.21457E-05   -0.11609E-05 10016   0.741E-03    0.195E-03
DAV:  12    -0.577198856277E+03   -0.50134E-06   -0.61495E-07  9824   0.182E-03    0.170E-04
DAV:  13    -0.577198856390E+03   -0.11382E-06   -0.10686E-08  7488   0.238E-04    0.430E-05
DAV:  14    -0.577198856393E+03   -0.28303E-08   -0.16065E-09  6976   0.920E-05
   1 F= -.57719886E+03 E0= -.57719886E+03  d E =-.576451E-13
 Linear response reoptimize wavefunctions
DAV:   1    -0.577198856393E+03    0.63028E-09   -0.40949E-10  6112   0.450E-05
DAV:   2    -0.577198856392E+03    0.23010E-09   -0.99557E-11  5728   0.232E-05
DAV:   3    -0.577198856392E+03    0.89130E-10   -0.22134E-11  5760   0.123E-05
 Linear response DOF=           1
 Linear response progress:
  Degree of freedom:   1/  1
       N       E                     dE             d eps       ncg     rms          rms(c)
RMM:   1    -0.138542336169E+00   -0.13854E+00    0.10281E-02 55304   0.702E-01
RMM:   2    -0.120037966688E+00    0.18504E-01   -0.70466E-03 34140   0.179E-01    0.154E-01
RMM:   3    -0.119965890252E+00    0.72076E-04   -0.63622E-04 35737   0.422E-02    0.806E-02
RMM:   4    -0.120146991459E+00   -0.18110E-03   -0.16426E-04 35981   0.225E-02    0.253E-02
RMM:   5    -0.120203274619E+00   -0.56283E-04   -0.11062E-05 36316   0.659E-03    0.608E-03
RMM:   6    -0.120185563249E+00    0.17711E-04   -0.38605E-07 36932   0.185E-03    0.129E-03
RMM:   7    -0.120177344497E+00    0.82188E-05    0.75993E-07 37222   0.634E-04    0.355E-04
RMM:   8    -0.120176971849E+00    0.37265E-06    0.77302E-07 38584   0.291E-04    0.892E-05
RMM:   9    -0.120176734936E+00    0.23691E-06    0.82319E-07 40440   0.207E-04    0.387E-05
RMM:  10    -0.120176874074E+00   -0.13914E-06    0.44986E-07 41706   0.197E-04    0.122E-05
RMM:  11    -0.120176871567E+00    0.25062E-08    0.54420E-07 42048   0.194E-04    0.505E-06
 Linear response finished
