 vasp.5.4.4.18Apr17-6-g9f103f2a35 (build Mar 12 2022 03:36:41) complex          
  
 executed on IFC19.0.3.199_CrayMP date 2022.12.02  02:40:20
 running on   32 total cores
 distrk:  each k-point on   32 cores,    1 groups
 distr:  one band on NCORES_PER_BAND=   1 cores,   32 groups


--------------------------------------------------------------------------------------------------------


 INCAR:
 POTCAR:   PAW_PBE C 08Apr2002                    

 ----------------------------------------------------------------------------- 
|                                                                             |
|           W    W    AA    RRRRR   N    N  II  N    N   GGGG   !!!           |
|           W    W   A  A   R    R  NN   N  II  NN   N  G    G  !!!           |
|           W    W  A    A  R    R  N N  N  II  N N  N  G       !!!           |
|           W WW W  AAAAAA  RRRRR   N  N N  II  N  N N  G  GGG   !            |
|           WW  WW  A    A  R   R   N   NN  II  N   NN  G    G                |
|           W    W  A    A  R    R  N    N  II  N    N   GGGG   !!!           |
|                                                                             |
|      For optimal performance we recommend to set                            |
|        NCORE= 4 - approx SQRT( number of cores)                             |
|      NCORE specifies how many cores store one orbital (NPAR=cpu/NCORE).     |
|      This setting can  greatly improve the performance of VASP for DFT.     |
|      The default,   NCORE=1            might be grossly inefficient         |
|      on modern multi-core architectures or massively parallel machines.     |
|      Do your own testing !!!!                                               |
|      Unfortunately you need to use the default for GW and RPA calculations. |
|      (for HF NCORE is supported but not extensively tested yet)             |
|                                                                             |
 ----------------------------------------------------------------------------- 

 POTCAR:   PAW_PBE C 08Apr2002                    
   VRHFIN =C: s2p2                                                              
   LEXCH  = PE                                                                  
   EATOM  =   147.1560 eV,   10.8157 Ry                                         
                                                                                
   TITEL  = PAW_PBE C 08Apr2002                                                 
   LULTRA =        F    use ultrasoft PP ?                                      
   IUNSCR =        0    unscreen: 0-lin 1-nonlin 2-no                           
   RPACOR =     .000    partial core radius                                     
   POMASS =   12.011; ZVAL   =    4.000    mass and valenz                      
   RCORE  =    1.500    outmost cutoff radius                                   
   RWIGS  =    1.630; RWIGS  =     .863    wigner-seitz radius (au A)           
   ENMAX  =  400.000; ENMIN  =  300.000 eV                                      
   ICORE  =        2    local potential                                         
   LCOR   =        T    correct aug charges                                     
   LPAW   =        T    paw PP                                                  
   EAUG   =  644.873                                                            
   DEXC   =     .000                                                            
   RMAX   =    2.266    core radius for proj-oper                               
   RAUG   =    1.300    factor for augmentation sphere                          
   RDEP   =    1.501    radius for radial grids                                 
   RDEPT  =    1.300    core radius for aug-charge                              
   QCUT   =   -5.516; QGAM   =   11.032    optimization parameters              
                                                                                
   Description                                                                  
     l     E      TYP  RCUT    TYP  RCUT                                        
     0   .000     23  1.200                                                     
     0   .000     23  1.200                                                     
     1   .000     23  1.500                                                     
     1  2.500     23  1.500                                                     
     2   .000      7  1.500                                                     
  local pseudopotential read in
  atomic valenz-charges read in
  non local Contribution for L=           0  read in
    real space projection operators read in
  non local Contribution for L=           0  read in
    real space projection operators read in
  non local Contribution for L=           1  read in
    real space projection operators read in
  non local Contribution for L=           1  read in
    real space projection operators read in
    PAW grid and wavefunctions read in
 
   number of l-projection  operators is LMAX  =           4
   number of lm-projection operators is LMMAX =           8
 

 ----------------------------------------------------------------------------- 
|                                                                             |
|  ADVICE TO THIS USER RUNNING 'VASP/VAMP'   (HEAR YOUR MASTER'S VOICE ...):  |
|                                                                             |
|      You have a (more or less) 'large supercell' and for larger cells       |
|      it might be more efficient to use real space projection operators      |
|      So try LREAL= Auto  in the INCAR   file.                               |
|      Mind: If you want to do a very accurate calculations keep the          |
|      reciprocal projection scheme          (i.e. LREAL=.FALSE.)             |
|                                                                             |
 ----------------------------------------------------------------------------- 

 PAW_PBE C 08Apr2002                    :
 energy of atom  1       EATOM= -147.1560
 kinetic energy error for atom=    0.0288 (will be added to EATOM!!)
 
 
 POSCAR: generated by phonopy                    
  positions in direct lattice
  No initial velocities read in
 exchange correlation table for  LEXCH =        8
   RHO(1)=    0.500       N(1)  =     2000
   RHO(2)=  100.500       N(2)  =     4000
 


--------------------------------------------------------------------------------------------------------


 ion  position               nearest neighbor table
   1  0.125  0.375  0.125-  11 1.60  25 1.60  43 1.60  57 1.60
   2  0.625  0.375  0.125-  12 1.60  26 1.60  44 1.60  58 1.60
   3  0.125  0.875  0.125-   9 1.60  27 1.60  41 1.60  59 1.60
   4  0.625  0.875  0.125-  10 1.60  28 1.60  42 1.60  60 1.60
   5  0.125  0.375  0.625-  15 1.60  29 1.60  47 1.60  61 1.60
   6  0.625  0.375  0.625-  16 1.60  30 1.60  48 1.60  62 1.60
   7  0.125  0.875  0.625-  13 1.60  31 1.60  45 1.60  63 1.60
   8  0.625  0.875  0.625-  14 1.60  32 1.60  46 1.60  64 1.60
   9  0.000  0.000  0.250-   3 1.60  17 1.60  36 1.60  50 1.60
  10  0.500  0.000  0.250-   4 1.60  18 1.60  35 1.60  49 1.60
  11  0.000  0.500  0.250-   1 1.60  19 1.60  34 1.60  52 1.60
  12  0.500  0.500  0.250-   2 1.60  20 1.60  33 1.60  51 1.60
  13  0.000  0.000  0.750-   7 1.60  21 1.60  40 1.60  54 1.60
  14  0.500  0.000  0.750-   8 1.60  22 1.60  39 1.60  53 1.60
  15  0.000  0.500  0.750-   5 1.60  23 1.60  38 1.60  56 1.60
  16  0.500  0.500  0.750-   6 1.60  24 1.60  37 1.60  55 1.60
  17  0.125  0.125  0.375-   9 1.60  29 1.60  45 1.60  57 1.60
  18  0.625  0.125  0.375-  10 1.60  30 1.60  46 1.60  58 1.60
  19  0.125  0.625  0.375-  11 1.60  31 1.60  47 1.60  59 1.60
  20  0.625  0.625  0.375-  12 1.60  32 1.60  48 1.60  60 1.60
  21  0.125  0.125  0.875-  13 1.60  25 1.60  41 1.60  61 1.60
  22  0.625  0.125  0.875-  14 1.60  26 1.60  42 1.60  62 1.60
  23  0.125  0.625  0.875-  15 1.60  27 1.60  43 1.60  63 1.60
  24  0.625  0.625  0.875-  16 1.60  28 1.60  44 1.60  64 1.60
  25  0.000  0.250  0.000-   1 1.60  21 1.60  38 1.60  50 1.60
  26  0.500  0.250  0.000-   2 1.60  22 1.60  37 1.60  49 1.60
  27  0.000  0.750  0.000-   3 1.60  23 1.60  40 1.60  52 1.60
  28  0.500  0.750  0.000-   4 1.60  24 1.60  39 1.60  51 1.60
  29  0.000  0.250  0.500-   5 1.60  17 1.60  34 1.60  54 1.60
  30  0.500  0.250  0.500-   6 1.60  18 1.60  33 1.60  53 1.60
  31  0.000  0.750  0.500-   7 1.60  19 1.60  36 1.60  56 1.60
  32  0.500  0.750  0.500-   8 1.60  20 1.60  35 1.60  55 1.60
  33  0.375  0.375  0.375-  12 1.60  30 1.60  47 1.60  57 1.60
  34  0.875  0.375  0.375-  11 1.60  29 1.60  48 1.60  58 1.60
  35  0.375  0.875  0.375-  10 1.60  32 1.60  45 1.60  59 1.60
  36  0.875  0.875  0.375-   9 1.60  31 1.60  46 1.60  60 1.60
  37  0.375  0.375  0.875-  16 1.60  26 1.60  43 1.60  61 1.60
  38  0.875  0.375  0.875-  15 1.60  25 1.60  44 1.60  62 1.60
  39  0.375  0.875  0.875-  14 1.60  28 1.60  41 1.60  63 1.60
  40  0.875  0.875  0.875-  13 1.60  27 1.60  42 1.60  64 1.60
  41  0.250  0.000  0.000-   3 1.60  21 1.60  39 1.60  49 1.60
  42  0.750  0.000  0.000-   4 1.60  22 1.60  40 1.60  50 1.60
  43  0.250  0.500  0.000-   1 1.60  23 1.60  37 1.60  51 1.60
  44  0.750  0.500  0.000-   2 1.60  24 1.60  38 1.60  52 1.60
  45  0.250  0.000  0.500-   7 1.60  17 1.60  35 1.60  53 1.60
  46  0.750  0.000  0.500-   8 1.60  18 1.60  36 1.60  54 1.60
  47  0.250  0.500  0.500-   5 1.60  19 1.60  33 1.60  55 1.60
  48  0.750  0.500  0.500-   6 1.60  20 1.60  34 1.60  56 1.60
  49  0.375  0.125  0.125-  10 1.60  26 1.60  41 1.60  57 1.60
  50  0.875  0.125  0.125-   9 1.60  25 1.60  42 1.60  58 1.60
  51  0.375  0.625  0.125-  12 1.60  28 1.60  43 1.60  59 1.60
  52  0.875  0.625  0.125-  11 1.60  27 1.60  44 1.60  60 1.60
  53  0.375  0.125  0.625-  14 1.60  30 1.60  45 1.60  61 1.60
  54  0.875  0.125  0.625-  13 1.60  29 1.60  46 1.60  62 1.60
  55  0.375  0.625  0.625-  16 1.60  32 1.60  47 1.60  63 1.60
  56  0.875  0.625  0.625-  15 1.60  31 1.60  48 1.60  64 1.60
  57  0.250  0.250  0.250-   1 1.60  17 1.60  33 1.60  49 1.60
  58  0.750  0.250  0.250-   2 1.60  18 1.60  34 1.60  50 1.60
  59  0.250  0.750  0.250-   3 1.60  19 1.60  35 1.60  51 1.60
  60  0.750  0.750  0.250-   4 1.60  20 1.60  36 1.60  52 1.60
  61  0.250  0.250  0.750-   5 1.60  21 1.60  37 1.60  53 1.60
  62  0.750  0.250  0.750-   6 1.60  22 1.60  38 1.60  54 1.60
  63  0.250  0.750  0.750-   7 1.60  23 1.60  39 1.60  55 1.60
  64  0.750  0.750  0.750-   8 1.60  24 1.60  40 1.60  56 1.60
 
  LATTYP: Found a simple cubic cell.
 ALAT       =     7.3922618463
  
  Lattice vectors:
  
 A1 = (   7.3922618463,   0.0000000000,   0.0000000000)
 A2 = (   0.0000000000,   7.3922618463,   0.0000000000)
 A3 = (   0.0000000000,   0.0000000000,   7.3922618463)


Analysis of symmetry for initial positions (statically):
=====================================================================
 Subroutine PRICEL returns following result:
 
  LATTYP: Found a face centered cubic cell.
 ALAT       =     3.6961309232
  
  Lattice vectors:
  
 A1 = (   1.8480654616,   1.8480654616,  -0.0000000000)
 A2 = (   1.8480654616,   0.0000000000,  -1.8480654616)
 A3 = (   0.0000000000,   1.8480654616,  -1.8480654616)
 
  32 primitive cells build up your supercell.
 

 Routine SETGRP: Setting up the symmetry group for a 
 simple cubic supercell.


 Subroutine GETGRP returns: Found 48 space group operations
 (whereof 24 operations were pure point group operations)
 out of a pool of 48 trial point group operations.


The static configuration has the point symmetry T_d .
 The point group associated with its full space group is O_h .


Analysis of symmetry for dynamics (positions and initial velocities):
=====================================================================
 Subroutine PRICEL returns following result:
 
  LATTYP: Found a face centered cubic cell.
 ALAT       =     3.6961309232
  
  Lattice vectors:
  
 A1 = (   1.8480654616,   1.8480654616,  -0.0000000000)
 A2 = (   1.8480654616,   0.0000000000,  -1.8480654616)
 A3 = (   0.0000000000,   1.8480654616,  -1.8480654616)
 
  32 primitive cells build up your supercell.
 

 Routine SETGRP: Setting up the symmetry group for a 
 simple cubic supercell.


 Subroutine GETGRP returns: Found 48 space group operations
 (whereof 24 operations were pure point group operations)
 out of a pool of 48 trial point group operations.


The dynamic configuration has the point symmetry T_d .
 The point group associated with its full space group is O_h .


 Subroutine INISYM returns: Found 48 space group operations
 (whereof 24 operations are pure point group operations),
 and found    32 'primitive' translations

 
 
 KPOINTS: kpt_density=3000                        

Automatic generation of k-mesh.
Space group operators:
 irot       det(A)        alpha          n_x          n_y          n_z        tau_x        tau_y        tau_z
    1     1.000000     0.000001     1.000000     0.000000     0.000000     0.000000     0.000000     0.000000
    2     1.000000   120.000000    -0.577350    -0.577350    -0.577350     0.000000     0.000000     0.000000
    3     1.000000   120.000000     0.577350     0.577350     0.577350     0.000000     0.000000     0.000000
    4    -1.000000    90.000000     0.000000     0.000000    -1.000000     0.000000     0.000000     0.000000
    5    -1.000000   180.000000     0.000000     0.707107     0.707107     0.000000     0.000000     0.000000
    6    -1.000000    90.000000     0.000000     1.000000     0.000000     0.000000     0.000000     0.000000
    7     1.000000   180.000000     0.000000     0.000000     1.000000     0.000000     0.000000     0.000000
    8     1.000000   120.000000    -0.577350     0.577350     0.577350     0.000000     0.000000     0.000000
    9     1.000000   120.000000    -0.577350     0.577350    -0.577350     0.000000     0.000000     0.000000
   10    -1.000000    90.000000     0.000000     0.000000     1.000000     0.000000     0.000000     0.000000
   11    -1.000000    90.000000    -1.000000     0.000000     0.000000     0.000000     0.000000     0.000000
   12    -1.000000   180.000000     0.707107     0.000000     0.707107     0.000000     0.000000     0.000000
   13     1.000000   120.000000     0.577350    -0.577350     0.577350     0.000000     0.000000     0.000000
   14     1.000000   120.000000    -0.577350    -0.577350     0.577350     0.000000     0.000000     0.000000
   15     1.000000   180.000000     1.000000     0.000000     0.000000     0.000000     0.000000     0.000000
   16    -1.000000    90.000000     0.000000    -1.000000     0.000000     0.000000     0.000000     0.000000
   17    -1.000000   180.000000     0.707107     0.707107     0.000000     0.000000     0.000000     0.000000
   18    -1.000000    90.000000     1.000000     0.000000     0.000000     0.000000     0.000000     0.000000
   19     1.000000   120.000000     0.577350    -0.577350    -0.577350     0.000000     0.000000     0.000000
   20     1.000000   180.000000     0.000000     1.000000     0.000000     0.000000     0.000000     0.000000
   21     1.000000   120.000000     0.577350     0.577350    -0.577350     0.000000     0.000000     0.000000
   22    -1.000000   180.000000     0.000000    -0.707107     0.707107     0.000000     0.000000     0.000000
   23    -1.000000   180.000000     0.707107    -0.707107     0.000000     0.000000     0.000000     0.000000
   24    -1.000000   180.000000     0.707107     0.000000    -0.707107     0.000000     0.000000     0.000000
   25    -1.000000     0.000001     1.000000     0.000000     0.000000     0.375000     0.375000    -0.375000
   26    -1.000000   120.000000    -0.577350    -0.577350    -0.577350     0.375000     0.375000    -0.375000
   27    -1.000000   120.000000     0.577350     0.577350     0.577350     0.375000     0.375000    -0.375000
   28     1.000000    90.000000     0.000000     0.000000    -1.000000     0.375000     0.375000    -0.375000
   29     1.000000   180.000000     0.000000     0.707107     0.707107     0.375000     0.375000    -0.375000
   30     1.000000    90.000000     0.000000     1.000000     0.000000     0.375000     0.375000    -0.375000
   31    -1.000000   180.000000     0.000000     0.000000     1.000000     0.375000     0.375000    -0.375000
   32    -1.000000   120.000000    -0.577350     0.577350     0.577350     0.375000     0.375000    -0.375000
   33    -1.000000   120.000000    -0.577350     0.577350    -0.577350     0.375000     0.375000    -0.375000
   34     1.000000    90.000000     0.000000     0.000000     1.000000     0.375000     0.375000    -0.375000
   35     1.000000    90.000000    -1.000000     0.000000     0.000000     0.375000     0.375000    -0.375000
   36     1.000000   180.000000     0.707107     0.000000     0.707107     0.375000     0.375000    -0.375000
   37    -1.000000   120.000000     0.577350    -0.577350     0.577350     0.375000     0.375000    -0.375000
   38    -1.000000   120.000000    -0.577350    -0.577350     0.577350     0.375000     0.375000    -0.375000
   39    -1.000000   180.000000     1.000000     0.000000     0.000000     0.375000     0.375000    -0.375000
   40     1.000000    90.000000     0.000000    -1.000000     0.000000     0.375000     0.375000    -0.375000
   41     1.000000   180.000000     0.707107     0.707107     0.000000     0.375000     0.375000    -0.375000
   42     1.000000    90.000000     1.000000     0.000000     0.000000     0.375000     0.375000    -0.375000
   43    -1.000000   120.000000     0.577350    -0.577350    -0.577350     0.375000     0.375000    -0.375000
   44    -1.000000   180.000000     0.000000     1.000000     0.000000     0.375000     0.375000    -0.375000
   45    -1.000000   120.000000     0.577350     0.577350    -0.577350     0.375000     0.375000    -0.375000
   46     1.000000   180.000000     0.000000    -0.707107     0.707107     0.375000     0.375000    -0.375000
   47     1.000000   180.000000     0.707107    -0.707107     0.000000     0.375000     0.375000    -0.375000
   48     1.000000   180.000000     0.707107     0.000000    -0.707107     0.375000     0.375000    -0.375000
 
 Subroutine IBZKPT returns following result:
 ===========================================
 
 Found     20 irreducible k-points:
 
 Following reciprocal coordinates:
            Coordinates               Weight
  0.000000  0.000000  0.000000      1.000000
  0.166667  0.000000  0.000000      6.000000
  0.333333  0.000000  0.000000      6.000000
  0.500000  0.000000  0.000000      3.000000
  0.166667  0.166667  0.000000     12.000000
  0.333333  0.166667  0.000000     24.000000
  0.500000  0.166667  0.000000     12.000000
  0.333333  0.333333  0.000000     12.000000
  0.500000  0.333333  0.000000     12.000000
  0.500000  0.500000  0.000000      3.000000
  0.166667  0.166667  0.166667      8.000000
  0.333333  0.166667  0.166667     24.000000
  0.500000  0.166667  0.166667     12.000000
  0.333333  0.333333  0.166667     24.000000
  0.500000  0.333333  0.166667     24.000000
  0.500000  0.500000  0.166667      6.000000
  0.333333  0.333333  0.333333      8.000000
  0.500000  0.333333  0.333333     12.000000
  0.500000  0.500000  0.333333      6.000000
  0.500000  0.500000  0.500000      1.000000
 
 Following cartesian coordinates:
            Coordinates               Weight
  0.000000  0.000000  0.000000      1.000000
  0.022546  0.000000  0.000000      6.000000
  0.045092  0.000000  0.000000      6.000000
  0.067638  0.000000  0.000000      3.000000
  0.022546  0.022546  0.000000     12.000000
  0.045092  0.022546  0.000000     24.000000
  0.067638  0.022546  0.000000     12.000000
  0.045092  0.045092  0.000000     12.000000
  0.067638  0.045092  0.000000     12.000000
  0.067638  0.067638  0.000000      3.000000
  0.022546  0.022546  0.022546      8.000000
  0.045092  0.022546  0.022546     24.000000
  0.067638  0.022546  0.022546     12.000000
  0.045092  0.045092  0.022546     24.000000
  0.067638  0.045092  0.022546     24.000000
  0.067638  0.067638  0.022546      6.000000
  0.045092  0.045092  0.045092      8.000000
  0.067638  0.045092  0.045092     12.000000
  0.067638  0.067638  0.045092      6.000000
  0.067638  0.067638  0.067638      1.000000
 
 
 Subroutine IBZKPT_HF returns following result:
 ==============================================
 
 Found    216 k-points in 1st BZ
 the following    216 k-points will be used (e.g. in the exchange kernel)
 Following reciprocal coordinates:   # in IRBZ
  0.000000  0.000000  0.000000    0.00462963   1 t-inv F
  0.166667  0.000000  0.000000    0.00462963   2 t-inv F
  0.333333  0.000000  0.000000    0.00462963   3 t-inv F
  0.500000  0.000000  0.000000    0.00462963   4 t-inv F
  0.166667  0.166667  0.000000    0.00462963   5 t-inv F
  0.333333  0.166667  0.000000    0.00462963   6 t-inv F
  0.500000  0.166667  0.000000    0.00462963   7 t-inv F
  0.333333  0.333333  0.000000    0.00462963   8 t-inv F
  0.500000  0.333333  0.000000    0.00462963   9 t-inv F
  0.500000  0.500000  0.000000    0.00462963  10 t-inv F
  0.166667  0.166667  0.166667    0.00462963  11 t-inv F
  0.333333  0.166667  0.166667    0.00462963  12 t-inv F
  0.500000  0.166667  0.166667    0.00462963  13 t-inv F
  0.333333  0.333333  0.166667    0.00462963  14 t-inv F
  0.500000  0.333333  0.166667    0.00462963  15 t-inv F
  0.500000  0.500000  0.166667    0.00462963  16 t-inv F
  0.333333  0.333333  0.333333    0.00462963  17 t-inv F
  0.500000  0.333333  0.333333    0.00462963  18 t-inv F
  0.500000  0.500000  0.333333    0.00462963  19 t-inv F
  0.500000  0.500000  0.500000    0.00462963  20 t-inv F
  0.000000  0.166667  0.000000    0.00462963   2 t-inv F
  0.000000  0.000000  0.166667    0.00462963   2 t-inv F
  0.000000 -0.166667  0.000000    0.00462963   2 t-inv F
  0.000000  0.000000 -0.166667    0.00462963   2 t-inv F
 -0.166667  0.000000  0.000000    0.00462963   2 t-inv F
  0.000000  0.333333  0.000000    0.00462963   3 t-inv F
  0.000000  0.000000  0.333333    0.00462963   3 t-inv F
  0.000000 -0.333333  0.000000    0.00462963   3 t-inv F
  0.000000  0.000000 -0.333333    0.00462963   3 t-inv F
 -0.333333  0.000000  0.000000    0.00462963   3 t-inv F
  0.000000  0.500000  0.000000    0.00462963   4 t-inv F
  0.000000  0.000000  0.500000    0.00462963   4 t-inv F
  0.000000  0.166667  0.166667    0.00462963   5 t-inv F
  0.166667  0.000000  0.166667    0.00462963   5 t-inv F
  0.166667 -0.166667  0.000000    0.00462963   5 t-inv F
  0.166667  0.000000 -0.166667    0.00462963   5 t-inv F
  0.000000 -0.166667 -0.166667    0.00462963   5 t-inv F
 -0.166667 -0.166667  0.000000    0.00462963   5 t-inv F
  0.000000 -0.166667  0.166667    0.00462963   5 t-inv F
 -0.166667  0.000000  0.166667    0.00462963   5 t-inv F
 -0.166667  0.166667  0.000000    0.00462963   5 t-inv F
 -0.166667  0.000000 -0.166667    0.00462963   5 t-inv F
  0.000000  0.166667 -0.166667    0.00462963   5 t-inv F
  0.000000  0.333333  0.166667    0.00462963   6 t-inv F
  0.166667  0.000000  0.333333    0.00462963   6 t-inv F
  0.166667 -0.333333  0.000000    0.00462963   6 t-inv F
  0.333333  0.000000 -0.166667    0.00462963   6 t-inv F
  0.000000 -0.166667 -0.333333    0.00462963   6 t-inv F
 -0.333333 -0.166667  0.000000    0.00462963   6 t-inv F
  0.000000 -0.333333  0.166667    0.00462963   6 t-inv F
 -0.166667  0.000000  0.333333    0.00462963   6 t-inv F
 -0.166667  0.333333  0.000000    0.00462963   6 t-inv F
 -0.333333  0.000000 -0.166667    0.00462963   6 t-inv F
  0.000000  0.166667 -0.333333    0.00462963   6 t-inv F
  0.000000 -0.333333 -0.166667    0.00462963   6 t-inv F
  0.166667  0.000000 -0.333333    0.00462963   6 t-inv F
  0.333333 -0.166667  0.000000    0.00462963   6 t-inv F
  0.000000 -0.166667  0.333333    0.00462963   6 t-inv F
 -0.166667 -0.333333  0.000000    0.00462963   6 t-inv F
 -0.333333  0.000000  0.166667    0.00462963   6 t-inv F
 -0.166667  0.000000 -0.333333    0.00462963   6 t-inv F
 -0.333333  0.166667  0.000000    0.00462963   6 t-inv F
  0.000000  0.333333 -0.166667    0.00462963   6 t-inv F
  0.333333  0.000000  0.166667    0.00462963   6 t-inv F
  0.166667  0.333333  0.000000    0.00462963   6 t-inv F
  0.000000  0.166667  0.333333    0.00462963   6 t-inv F
  0.000000  0.500000  0.166667    0.00462963   7 t-inv F
  0.166667  0.000000  0.500000    0.00462963   7 t-inv F
  0.166667 -0.500000  0.000000    0.00462963   7 t-inv F
  0.500000  0.000000 -0.166667    0.00462963   7 t-inv F
  0.000000 -0.166667 -0.500000    0.00462963   7 t-inv F
 -0.500000 -0.166667  0.000000    0.00462963   7 t-inv F
 -0.166667  0.000000  0.500000    0.00462963   7 t-inv F
 -0.166667  0.500000  0.000000    0.00462963   7 t-inv F
  0.000000  0.166667 -0.500000    0.00462963   7 t-inv F
  0.000000 -0.500000 -0.166667    0.00462963   7 t-inv F
 -0.500000  0.000000  0.166667    0.00462963   7 t-inv F
  0.000000  0.333333  0.333333    0.00462963   8 t-inv F
  0.333333  0.000000  0.333333    0.00462963   8 t-inv F
  0.333333 -0.333333  0.000000    0.00462963   8 t-inv F
  0.333333  0.000000 -0.333333    0.00462963   8 t-inv F
  0.000000 -0.333333 -0.333333    0.00462963   8 t-inv F
 -0.333333 -0.333333  0.000000    0.00462963   8 t-inv F
  0.000000 -0.333333  0.333333    0.00462963   8 t-inv F
 -0.333333  0.000000  0.333333    0.00462963   8 t-inv F
 -0.333333  0.333333  0.000000    0.00462963   8 t-inv F
 -0.333333  0.000000 -0.333333    0.00462963   8 t-inv F
  0.000000  0.333333 -0.333333    0.00462963   8 t-inv F
  0.000000  0.500000  0.333333    0.00462963   9 t-inv F
  0.333333  0.000000  0.500000    0.00462963   9 t-inv F
  0.333333 -0.500000  0.000000    0.00462963   9 t-inv F
  0.500000  0.000000 -0.333333    0.00462963   9 t-inv F
  0.000000 -0.333333 -0.500000    0.00462963   9 t-inv F
 -0.500000 -0.333333  0.000000    0.00462963   9 t-inv F
 -0.333333  0.000000  0.500000    0.00462963   9 t-inv F
 -0.333333  0.500000  0.000000    0.00462963   9 t-inv F
  0.000000  0.333333 -0.500000    0.00462963   9 t-inv F
  0.000000 -0.500000 -0.333333    0.00462963   9 t-inv F
 -0.500000  0.000000  0.333333    0.00462963   9 t-inv F
  0.000000  0.500000  0.500000    0.00462963  10 t-inv F
  0.500000  0.000000  0.500000    0.00462963  10 t-inv F
  0.166667 -0.166667 -0.166667    0.00462963  11 t-inv F
 -0.166667 -0.166667  0.166667    0.00462963  11 t-inv F
 -0.166667  0.166667 -0.166667    0.00462963  11 t-inv F
 -0.166667 -0.166667 -0.166667    0.00462963  11 t-inv F
 -0.166667  0.166667  0.166667    0.00462963  11 t-inv F
  0.166667  0.166667 -0.166667    0.00462963  11 t-inv F
  0.166667 -0.166667  0.166667    0.00462963  11 t-inv F
  0.166667  0.333333  0.166667    0.00462963  12 t-inv F
  0.166667  0.166667  0.333333    0.00462963  12 t-inv F
  0.166667 -0.333333 -0.166667    0.00462963  12 t-inv F
  0.333333 -0.166667 -0.166667    0.00462963  12 t-inv F
  0.166667 -0.166667 -0.333333    0.00462963  12 t-inv F
 -0.333333 -0.166667  0.166667    0.00462963  12 t-inv F
 -0.166667 -0.333333  0.166667    0.00462963  12 t-inv F
 -0.166667 -0.166667  0.333333    0.00462963  12 t-inv F
 -0.166667  0.333333 -0.166667    0.00462963  12 t-inv F
 -0.333333  0.166667 -0.166667    0.00462963  12 t-inv F
 -0.166667  0.166667 -0.333333    0.00462963  12 t-inv F
 -0.333333 -0.166667 -0.166667    0.00462963  12 t-inv F
 -0.166667 -0.333333 -0.166667    0.00462963  12 t-inv F
 -0.166667 -0.166667 -0.333333    0.00462963  12 t-inv F
 -0.166667  0.333333  0.166667    0.00462963  12 t-inv F
 -0.333333  0.166667  0.166667    0.00462963  12 t-inv F
 -0.166667  0.166667  0.333333    0.00462963  12 t-inv F
  0.333333  0.166667 -0.166667    0.00462963  12 t-inv F
  0.166667  0.333333 -0.166667    0.00462963  12 t-inv F
  0.166667  0.166667 -0.333333    0.00462963  12 t-inv F
  0.166667 -0.333333  0.166667    0.00462963  12 t-inv F
  0.333333 -0.166667  0.166667    0.00462963  12 t-inv F
  0.166667 -0.166667  0.333333    0.00462963  12 t-inv F
  0.166667  0.500000  0.166667    0.00462963  13 t-inv F
  0.166667  0.166667  0.500000    0.00462963  13 t-inv F
  0.166667 -0.500000 -0.166667    0.00462963  13 t-inv F
  0.500000 -0.166667 -0.166667    0.00462963  13 t-inv F
  0.166667 -0.166667 -0.500000    0.00462963  13 t-inv F
 -0.500000 -0.166667  0.166667    0.00462963  13 t-inv F
 -0.166667 -0.500000  0.166667    0.00462963  13 t-inv F
 -0.166667 -0.166667  0.500000    0.00462963  13 t-inv F
 -0.166667  0.500000 -0.166667    0.00462963  13 t-inv F
 -0.500000  0.166667 -0.166667    0.00462963  13 t-inv F
 -0.166667  0.166667 -0.500000    0.00462963  13 t-inv F
  0.166667  0.333333  0.333333    0.00462963  14 t-inv F
  0.333333  0.166667  0.333333    0.00462963  14 t-inv F
  0.333333 -0.333333 -0.166667    0.00462963  14 t-inv F
  0.333333 -0.166667 -0.333333    0.00462963  14 t-inv F
  0.166667 -0.333333 -0.333333    0.00462963  14 t-inv F
 -0.333333 -0.333333  0.166667    0.00462963  14 t-inv F
 -0.166667 -0.333333  0.333333    0.00462963  14 t-inv F
 -0.333333 -0.166667  0.333333    0.00462963  14 t-inv F
 -0.333333  0.333333 -0.166667    0.00462963  14 t-inv F
 -0.333333  0.166667 -0.333333    0.00462963  14 t-inv F
 -0.166667  0.333333 -0.333333    0.00462963  14 t-inv F
 -0.333333 -0.333333 -0.166667    0.00462963  14 t-inv F
 -0.166667 -0.333333 -0.333333    0.00462963  14 t-inv F
 -0.333333 -0.166667 -0.333333    0.00462963  14 t-inv F
 -0.333333  0.333333  0.166667    0.00462963  14 t-inv F
 -0.333333  0.166667  0.333333    0.00462963  14 t-inv F
 -0.166667  0.333333  0.333333    0.00462963  14 t-inv F
  0.333333  0.333333 -0.166667    0.00462963  14 t-inv F
  0.166667  0.333333 -0.333333    0.00462963  14 t-inv F
  0.333333  0.166667 -0.333333    0.00462963  14 t-inv F
  0.333333 -0.333333  0.166667    0.00462963  14 t-inv F
  0.333333 -0.166667  0.333333    0.00462963  14 t-inv F
  0.166667 -0.333333  0.333333    0.00462963  14 t-inv F
  0.166667  0.500000  0.333333    0.00462963  15 t-inv F
  0.333333  0.166667  0.500000    0.00462963  15 t-inv F
  0.333333 -0.500000 -0.166667    0.00462963  15 t-inv F
  0.500000 -0.166667 -0.333333    0.00462963  15 t-inv F
  0.166667 -0.333333 -0.500000    0.00462963  15 t-inv F
 -0.500000 -0.333333  0.166667    0.00462963  15 t-inv F
 -0.166667 -0.500000  0.333333    0.00462963  15 t-inv F
 -0.333333 -0.166667  0.500000    0.00462963  15 t-inv F
 -0.333333  0.500000 -0.166667    0.00462963  15 t-inv F
 -0.500000  0.166667 -0.333333    0.00462963  15 t-inv F
 -0.166667  0.333333 -0.500000    0.00462963  15 t-inv F
  0.166667 -0.500000 -0.333333    0.00462963  15 t-inv F
  0.333333 -0.166667 -0.500000    0.00462963  15 t-inv F
  0.500000 -0.333333 -0.166667    0.00462963  15 t-inv F
 -0.166667 -0.333333  0.500000    0.00462963  15 t-inv F
 -0.333333 -0.500000  0.166667    0.00462963  15 t-inv F
 -0.500000 -0.166667  0.333333    0.00462963  15 t-inv F
 -0.333333  0.166667 -0.500000    0.00462963  15 t-inv F
 -0.500000  0.333333 -0.166667    0.00462963  15 t-inv F
 -0.166667  0.500000 -0.333333    0.00462963  15 t-inv F
  0.500000  0.166667  0.333333    0.00462963  15 t-inv F
  0.333333  0.500000  0.166667    0.00462963  15 t-inv F
  0.166667  0.333333  0.500000    0.00462963  15 t-inv F
  0.166667  0.500000  0.500000    0.00462963  16 t-inv F
  0.500000  0.166667  0.500000    0.00462963  16 t-inv F
  0.500000 -0.500000 -0.166667    0.00462963  16 t-inv F
  0.500000 -0.166667 -0.500000    0.00462963  16 t-inv F
 -0.166667 -0.500000  0.500000    0.00462963  16 t-inv F
  0.333333 -0.333333 -0.333333    0.00462963  17 t-inv F
 -0.333333 -0.333333  0.333333    0.00462963  17 t-inv F
 -0.333333  0.333333 -0.333333    0.00462963  17 t-inv F
 -0.333333 -0.333333 -0.333333    0.00462963  17 t-inv F
 -0.333333  0.333333  0.333333    0.00462963  17 t-inv F
  0.333333  0.333333 -0.333333    0.00462963  17 t-inv F
  0.333333 -0.333333  0.333333    0.00462963  17 t-inv F
  0.333333  0.500000  0.333333    0.00462963  18 t-inv F
  0.333333  0.333333  0.500000    0.00462963  18 t-inv F
  0.333333 -0.500000 -0.333333    0.00462963  18 t-inv F
  0.500000 -0.333333 -0.333333    0.00462963  18 t-inv F
  0.333333 -0.333333 -0.500000    0.00462963  18 t-inv F
 -0.500000 -0.333333  0.333333    0.00462963  18 t-inv F
 -0.333333 -0.500000  0.333333    0.00462963  18 t-inv F
 -0.333333 -0.333333  0.500000    0.00462963  18 t-inv F
 -0.333333  0.500000 -0.333333    0.00462963  18 t-inv F
 -0.500000  0.333333 -0.333333    0.00462963  18 t-inv F
 -0.333333  0.333333 -0.500000    0.00462963  18 t-inv F
  0.333333  0.500000  0.500000    0.00462963  19 t-inv F
  0.500000  0.333333  0.500000    0.00462963  19 t-inv F
  0.500000 -0.500000 -0.333333    0.00462963  19 t-inv F
  0.500000 -0.333333 -0.500000    0.00462963  19 t-inv F
 -0.333333 -0.500000  0.500000    0.00462963  19 t-inv F


--------------------------------------------------------------------------------------------------------




 Dimension of arrays:
   k-points           NKPTS =     20   k-points in BZ     NKDIM =     20   number of bands    NBANDS=    192
   number of dos      NEDOS =    301   number of ions     NIONS =     64
   non local maximal  LDIM  =      4   non local SUM 2l+1 LMDIM =      8
   total plane-waves  NPLWV = 110592
   max r-space proj   IRMAX =      1   max aug-charges    IRDMAX=  26043
   dimension x,y,z NGX =    48 NGY =   48 NGZ =   48
   dimension x,y,z NGXF=    96 NGYF=   96 NGZF=   96
   support grid    NGXF=   192 NGYF=  192 NGZF=  192
   ions per type =              64
   NGX,Y,Z   is equivalent  to a cutoff of  10.79, 10.79, 10.79 a.u.
   NGXF,Y,Z  is equivalent  to a cutoff of  21.59, 21.59, 21.59 a.u.

 SYSTEM =  unknown system                          
 POSCAR =  generated by phonopy                    

 Startparameter for this run:
   NWRITE =      2    write-flag & timer
   PREC   = accura    normal or accurate (medium, high low for compatibility)
   ISTART =      0    job   : 0-new  1-cont  2-samecut
   ICHARG =      2    charge: 1-file 2-atom 10-const
   ISPIN  =      1    spin polarized calculation?
   LNONCOLLINEAR =      F non collinear calculations
   LSORBIT =      F    spin-orbit coupling
   INIWAV =      1    electr: 0-lowe 1-rand  2-diag
   LASPH  =      F    aspherical Exc in radial PAW
   METAGGA=      F    non-selfconsistent MetaGGA calc.

 Electronic Relaxation 1
   ENCUT  =  400.0 eV  29.40 Ry    5.42 a.u.  12.05 12.05 12.05*2*pi/ulx,y,z
   ENINI  =  400.0     initial cutoff
   ENAUG  =  644.9 eV  augmentation charge cutoff
   NELM   =     60;   NELMIN=  2; NELMDL= -5     # of ELM steps 
   EDIFF  = 0.1E-07   stopping-criterion for ELM
   LREAL  =      F    real-space projection
   NLSPLINE    = F    spline interpolate recip. space projectors
   LCOMPAT=      F    compatible to vasp.4.4
   GGA_COMPAT  = T    GGA compatible to vasp.4.4-vasp.4.6
   LMAXPAW     = -100 max onsite density
   LMAXMIX     =    2 max onsite mixed and CHGCAR
   VOSKOWN=      0    Vosko Wilk Nusair interpolation
   ROPT   =    0.00000
 Ionic relaxation
   EDIFFG = 0.1E-06   stopping-criterion for IOM
   NSW    =      1    number of steps for IOM
   NBLOCK =      1;   KBLOCK =      1    inner block; outer block 
   IBRION =      8    ionic relax: 0-MD 1-quasi-New 2-CG
   NFREE  =      0    steps in history (QN), initial steepest desc. (CG)
   ISIF   =      2    stress and relaxation
   IWAVPR =     11    prediction:  0-non 1-charg 2-wave 3-comb
   ISYM   =      2    0-nonsym 1-usesym 2-fastsym
   LCORR  =      T    Harris-Foulkes like correction to forces

   POTIM  = 0.5000    time-step for ionic-motion
   TEIN   =    0.0    initial temperature
   TEBEG  =    0.0;   TEEND  =   0.0 temperature during run
   SMASS  =  -3.00    Nose mass-parameter (am)
   estimated Nose-frequenzy (Omega)   =  0.10E-29 period in steps =****** mass=  -0.125E-26a.u.
   SCALEE = 1.0000    scale energy and forces
   NPACO  =    256;   APACO  = 16.0  distance and # of slots for P.C.
   PSTRESS=    0.0 pullay stress

  Mass of Ions in am
   POMASS =  12.01
  Ionic Valenz
   ZVAL   =   4.00
  Atomic Wigner-Seitz radii
   RWIGS  =  -1.00
  virtual crystal weights 
   VCA    =   1.00
   NELECT =     256.0000    total number of electrons
   NUPDOWN=      -1.0000    fix difference up-down

 DOS related values:
   EMIN   =  10.00;   EMAX   =-10.00  energy-range for DOS
   EFERMI =   0.00
   ISMEAR =     0;   SIGMA  =   0.06  broadening in eV -4-tet -1-fermi 0-gaus

 Electronic relaxation 2 (details)
   IALGO  =     38    algorithm
   LDIAG  =      T    sub-space diagonalisation (order eigenvalues)
   LSUBROT=      F    optimize rotation matrix (better conditioning)
   TURBO    =      0    0=normal 1=particle mesh
   IRESTART =      0    0=no restart 2=restart with 2 vectors
   NREBOOT  =      0    no. of reboots
   NMIN     =      0    reboot dimension
   EREF     =   0.00    reference energy to select bands
   IMIX   =      4    mixing-type and parameters
     AMIX     =   0.40;   BMIX     =  1.00
     AMIX_MAG =   1.60;   BMIX_MAG =  1.00
     AMIN     =   0.10
     WC   =   100.;   INIMIX=   1;  MIXPRE=   1;  MAXMIX= -45

 Intra band minimization:
   WEIMIN = 0.0010     energy-eigenvalue tresh-hold
   EBREAK =  0.13E-10  absolut break condition
   DEPER  =   0.30     relativ break condition  

   TIME   =   0.40     timestep for ELM

  volume/ion in A,a.u.               =       6.31        42.59
  Fermi-wavevector in a.u.,A,eV,Ry     =   1.406190  2.657315 26.903774  1.977372
  Thomas-Fermi vector in A             =   2.528576
 
 Write flags
   LWAVE        =      F    write WAVECAR
   LDOWNSAMPLE  =      F    k-point downsampling of WAVECAR
   LCHARG       =      F    write CHGCAR
   LVTOT        =      F    write LOCPOT, total local potential
   LVHAR        =      F    write LOCPOT, Hartree potential only
   LELF         =      F    write electronic localiz. function (ELF)
   LORBIT       =      0    0 simple, 1 ext, 2 COOP (PROOUT), +10 PAW based schemes


 Dipole corrections
   LMONO  =      F    monopole corrections only (constant potential shift)
   LDIPOL =      F    correct potential (dipole corrections)
   IDIPOL =      0    1-x, 2-y, 3-z, 4-all directions 
   EPSILON=  1.0000000 bulk dielectric constant

 Exchange correlation treatment:
   GGA     =    --    GGA type
   LEXCH   =     8    internal setting for exchange type
   VOSKOWN=      0    Vosko Wilk Nusair interpolation
   LHFCALC =     F    Hartree Fock is set to
   LHFONE  =     F    Hartree Fock one center treatment
   AEXX    =    0.0000 exact exchange contribution

 Linear response parameters
   LEPSILON=     F    determine dielectric tensor
   LRPA    =     F    only Hartree local field effects (RPA)
   LNABLA  =     F    use nabla operator in PAW spheres
   LVEL    =     F    velocity operator in full k-point grid
   LINTERFAST=   F  fast interpolation
   KINTER  =     0    interpolate to denser k-point grid
   CSHIFT  =0.1000    complex shift for real part using Kramers Kronig
   OMEGAMAX=  -1.0    maximum frequency
   DEG_THRESHOLD= 0.2000000E-02 threshold for treating states as degnerate
   RTIME   =   -0.100 relaxation time in fs
  (WPLASMAI=    0.000 imaginary part of plasma frequency in eV, 0.658/RTIME)
   DFIELD  = 0.0000000 0.0000000 0.0000000 field for delta impulse in time
 
 Orbital magnetization related:
   ORBITALMAG=     F  switch on orbital magnetization
   LCHIMAG   =     F  perturbation theory with respect to B field
   DQ        =  0.001000  dq finite difference perturbation B field
   LLRAUG    =     F  two centre corrections for induced B field



--------------------------------------------------------------------------------------------------------


 linear response using symmetry
 charge density and potential will be updated during run
 non-spin polarized calculation
 Variant of blocked Davidson
 Davidson routine will perform the subspace rotation
 perform sub-space diagonalisation
    after iterative eigenvector-optimisation
 modified Broyden-mixing scheme, WC =      100.0
 initial mixing is a Kerker type mixing with AMIX =  0.4000 and BMIX =      1.0000
 Hartree-type preconditioning will be used
 using additional bands           64
 reciprocal scheme for non local part
 calculate Harris-corrections to forces 
   (improved forces if not selfconsistent)
 use gradient corrections 
 use of overlap-Matrix (Vanderbilt PP)
 Gauss-broadening in eV      SIGMA  =   0.06


--------------------------------------------------------------------------------------------------------


  energy-cutoff  :      400.00
  volume of cell :      403.95
      direct lattice vectors                 reciprocal lattice vectors
     7.392261846  0.000000000  0.000000000     0.135276593  0.000000000  0.000000000
     0.000000000  7.392261846  0.000000000     0.000000000  0.135276593  0.000000000
     0.000000000  0.000000000  7.392261846     0.000000000  0.000000000  0.135276593

  length of vectors
     7.392261846  7.392261846  7.392261846     0.135276593  0.135276593  0.135276593


 
 k-points in units of 2pi/SCALE and weight: kpt_density=3000                        
   0.00000000  0.00000000  0.00000000       0.005
   0.02254610  0.00000000  0.00000000       0.028
   0.04509220  0.00000000  0.00000000       0.028
   0.06763830  0.00000000  0.00000000       0.014
   0.02254610  0.02254610  0.00000000       0.056
   0.04509220  0.02254610  0.00000000       0.111
   0.06763830  0.02254610  0.00000000       0.056
   0.04509220  0.04509220  0.00000000       0.056
   0.06763830  0.04509220  0.00000000       0.056
   0.06763830  0.06763830  0.00000000       0.014
   0.02254610  0.02254610  0.02254610       0.037
   0.04509220  0.02254610  0.02254610       0.111
   0.06763830  0.02254610  0.02254610       0.056
   0.04509220  0.04509220  0.02254610       0.111
   0.06763830  0.04509220  0.02254610       0.111
   0.06763830  0.06763830  0.02254610       0.028
   0.04509220  0.04509220  0.04509220       0.037
   0.06763830  0.04509220  0.04509220       0.056
   0.06763830  0.06763830  0.04509220       0.028
   0.06763830  0.06763830  0.06763830       0.005
 
 k-points in reciprocal lattice and weights: kpt_density=3000                        
   0.00000000  0.00000000  0.00000000       0.005
   0.16666667  0.00000000  0.00000000       0.028
   0.33333333  0.00000000  0.00000000       0.028
   0.50000000  0.00000000  0.00000000       0.014
   0.16666667  0.16666667  0.00000000       0.056
   0.33333333  0.16666667  0.00000000       0.111
   0.50000000  0.16666667  0.00000000       0.056
   0.33333333  0.33333333  0.00000000       0.056
   0.50000000  0.33333333  0.00000000       0.056
   0.50000000  0.50000000  0.00000000       0.014
   0.16666667  0.16666667  0.16666667       0.037
   0.33333333  0.16666667  0.16666667       0.111
   0.50000000  0.16666667  0.16666667       0.056
   0.33333333  0.33333333  0.16666667       0.111
   0.50000000  0.33333333  0.16666667       0.111
   0.50000000  0.50000000  0.16666667       0.028
   0.33333333  0.33333333  0.33333333       0.037
   0.50000000  0.33333333  0.33333333       0.056
   0.50000000  0.50000000  0.33333333       0.028
   0.50000000  0.50000000  0.50000000       0.005
 
 position of ions in fractional coordinates (direct lattice) 
   0.12500000  0.37500000  0.12500000
   0.62500000  0.37500000  0.12500000
   0.12500000  0.87500000  0.12500000
   0.62500000  0.87500000  0.12500000
   0.12500000  0.37500000  0.62500000
   0.62500000  0.37500000  0.62500000
   0.12500000  0.87500000  0.62500000
   0.62500000  0.87500000  0.62500000
   0.00000000  0.00000000  0.25000000
   0.50000000  0.00000000  0.25000000
   0.00000000  0.50000000  0.25000000
   0.50000000  0.50000000  0.25000000
   0.00000000  0.00000000  0.75000000
   0.50000000  0.00000000  0.75000000
   0.00000000  0.50000000  0.75000000
   0.50000000  0.50000000  0.75000000
   0.12500000  0.12500000  0.37500000
   0.62500000  0.12500000  0.37500000
   0.12500000  0.62500000  0.37500000
   0.62500000  0.62500000  0.37500000
   0.12500000  0.12500000  0.87500000
   0.62500000  0.12500000  0.87500000
   0.12500000  0.62500000  0.87500000
   0.62500000  0.62500000  0.87500000
   0.00000000  0.25000000  0.00000000
   0.50000000  0.25000000  0.00000000
   0.00000000  0.75000000  0.00000000
   0.50000000  0.75000000  0.00000000
   0.00000000  0.25000000  0.50000000
   0.50000000  0.25000000  0.50000000
   0.00000000  0.75000000  0.50000000
   0.50000000  0.75000000  0.50000000
   0.37500000  0.37500000  0.37500000
   0.87500000  0.37500000  0.37500000
   0.37500000  0.87500000  0.37500000
   0.87500000  0.87500000  0.37500000
   0.37500000  0.37500000  0.87500000
   0.87500000  0.37500000  0.87500000
   0.37500000  0.87500000  0.87500000
   0.87500000  0.87500000  0.87500000
   0.25000000  0.00000000  0.00000000
   0.75000000  0.00000000  0.00000000
   0.25000000  0.50000000  0.00000000
   0.75000000  0.50000000  0.00000000
   0.25000000  0.00000000  0.50000000
   0.75000000  0.00000000  0.50000000
   0.25000000  0.50000000  0.50000000
   0.75000000  0.50000000  0.50000000
   0.37500000  0.12500000  0.12500000
   0.87500000  0.12500000  0.12500000
   0.37500000  0.62500000  0.12500000
   0.87500000  0.62500000  0.12500000
   0.37500000  0.12500000  0.62500000
   0.87500000  0.12500000  0.62500000
   0.37500000  0.62500000  0.62500000
   0.87500000  0.62500000  0.62500000
   0.25000000  0.25000000  0.25000000
   0.75000000  0.25000000  0.25000000
   0.25000000  0.75000000  0.25000000
   0.75000000  0.75000000  0.25000000
   0.25000000  0.25000000  0.75000000
   0.75000000  0.25000000  0.75000000
   0.25000000  0.75000000  0.75000000
   0.75000000  0.75000000  0.75000000
 
 position of ions in cartesian coordinates  (Angst):
   0.92403273  2.77209819  0.92403273
   4.62016365  2.77209819  0.92403273
   0.92403273  6.46822912  0.92403273
   4.62016365  6.46822912  0.92403273
   0.92403273  2.77209819  4.62016365
   4.62016365  2.77209819  4.62016365
   0.92403273  6.46822912  4.62016365
   4.62016365  6.46822912  4.62016365
   0.00000000  0.00000000  1.84806546
   3.69613092  0.00000000  1.84806546
   0.00000000  3.69613092  1.84806546
   3.69613092  3.69613092  1.84806546
   0.00000000  0.00000000  5.54419638
   3.69613092  0.00000000  5.54419638
   0.00000000  3.69613092  5.54419638
   3.69613092  3.69613092  5.54419638
   0.92403273  0.92403273  2.77209819
   4.62016365  0.92403273  2.77209819
   0.92403273  4.62016365  2.77209819
   4.62016365  4.62016365  2.77209819
   0.92403273  0.92403273  6.46822912
   4.62016365  0.92403273  6.46822912
   0.92403273  4.62016365  6.46822912
   4.62016365  4.62016365  6.46822912
   0.00000000  1.84806546  0.00000000
   3.69613092  1.84806546  0.00000000
   0.00000000  5.54419638  0.00000000
   3.69613092  5.54419638  0.00000000
   0.00000000  1.84806546  3.69613092
   3.69613092  1.84806546  3.69613092
   0.00000000  5.54419638  3.69613092
   3.69613092  5.54419638  3.69613092
   2.77209819  2.77209819  2.77209819
   6.46822912  2.77209819  2.77209819
   2.77209819  6.46822912  2.77209819
   6.46822912  6.46822912  2.77209819
   2.77209819  2.77209819  6.46822912
   6.46822912  2.77209819  6.46822912
   2.77209819  6.46822912  6.46822912
   6.46822912  6.46822912  6.46822912
   1.84806546  0.00000000  0.00000000
   5.54419638  0.00000000  0.00000000
   1.84806546  3.69613092  0.00000000
   5.54419638  3.69613092  0.00000000
   1.84806546  0.00000000  3.69613092
   5.54419638  0.00000000  3.69613092
   1.84806546  3.69613092  3.69613092
   5.54419638  3.69613092  3.69613092
   2.77209819  0.92403273  0.92403273
   6.46822912  0.92403273  0.92403273
   2.77209819  4.62016365  0.92403273
   6.46822912  4.62016365  0.92403273
   2.77209819  0.92403273  4.62016365
   6.46822912  0.92403273  4.62016365
   2.77209819  4.62016365  4.62016365
   6.46822912  4.62016365  4.62016365
   1.84806546  1.84806546  1.84806546
   5.54419638  1.84806546  1.84806546
   1.84806546  5.54419638  1.84806546
   5.54419638  5.54419638  1.84806546
   1.84806546  1.84806546  5.54419638
   5.54419638  1.84806546  5.54419638
   1.84806546  5.54419638  5.54419638
   5.54419638  5.54419638  5.54419638
 


--------------------------------------------------------------------------------------------------------


 k-point  1 :   0.0000 0.0000 0.0000  plane waves:    7249
 k-point  2 :   0.1667 0.0000 0.0000  plane waves:    7296
 k-point  3 :   0.3333 0.0000 0.0000  plane waves:    7320
 k-point  4 :   0.5000 0.0000 0.0000  plane waves:    7368
 k-point  5 :   0.1667 0.1667 0.0000  plane waves:    7305
 k-point  6 :   0.3333 0.1667 0.0000  plane waves:    7338
 k-point  7 :   0.5000 0.1667 0.0000  plane waves:    7348
 k-point  8 :   0.3333 0.3333 0.0000  plane waves:    7353
 k-point  9 :   0.5000 0.3333 0.0000  plane waves:    7354
 k-point 10 :   0.5000 0.5000 0.0000  plane waves:    7316
 k-point 11 :   0.1667 0.1667 0.1667  plane waves:    7313
 k-point 12 :   0.3333 0.1667 0.1667  plane waves:    7340
 k-point 13 :   0.5000 0.1667 0.1667  plane waves:    7342
 k-point 14 :   0.3333 0.3333 0.1667  plane waves:    7348
 k-point 15 :   0.5000 0.3333 0.1667  plane waves:    7334
 k-point 16 :   0.5000 0.5000 0.1667  plane waves:    7348
 k-point 17 :   0.3333 0.3333 0.3333  plane waves:    7346
 k-point 18 :   0.5000 0.3333 0.3333  plane waves:    7350
 k-point 19 :   0.5000 0.5000 0.3333  plane waves:    7348
 k-point 20 :   0.5000 0.5000 0.5000  plane waves:    7400

 maximum and minimum number of plane-waves per node :      7400     7249

 maximum number of plane-waves:      7400
 maximum index in each direction: 
   IXMAX=   12   IYMAX=   12   IZMAX=   12
   IXMIN=  -12   IYMIN=  -12   IZMIN=  -12


 serial   3D FFT for wavefunctions
 parallel 3D FFT for charge:
    minimum data exchange during FFTs selected (reduces bandwidth)


 total amount of memory used by VASP MPI-rank0    72880. kBytes
=======================================================================

   base      :      30000. kBytes
   nonl-proj :      17104. kBytes
   fftplans  :       4537. kBytes
   grid      :       5806. kBytes
   one-center:        196. kBytes
   wavefun   :      15237. kBytes
 
     INWAV:  cpu time    0.0004: real time    0.0005
 Broyden mixing: mesh for mixing (old mesh)
   NGX = 25   NGY = 25   NGZ = 25
  (NGX  = 96   NGY  = 96   NGZ  = 96)
  gives a total of  15625 points

 initial charge density was supplied:
 charge density of overlapping atoms calculated
 number of electron     256.0000000 magnetization 
 keeping initial charge density in first step


--------------------------------------------------------------------------------------------------------


 Maximum index for augmentation-charges         1041 (set IRDMAX)


--------------------------------------------------------------------------------------------------------


 First call to EWALD:  gamma=   0.240
 Maximum number of real-space cells 3x 3x 3
 Maximum number of reciprocal cells 3x 3x 3

    FEWALD:  cpu time    0.0099: real time    0.0099


--------------------------------------- Iteration      1(   1)  ---------------------------------------


    POTLOK:  cpu time    0.0899: real time    0.1482
    SETDIJ:  cpu time    0.0414: real time    0.0417
     EDDAV:  cpu time   14.3813: real time   14.3929
       DOS:  cpu time    0.0065: real time    0.0065
    --------------------------------------------
      LOOP:  cpu time   14.5192: real time   14.5895

 eigenvalue-minimisations  :  7680
 total energy-change (2. order) : 0.4936518E+03  (-0.1120613E+05)
 number of electron     256.0000000 magnetization 
 augmentation part      256.0000000 magnetization 

 Free energy of the ion-electron system (eV)
  ---------------------------------------------------
  alpha Z        PSCENC =       826.18977662
  Ewald energy   TEWEN  =    -10745.07518925
  -Hartree energ DENC   =      -641.31490946
  -exchange      EXHF   =         0.00000000
  -V(xc)+E(xc)   XCENC  =       894.09307441
  PAW double counting   =      2421.21235816    -2494.84305711
  entropy T*S    EENTRO =        -0.00817773
  eigenvalues    EBANDS =       817.25557921
  atomic energy  EATOM  =      9416.14232778
  Solvation  Ediel_sol  =         0.00000000
  ---------------------------------------------------
  free energy    TOTEN  =       493.65178263 eV

  energy without entropy =      493.65996035  energy(sigma->0) =      493.65587149


--------------------------------------------------------------------------------------------------------




--------------------------------------- Iteration      1(   2)  ---------------------------------------


     EDDAV:  cpu time   17.2010: real time   17.2028
       DOS:  cpu time    0.0030: real time    0.0030
    --------------------------------------------
      LOOP:  cpu time   17.2040: real time   17.2058

 eigenvalue-minimisations  : 10272
 total energy-change (2. order) :-0.1041923E+04  (-0.9930883E+03)
 number of electron     256.0000000 magnetization 
 augmentation part      256.0000000 magnetization 

 Free energy of the ion-electron system (eV)
  ---------------------------------------------------
  alpha Z        PSCENC =       826.18977662
  Ewald energy   TEWEN  =    -10745.07518925
  -Hartree energ DENC   =      -641.31490946
  -exchange      EXHF   =         0.00000000
  -V(xc)+E(xc)   XCENC  =       894.09307441
  PAW double counting   =      2421.21235816    -2494.84305711
  entropy T*S    EENTRO =        -0.00000000
  eigenvalues    EBANDS =      -224.67560695
  atomic energy  EATOM  =      9416.14232778
  Solvation  Ediel_sol  =         0.00000000
  ---------------------------------------------------
  free energy    TOTEN  =      -548.27122581 eV

  energy without entropy =     -548.27122581  energy(sigma->0) =     -548.27122581


--------------------------------------------------------------------------------------------------------




--------------------------------------- Iteration      1(   3)  ---------------------------------------


     EDDAV:  cpu time   20.8431: real time   20.8452
       DOS:  cpu time    0.0081: real time    0.0081
    --------------------------------------------
      LOOP:  cpu time   20.8512: real time   20.8534

 eigenvalue-minimisations  : 10240
 total energy-change (2. order) :-0.4263196E+02  (-0.4236642E+02)
 number of electron     256.0000000 magnetization 
 augmentation part      256.0000000 magnetization 

 Free energy of the ion-electron system (eV)
  ---------------------------------------------------
  alpha Z        PSCENC =       826.18977662
  Ewald energy   TEWEN  =    -10745.07518925
  -Hartree energ DENC   =      -641.31490946
  -exchange      EXHF   =         0.00000000
  -V(xc)+E(xc)   XCENC  =       894.09307441
  PAW double counting   =      2421.21235816    -2494.84305711
  entropy T*S    EENTRO =        -0.00000000
  eigenvalues    EBANDS =      -267.30757029
  atomic energy  EATOM  =      9416.14232778
  Solvation  Ediel_sol  =         0.00000000
  ---------------------------------------------------
  free energy    TOTEN  =      -590.90318915 eV

  energy without entropy =     -590.90318915  energy(sigma->0) =     -590.90318915


--------------------------------------------------------------------------------------------------------




--------------------------------------- Iteration      1(   4)  ---------------------------------------


     EDDAV:  cpu time   18.8543: real time   18.8563
       DOS:  cpu time    0.0033: real time    0.0033
    --------------------------------------------
      LOOP:  cpu time   18.8575: real time   18.8596

 eigenvalue-minimisations  : 10528
 total energy-change (2. order) :-0.5386104E+00  (-0.5377863E+00)
 number of electron     256.0000000 magnetization 
 augmentation part      256.0000000 magnetization 

 Free energy of the ion-electron system (eV)
  ---------------------------------------------------
  alpha Z        PSCENC =       826.18977662
  Ewald energy   TEWEN  =    -10745.07518925
  -Hartree energ DENC   =      -641.31490946
  -exchange      EXHF   =         0.00000000
  -V(xc)+E(xc)   XCENC  =       894.09307441
  PAW double counting   =      2421.21235816    -2494.84305711
  entropy T*S    EENTRO =        -0.00000000
  eigenvalues    EBANDS =      -267.84618069
  atomic energy  EATOM  =      9416.14232778
  Solvation  Ediel_sol  =         0.00000000
  ---------------------------------------------------
  free energy    TOTEN  =      -591.44179954 eV

  energy without entropy =     -591.44179954  energy(sigma->0) =     -591.44179954


--------------------------------------------------------------------------------------------------------




--------------------------------------- Iteration      1(   5)  ---------------------------------------


     EDDAV:  cpu time   16.1042: real time   16.1060
       DOS:  cpu time    0.0030: real time    0.0030
    CHARGE:  cpu time    0.5095: real time    0.5100
    MIXING:  cpu time    0.0042: real time    0.0042
    --------------------------------------------
      LOOP:  cpu time   16.6210: real time   16.6232

 eigenvalue-minimisations  :  9600
 total energy-change (2. order) :-0.9031035E-02  (-0.9028153E-02)
 number of electron     256.0000004 magnetization 
 augmentation part        5.6335038 magnetization 

 Broyden mixing:
  rms(total) = 0.23591E+01    rms(broyden)= 0.23589E+01
  rms(prec ) = 0.33968E+01
  weight for this iteration     100.00

 Free energy of the ion-electron system (eV)
  ---------------------------------------------------
  alpha Z        PSCENC =       826.18977662
  Ewald energy   TEWEN  =    -10745.07518925
  -Hartree energ DENC   =      -641.31490946
  -exchange      EXHF   =         0.00000000
  -V(xc)+E(xc)   XCENC  =       894.09307441
  PAW double counting   =      2421.21235816    -2494.84305711
  entropy T*S    EENTRO =        -0.00000000
  eigenvalues    EBANDS =      -267.85521172
  atomic energy  EATOM  =      9416.14232778
  Solvation  Ediel_sol  =         0.00000000
  ---------------------------------------------------
  free energy    TOTEN  =      -591.45083058 eV

  energy without entropy =     -591.45083058  energy(sigma->0) =     -591.45083058


--------------------------------------------------------------------------------------------------------




--------------------------------------- Iteration      1(   6)  ---------------------------------------


    POTLOK:  cpu time    0.0808: real time    0.0811
    SETDIJ:  cpu time    0.0408: real time    0.0408
     EDDAV:  cpu time   15.7473: real time   15.7488
       DOS:  cpu time    0.0055: real time    0.0055
    CHARGE:  cpu time    0.5180: real time    0.5180
    MIXING:  cpu time    0.0043: real time    0.0043
    --------------------------------------------
      LOOP:  cpu time   16.3968: real time   16.3985

 eigenvalue-minimisations  :  9120
 total energy-change (2. order) : 0.1068480E+02  (-0.7246307E+00)
 number of electron     256.0000004 magnetization 
 augmentation part        5.5155205 magnetization 

 Broyden mixing:
  rms(total) = 0.13185E+01    rms(broyden)= 0.13185E+01
  rms(prec ) = 0.18769E+01
  weight for this iteration     100.00

 eigenvalues of (default mixing * dielectric matrix)
  average eigenvalue GAMMA=   2.2117
  2.2117

 Free energy of the ion-electron system (eV)
  ---------------------------------------------------
  alpha Z        PSCENC =       826.18977662
  Ewald energy   TEWEN  =    -10745.07518925
  -Hartree energ DENC   =      -750.43985272
  -exchange      EXHF   =         0.00000000
  -V(xc)+E(xc)   XCENC  =       904.19033904
  PAW double counting   =      3001.71404919    -3078.61927038
  entropy T*S    EENTRO =        -0.00000000
  eigenvalues    EBANDS =      -154.86821554
  atomic energy  EATOM  =      9416.14232778
  Solvation  Ediel_sol  =         0.00000000
  ---------------------------------------------------
  free energy    TOTEN  =      -580.76603525 eV

  energy without entropy =     -580.76603525  energy(sigma->0) =     -580.76603525


--------------------------------------------------------------------------------------------------------




--------------------------------------- Iteration      1(   7)  ---------------------------------------


    POTLOK:  cpu time    0.0574: real time    0.0580
    SETDIJ:  cpu time    0.0390: real time    0.0390
     EDDAV:  cpu time   15.8008: real time   15.8022
       DOS:  cpu time    0.0028: real time    0.0028
    CHARGE:  cpu time    0.5075: real time    0.5075
    MIXING:  cpu time    0.0047: real time    0.0047
    --------------------------------------------
      LOOP:  cpu time   16.4122: real time   16.4141

 eigenvalue-minimisations  :  9248
 total energy-change (2. order) : 0.3618900E+01  (-0.8569283E+00)
 number of electron     256.0000004 magnetization 
 augmentation part        5.3923516 magnetization 

 Broyden mixing:
  rms(total) = 0.18528E+00    rms(broyden)= 0.18513E+00
  rms(prec ) = 0.22746E+00
  weight for this iteration     100.00

 eigenvalues of (default mixing * dielectric matrix)
  average eigenvalue GAMMA=   2.2692
  2.0066  2.5318

 Free energy of the ion-electron system (eV)
  ---------------------------------------------------
  alpha Z        PSCENC =       826.18977662
  Ewald energy   TEWEN  =    -10745.07518925
  -Hartree energ DENC   =      -891.41387881
  -exchange      EXHF   =         0.00000000
  -V(xc)+E(xc)   XCENC  =       917.45568028
  PAW double counting   =      3782.49214760    -3862.48612194
  entropy T*S    EENTRO =        -0.00000000
  eigenvalues    EBANDS =       -20.45187733
  atomic energy  EATOM  =      9416.14232778
  Solvation  Ediel_sol  =         0.00000000
  ---------------------------------------------------
  free energy    TOTEN  =      -577.14713506 eV

  energy without entropy =     -577.14713506  energy(sigma->0) =     -577.14713506


--------------------------------------------------------------------------------------------------------




--------------------------------------- Iteration      1(   8)  ---------------------------------------


    POTLOK:  cpu time    0.0763: real time    0.0767
    SETDIJ:  cpu time    0.0388: real time    0.0388
     EDDAV:  cpu time   17.5412: real time   17.5426
       DOS:  cpu time    0.0029: real time    0.0029
    CHARGE:  cpu time    0.5079: real time    0.5080
    MIXING:  cpu time    0.0050: real time    0.0050
    --------------------------------------------
      LOOP:  cpu time   18.1721: real time   18.1740

 eigenvalue-minimisations  :  9760
 total energy-change (2. order) :-0.4908351E-01  (-0.1999707E-01)
 number of electron     256.0000004 magnetization 
 augmentation part        5.4027337 magnetization 

 Broyden mixing:
  rms(total) = 0.19851E-01    rms(broyden)= 0.19814E-01
  rms(prec ) = 0.24393E-01
  weight for this iteration     100.00

 eigenvalues of (default mixing * dielectric matrix)
  average eigenvalue GAMMA=   2.1056
  1.4594  2.6815  2.1759

 Free energy of the ion-electron system (eV)
  ---------------------------------------------------
  alpha Z        PSCENC =       826.18977662
  Ewald energy   TEWEN  =    -10745.07518925
  -Hartree energ DENC   =      -893.39826555
  -exchange      EXHF   =         0.00000000
  -V(xc)+E(xc)   XCENC  =       917.65522794
  PAW double counting   =      3816.01865044    -3895.03631536
  entropy T*S    EENTRO =        -0.00000000
  eigenvalues    EBANDS =       -19.69243119
  atomic energy  EATOM  =      9416.14232778
  Solvation  Ediel_sol  =         0.00000000
  ---------------------------------------------------
  free energy    TOTEN  =      -577.19621856 eV

  energy without entropy =     -577.19621856  energy(sigma->0) =     -577.19621856


--------------------------------------------------------------------------------------------------------




--------------------------------------- Iteration      1(   9)  ---------------------------------------


    POTLOK:  cpu time    0.0652: real time    0.0655
    SETDIJ:  cpu time    0.0381: real time    0.0381
     EDDAV:  cpu time   16.9119: real time   16.9134
       DOS:  cpu time    0.0093: real time    0.0093
    CHARGE:  cpu time    0.5082: real time    0.5082
    MIXING:  cpu time    0.0048: real time    0.0048
    --------------------------------------------
      LOOP:  cpu time   17.5376: real time   17.5393

 eigenvalue-minimisations  : 10048
 total energy-change (2. order) :-0.2169634E-02  (-0.3665554E-03)
 number of electron     256.0000004 magnetization 
 augmentation part        5.4016950 magnetization 

 Broyden mixing:
  rms(total) = 0.75023E-02    rms(broyden)= 0.75000E-02
  rms(prec ) = 0.96637E-02
  weight for this iteration     100.00

 eigenvalues of (default mixing * dielectric matrix)
  average eigenvalue GAMMA=   2.0539
  0.9658  2.7792  2.4911  1.9796

 Free energy of the ion-electron system (eV)
  ---------------------------------------------------
  alpha Z        PSCENC =       826.18977662
  Ewald energy   TEWEN  =    -10745.07518925
  -Hartree energ DENC   =      -892.91593155
  -exchange      EXHF   =         0.00000000
  -V(xc)+E(xc)   XCENC  =       917.60799309
  PAW double counting   =      3810.83355922    -3889.75862024
  entropy T*S    EENTRO =        -0.00000000
  eigenvalues    EBANDS =       -20.22230385
  atomic energy  EATOM  =      9416.14232778
  Solvation  Ediel_sol  =         0.00000000
  ---------------------------------------------------
  free energy    TOTEN  =      -577.19838819 eV

  energy without entropy =     -577.19838819  energy(sigma->0) =     -577.19838819


--------------------------------------------------------------------------------------------------------




--------------------------------------- Iteration      1(  10)  ---------------------------------------


    POTLOK:  cpu time    0.0578: real time    0.0582
    SETDIJ:  cpu time    0.0386: real time    0.0386
     EDDAV:  cpu time   17.2649: real time   17.2665
       DOS:  cpu time    0.0033: real time    0.0033
    CHARGE:  cpu time    0.5104: real time    0.5105
    MIXING:  cpu time    0.0051: real time    0.0051
    --------------------------------------------
      LOOP:  cpu time   17.8802: real time   17.8821

 eigenvalue-minimisations  :  9536
 total energy-change (2. order) :-0.4654346E-03  (-0.4642165E-04)
 number of electron     256.0000004 magnetization 
 augmentation part        5.4013975 magnetization 

 Broyden mixing:
  rms(total) = 0.76364E-03    rms(broyden)= 0.76161E-03
  rms(prec ) = 0.11450E-02
  weight for this iteration     100.00

 eigenvalues of (default mixing * dielectric matrix)
  average eigenvalue GAMMA=   1.9724
  2.9709  2.5538  2.0725  0.9780  1.2868

 Free energy of the ion-electron system (eV)
  ---------------------------------------------------
  alpha Z        PSCENC =       826.18977662
  Ewald energy   TEWEN  =    -10745.07518925
  -Hartree energ DENC   =      -893.34704887
  -exchange      EXHF   =         0.00000000
  -V(xc)+E(xc)   XCENC  =       917.64632868
  PAW double counting   =      3808.06482130    -3887.00656181
  entropy T*S    EENTRO =        -0.00000000
  eigenvalues    EBANDS =       -19.81330807
  atomic energy  EATOM  =      9416.14232778
  Solvation  Ediel_sol  =         0.00000000
  ---------------------------------------------------
  free energy    TOTEN  =      -577.19885363 eV

  energy without entropy =     -577.19885363  energy(sigma->0) =     -577.19885363


--------------------------------------------------------------------------------------------------------




--------------------------------------- Iteration      1(  11)  ---------------------------------------


    POTLOK:  cpu time    0.0621: real time    0.0624
    SETDIJ:  cpu time    0.0385: real time    0.0385
     EDDAV:  cpu time   19.1657: real time   19.1673
       DOS:  cpu time    0.0029: real time    0.0029
    CHARGE:  cpu time    0.5101: real time    0.5102
    MIXING:  cpu time    0.0048: real time    0.0048
    --------------------------------------------
      LOOP:  cpu time   19.7841: real time   19.7861

 eigenvalue-minimisations  : 10016
 total energy-change (2. order) :-0.2145731E-05  (-0.1160860E-05)
 number of electron     256.0000004 magnetization 
 augmentation part        5.4011895 magnetization 

 Broyden mixing:
  rms(total) = 0.19503E-03    rms(broyden)= 0.19406E-03
  rms(prec ) = 0.26614E-03
  weight for this iteration     100.00

 eigenvalues of (default mixing * dielectric matrix)
  average eigenvalue GAMMA=   1.9996
  3.0036  2.5850  2.3961  2.0209  0.9959  0.9959

 Free energy of the ion-electron system (eV)
  ---------------------------------------------------
  alpha Z        PSCENC =       826.18977662
  Ewald energy   TEWEN  =    -10745.07518925
  -Hartree energ DENC   =      -893.46713679
  -exchange      EXHF   =         0.00000000
  -V(xc)+E(xc)   XCENC  =       917.65762849
  PAW double counting   =      3808.48519651    -3887.43163897
  entropy T*S    EENTRO =        -0.00000000
  eigenvalues    EBANDS =       -19.69982016
  atomic energy  EATOM  =      9416.14232778
  Solvation  Ediel_sol  =         0.00000000
  ---------------------------------------------------
  free energy    TOTEN  =      -577.19885578 eV

  energy without entropy =     -577.19885578  energy(sigma->0) =     -577.19885578


--------------------------------------------------------------------------------------------------------




--------------------------------------- Iteration      1(  12)  ---------------------------------------


    POTLOK:  cpu time    0.0588: real time    0.0591
    SETDIJ:  cpu time    0.0392: real time    0.0392
     EDDAV:  cpu time   16.7358: real time   16.7372
       DOS:  cpu time    0.0031: real time    0.0031
    CHARGE:  cpu time    0.5073: real time    0.5073
    MIXING:  cpu time    0.0051: real time    0.0051
    --------------------------------------------
      LOOP:  cpu time   17.3492: real time   17.3510

 eigenvalue-minimisations  :  9824
 total energy-change (2. order) :-0.5013426E-06  (-0.6149513E-07)
 number of electron     256.0000004 magnetization 
 augmentation part        5.4012141 magnetization 

 Broyden mixing:
  rms(total) = 0.17048E-04    rms(broyden)= 0.16867E-04
  rms(prec ) = 0.20296E-04
  weight for this iteration     100.00

 eigenvalues of (default mixing * dielectric matrix)
  average eigenvalue GAMMA=   1.8857
  2.9579  2.6535  2.5061  2.0325  0.9706  1.0398  1.0398

 Free energy of the ion-electron system (eV)
  ---------------------------------------------------
  alpha Z        PSCENC =       826.18977662
  Ewald energy   TEWEN  =    -10745.07518925
  -Hartree energ DENC   =      -893.44819035
  -exchange      EXHF   =         0.00000000
  -V(xc)+E(xc)   XCENC  =       917.65587813
  PAW double counting   =      3808.52991429    -3887.47427030
  entropy T*S    EENTRO =        -0.00000000
  eigenvalues    EBANDS =       -19.71910319
  atomic energy  EATOM  =      9416.14232778
  Solvation  Ediel_sol  =         0.00000000
  ---------------------------------------------------
  free energy    TOTEN  =      -577.19885628 eV

  energy without entropy =     -577.19885628  energy(sigma->0) =     -577.19885628


--------------------------------------------------------------------------------------------------------




--------------------------------------- Iteration      1(  13)  ---------------------------------------


    POTLOK:  cpu time    0.0579: real time    0.0583
    SETDIJ:  cpu time    0.0383: real time    0.0383
     EDDAV:  cpu time   14.0778: real time   14.0790
       DOS:  cpu time    0.0028: real time    0.0028
    CHARGE:  cpu time    0.5123: real time    0.5124
    MIXING:  cpu time    0.0056: real time    0.0056
    --------------------------------------------
      LOOP:  cpu time   14.6948: real time   14.6965

 eigenvalue-minimisations  :  7488
 total energy-change (2. order) :-0.1138196E-06  (-0.1068555E-08)
 number of electron     256.0000004 magnetization 
 augmentation part        5.4012092 magnetization 

 Broyden mixing:
  rms(total) = 0.43029E-05    rms(broyden)= 0.42623E-05
  rms(prec ) = 0.53108E-05
  weight for this iteration     100.00

 eigenvalues of (default mixing * dielectric matrix)
  average eigenvalue GAMMA=   2.0161
  2.0336  2.9741  2.9741  2.6346  2.5099  1.0154  1.0154  0.9712

 Free energy of the ion-electron system (eV)
  ---------------------------------------------------
  alpha Z        PSCENC =       826.18977662
  Ewald energy   TEWEN  =    -10745.07518925
  -Hartree energ DENC   =      -893.44866680
  -exchange      EXHF   =         0.00000000
  -V(xc)+E(xc)   XCENC  =       917.65592459
  PAW double counting   =      3808.53491656    -3887.47932694
  entropy T*S    EENTRO =        -0.00000000
  eigenvalues    EBANDS =       -19.71861895
  atomic energy  EATOM  =      9416.14232778
  Solvation  Ediel_sol  =         0.00000000
  ---------------------------------------------------
  free energy    TOTEN  =      -577.19885639 eV

  energy without entropy =     -577.19885639  energy(sigma->0) =     -577.19885639


--------------------------------------------------------------------------------------------------------




--------------------------------------- Iteration      1(  14)  ---------------------------------------


    POTLOK:  cpu time    0.0588: real time    0.0592
    SETDIJ:  cpu time    0.0389: real time    0.0389
     EDDAV:  cpu time   13.7853: real time   13.7865
       DOS:  cpu time    0.0028: real time    0.0028
    --------------------------------------------
      LOOP:  cpu time   13.8859: real time   13.8875

 eigenvalue-minimisations  :  6976
 total energy-change (2. order) :-0.2830348E-08  (-0.1606482E-09)
 number of electron     256.0000004 magnetization 
 augmentation part        5.4012092 magnetization 

 Free energy of the ion-electron system (eV)
  ---------------------------------------------------
  alpha Z        PSCENC =       826.18977662
  Ewald energy   TEWEN  =    -10745.07518925
  -Hartree energ DENC   =      -893.44826761
  -exchange      EXHF   =         0.00000000
  -V(xc)+E(xc)   XCENC  =       917.65588693
  PAW double counting   =      3808.52872358    -3887.47313330
  entropy T*S    EENTRO =        -0.00000000
  eigenvalues    EBANDS =       -19.71898115
  atomic energy  EATOM  =      9416.14232778
  Solvation  Ediel_sol  =         0.00000000
  ---------------------------------------------------
  free energy    TOTEN  =      -577.19885639 eV

  energy without entropy =     -577.19885639  energy(sigma->0) =     -577.19885639


--------------------------------------------------------------------------------------------------------




 average (electrostatic) potential at core
  the test charge radii are     0.6991
  (the norm of the test charge is              1.0000)
       1 -46.8991       2 -46.8991       3 -46.8991       4 -46.8991       5 -46.8991
       6 -46.8991       7 -46.8991       8 -46.8991       9 -46.8991      10 -46.8991
      11 -46.8991      12 -46.8991      13 -46.8991      14 -46.8991      15 -46.8991
      16 -46.8991      17 -46.8991      18 -46.8991      19 -46.8991      20 -46.8991
      21 -46.8991      22 -46.8991      23 -46.8991      24 -46.8991      25 -46.8991
      26 -46.8991      27 -46.8991      28 -46.8991      29 -46.8991      30 -46.8991
      31 -46.8991      32 -46.8991      33 -46.8991      34 -46.8991      35 -46.8991
      36 -46.8991      37 -46.8991      38 -46.8991      39 -46.8991      40 -46.8991
      41 -46.8991      42 -46.8991      43 -46.8991      44 -46.8991      45 -46.8991
      46 -46.8991      47 -46.8991      48 -46.8991      49 -46.8991      50 -46.8991
      51 -46.8991      52 -46.8991      53 -46.8991      54 -46.8991      55 -46.8991
      56 -46.8991      57 -46.8991      58 -46.8991      59 -46.8991      60 -46.8991
      61 -46.8991      62 -46.8991      63 -46.8991      64 -46.8991
 
 
 
 E-fermi :   8.5504     XC(G=0): -12.6949     alpha+bet :-15.9052


 k-point     1 :       0.0000    0.0000    0.0000
  band No.  band energies     occupation 
      1     -11.8279      2.00000
      2      -9.7104      2.00000
      3      -9.7104      2.00000
      4      -9.7104      2.00000
      5      -9.7104      2.00000
      6      -9.7104      2.00000
      7      -9.7104      2.00000
      8      -7.7098      2.00000
      9      -7.7098      2.00000
     10      -7.7098      2.00000
     11      -7.7098      2.00000
     12      -7.7098      2.00000
     13      -7.7098      2.00000
     14      -7.7098      2.00000
     15      -7.7098      2.00000
     16      -7.7098      2.00000
     17      -7.7098      2.00000
     18      -7.7098      2.00000
     19      -7.7098      2.00000
     20      -6.6409      2.00000
     21      -6.6409      2.00000
     22      -6.6409      2.00000
     23      -6.6409      2.00000
     24      -3.9789      2.00000
     25      -3.9789      2.00000
     26      -3.9789      2.00000
     27      -3.9789      2.00000
     28      -3.7806      2.00000
     29      -3.7806      2.00000
     30      -3.7806      2.00000
     31      -3.7806      2.00000
     32      -3.7806      2.00000
     33      -3.7806      2.00000
     34      -3.1489      2.00000
     35      -3.1489      2.00000
     36      -3.1489      2.00000
     37      -3.1489      2.00000
     38      -3.1489      2.00000
     39      -3.1489      2.00000
     40      -3.1489      2.00000
     41      -3.1489      2.00000
     42      -3.1489      2.00000
     43      -3.1489      2.00000
     44      -3.1489      2.00000
     45      -3.1489      2.00000
     46       0.0666      2.00000
     47       0.0666      2.00000
     48       0.0666      2.00000
     49       0.0666      2.00000
     50       0.0666      2.00000
     51       0.0666      2.00000
     52       0.0666      2.00000
     53       0.0666      2.00000
     54       0.0666      2.00000
     55       0.0666      2.00000
     56       0.0666      2.00000
     57       0.0666      2.00000
     58       0.8289      2.00000
     59       0.8289      2.00000
     60       0.8289      2.00000
     61       0.8289      2.00000
     62       0.8289      2.00000
     63       0.8289      2.00000
     64       0.8289      2.00000
     65       0.8289      2.00000
     66       0.8289      2.00000
     67       0.8289      2.00000
     68       0.8289      2.00000
     69       0.8289      2.00000
     70       1.3784      2.00000
     71       1.3784      2.00000
     72       1.3784      2.00000
     73       1.3784      2.00000
     74       1.3784      2.00000
     75       1.3784      2.00000
     76       1.3784      2.00000
     77       1.3784      2.00000
     78       1.3784      2.00000
     79       1.3784      2.00000
     80       1.3784      2.00000
     81       1.3784      2.00000
     82       2.5946      2.00000
     83       2.5946      2.00000
     84       2.5946      2.00000
     85       2.5946      2.00000
     86       2.5946      2.00000
     87       2.5946      2.00000
     88       3.8615      2.00000
     89       3.8615      2.00000
     90       3.8615      2.00000
     91       3.8615      2.00000
     92       3.8615      2.00000
     93       3.8615      2.00000
     94       4.5742      2.00000
     95       4.5742      2.00000
     96       4.5742      2.00000
     97       4.5742      2.00000
     98       4.5742      2.00000
     99       4.5742      2.00000
    100       4.5742      2.00000
    101       4.5742      2.00000
    102       4.5742      2.00000
    103       4.5742      2.00000
    104       4.5742      2.00000
    105       4.5742      2.00000
    106       5.5625      2.00000
    107       5.5625      2.00000
    108       5.5625      2.00000
    109       5.5625      2.00000
    110       5.5625      2.00000
[...]
      4.620164  0.924033  6.468229    -0.018555   -0.124600   -0.015509  
      0.924033  4.620164  6.468229     0.015855    0.143476    0.015509  
      4.620164  4.620164  6.468229     0.015855   -0.124600    0.012009  
      0.000000  1.848065  0.000000    -0.053693    0.062992    0.027844  
      3.696131  1.848065  0.000000    -0.053693   -0.180277    0.001224  
      0.000000  5.544196  0.000000    -0.014568    0.062992   -0.001224  
      3.696131  5.544196  0.000000    -0.014568   -0.180277   -0.027844  
      0.000000  1.848065  3.696131     0.014568    0.180277    0.027844  
      3.696131  1.848065  3.696131     0.014568   -0.062992    0.001224  
      0.000000  5.544196  3.696131     0.053693    0.180277   -0.001224  
      3.696131  5.544196  3.696131     0.053693   -0.062992   -0.027844  
      2.772098  2.772098  2.772098    -0.012389   -0.048408    0.023395  
      6.468229  2.772098  2.772098    -0.012389    0.029532    0.044857  
      2.772098  6.468229  2.772098     0.015088   -0.048408   -0.044857  
      6.468229  6.468229  2.772098     0.015088    0.029532   -0.023395  
      2.772098  2.772098  6.468229    -0.015088   -0.029532    0.023395  
      6.468229  2.772098  6.468229    -0.015088    0.048408    0.044857  
      2.772098  6.468229  6.468229     0.012389   -0.029532   -0.044857  
      6.468229  6.468229  6.468229     0.012389    0.048408   -0.023395  
      1.848065  0.000000  0.000000    -0.035611    0.007838   -0.049784  
      5.544196  0.000000  0.000000    -0.035611   -0.125124   -0.020716  
      1.848065  3.696131  0.000000    -0.032650    0.007838    0.020716  
      5.544196  3.696131  0.000000    -0.032650   -0.125124    0.049784  
      1.848065  0.000000  3.696131     0.032650    0.125124   -0.049784  
      5.544196  0.000000  3.696131     0.032650   -0.007838   -0.020716  
      1.848065  3.696131  3.696131     0.035611    0.125124    0.020716  
      5.544196  3.696131  3.696131     0.035611   -0.007838    0.049784  
      2.772098  0.924033  0.924033    -0.057557   -0.128909   -0.024490  
      6.468229  0.924033  0.924033    -0.057557   -0.050969   -0.003028  
      2.772098  4.620164  0.924033    -0.023148   -0.128909    0.003028  
      6.468229  4.620164  0.924033    -0.023148   -0.050969    0.024490  
      2.772098  0.924033  4.620164     0.023148    0.050969   -0.024490  
      6.468229  0.924033  4.620164     0.023148    0.128909   -0.003028  
      2.772098  4.620164  4.620164     0.057557    0.050969    0.003028  
      6.468229  4.620164  4.620164     0.057557    0.128909    0.024490  
      1.848065  1.848065  1.848065    -0.043265   -0.001656   -0.000000  
      5.544196  1.848065  1.848065    -0.043265   -0.134617    0.029067  
      1.848065  5.544196  1.848065    -0.004141   -0.001656   -0.029067  
      5.544196  5.544196  1.848065    -0.004141   -0.134617    0.000000  
      1.848065  1.848065  5.544196     0.004141    0.134617   -0.000000  
      5.544196  1.848065  5.544196     0.004141    0.001656    0.029067  
      1.848065  5.544196  5.544196     0.043265    0.134617   -0.029067  
      5.544196  5.544196  5.544196     0.043265    0.001656   -0.000000  
 
 190 f  =    0.000006 THz     0.000038 2PiTHz    0.000201 cm-1     0.000025 meV
             X         Y         Z           dx          dy          dz
      0.924033  2.772098  0.924033    -0.124892    0.005196   -0.000314  
      4.620164  2.772098  0.924033    -0.124892    0.005196   -0.000314  
      0.924033  6.468229  0.924033    -0.124892    0.005196   -0.000314  
      4.620164  6.468229  0.924033    -0.124892    0.005196   -0.000314  
      0.924033  2.772098  4.620164    -0.124892    0.005196   -0.000314  
      4.620164  2.772098  4.620164    -0.124892    0.005196   -0.000314  
      0.924033  6.468229  4.620164    -0.124892    0.005196   -0.000314  
      4.620164  6.468229  4.620164    -0.124892    0.005196   -0.000314  
      0.000000  0.000000  1.848065    -0.124892    0.005196   -0.000314  
      3.696131  0.000000  1.848065    -0.124892    0.005196   -0.000314  
      0.000000  3.696131  1.848065    -0.124892    0.005196   -0.000314  
      3.696131  3.696131  1.848065    -0.124892    0.005196   -0.000314  
      0.000000  0.000000  5.544196    -0.124892    0.005196   -0.000314  
      3.696131  0.000000  5.544196    -0.124892    0.005196   -0.000314  
      0.000000  3.696131  5.544196    -0.124892    0.005196   -0.000314  
      3.696131  3.696131  5.544196    -0.124892    0.005196   -0.000314  
      0.924033  0.924033  2.772098    -0.124892    0.005196   -0.000314  
      4.620164  0.924033  2.772098    -0.124892    0.005196   -0.000314  
      0.924033  4.620164  2.772098    -0.124892    0.005196   -0.000314  
      4.620164  4.620164  2.772098    -0.124892    0.005196   -0.000314  
      0.924033  0.924033  6.468229    -0.124892    0.005196   -0.000314  
      4.620164  0.924033  6.468229    -0.124892    0.005196   -0.000314  
      0.924033  4.620164  6.468229    -0.124892    0.005196   -0.000314  
      4.620164  4.620164  6.468229    -0.124892    0.005196   -0.000314  
      0.000000  1.848065  0.000000    -0.124892    0.005196   -0.000314  
      3.696131  1.848065  0.000000    -0.124892    0.005196   -0.000314  
      0.000000  5.544196  0.000000    -0.124892    0.005196   -0.000314  
      3.696131  5.544196  0.000000    -0.124892    0.005196   -0.000314  
      0.000000  1.848065  3.696131    -0.124892    0.005196   -0.000314  
      3.696131  1.848065  3.696131    -0.124892    0.005196   -0.000314  
      0.000000  5.544196  3.696131    -0.124892    0.005196   -0.000314  
      3.696131  5.544196  3.696131    -0.124892    0.005196   -0.000314  
      2.772098  2.772098  2.772098    -0.124892    0.005196   -0.000314  
      6.468229  2.772098  2.772098    -0.124892    0.005196   -0.000314  
      2.772098  6.468229  2.772098    -0.124892    0.005196   -0.000314  
      6.468229  6.468229  2.772098    -0.124892    0.005196   -0.000314  
      2.772098  2.772098  6.468229    -0.124892    0.005196   -0.000314  
      6.468229  2.772098  6.468229    -0.124892    0.005196   -0.000314  
      2.772098  6.468229  6.468229    -0.124892    0.005196   -0.000314  
      6.468229  6.468229  6.468229    -0.124892    0.005196   -0.000314  
      1.848065  0.000000  0.000000    -0.124892    0.005196   -0.000314  
      5.544196  0.000000  0.000000    -0.124892    0.005196   -0.000314  
      1.848065  3.696131  0.000000    -0.124892    0.005196   -0.000314  
      5.544196  3.696131  0.000000    -0.124892    0.005196   -0.000314  
      1.848065  0.000000  3.696131    -0.124892    0.005196   -0.000314  
      5.544196  0.000000  3.696131    -0.124892    0.005196   -0.000314  
      1.848065  3.696131  3.696131    -0.124892    0.005196   -0.000314  
      5.544196  3.696131  3.696131    -0.124892    0.005196   -0.000314  
      2.772098  0.924033  0.924033    -0.124892    0.005196   -0.000314  
      6.468229  0.924033  0.924033    -0.124892    0.005196   -0.000314  
      2.772098  4.620164  0.924033    -0.124892    0.005196   -0.000314  
      6.468229  4.620164  0.924033    -0.124892    0.005196   -0.000314  
      2.772098  0.924033  4.620164    -0.124892    0.005196   -0.000314  
      6.468229  0.924033  4.620164    -0.124892    0.005196   -0.000314  
      2.772098  4.620164  4.620164    -0.124892    0.005196   -0.000314  
      6.468229  4.620164  4.620164    -0.124892    0.005196   -0.000314  
      1.848065  1.848065  1.848065    -0.124892    0.005196   -0.000314  
      5.544196  1.848065  1.848065    -0.124892    0.005196   -0.000314  
      1.848065  5.544196  1.848065    -0.124892    0.005196   -0.000314  
      5.544196  5.544196  1.848065    -0.124892    0.005196   -0.000314  
      1.848065  1.848065  5.544196    -0.124892    0.005196   -0.000314  
      5.544196  1.848065  5.544196    -0.124892    0.005196   -0.000314  
      1.848065  5.544196  5.544196    -0.124892    0.005196   -0.000314  
      5.544196  5.544196  5.544196    -0.124892    0.005196   -0.000314  
 
 191 f  =    0.000006 THz     0.000037 2PiTHz    0.000197 cm-1     0.000024 meV
             X         Y         Z           dx          dy          dz
      0.924033  2.772098  0.924033    -0.000314    0.000013    0.125000  
      4.620164  2.772098  0.924033    -0.000314    0.000013    0.125000  
      0.924033  6.468229  0.924033    -0.000314    0.000013    0.125000  
      4.620164  6.468229  0.924033    -0.000314    0.000013    0.125000  
      0.924033  2.772098  4.620164    -0.000314    0.000013    0.125000  
      4.620164  2.772098  4.620164    -0.000314    0.000013    0.125000  
      0.924033  6.468229  4.620164    -0.000314    0.000013    0.125000  
      4.620164  6.468229  4.620164    -0.000314    0.000013    0.125000  
      0.000000  0.000000  1.848065    -0.000314    0.000013    0.125000  
      3.696131  0.000000  1.848065    -0.000314    0.000013    0.125000  
      0.000000  3.696131  1.848065    -0.000314    0.000013    0.125000  
      3.696131  3.696131  1.848065    -0.000314    0.000013    0.125000  
      0.000000  0.000000  5.544196    -0.000314    0.000013    0.125000  
      3.696131  0.000000  5.544196    -0.000314    0.000013    0.125000  
      0.000000  3.696131  5.544196    -0.000314    0.000013    0.125000  
      3.696131  3.696131  5.544196    -0.000314    0.000013    0.125000  
      0.924033  0.924033  2.772098    -0.000314    0.000013    0.125000  
      4.620164  0.924033  2.772098    -0.000314    0.000013    0.125000  
      0.924033  4.620164  2.772098    -0.000314    0.000013    0.125000  
      4.620164  4.620164  2.772098    -0.000314    0.000013    0.125000  
      0.924033  0.924033  6.468229    -0.000314    0.000013    0.125000  
      4.620164  0.924033  6.468229    -0.000314    0.000013    0.125000  
      0.924033  4.620164  6.468229    -0.000314    0.000013    0.125000  
      4.620164  4.620164  6.468229    -0.000314    0.000013    0.125000  
      0.000000  1.848065  0.000000    -0.000314    0.000013    0.125000  
      3.696131  1.848065  0.000000    -0.000314    0.000013    0.125000  
      0.000000  5.544196  0.000000    -0.000314    0.000013    0.125000  
      3.696131  5.544196  0.000000    -0.000314    0.000013    0.125000  
      0.000000  1.848065  3.696131    -0.000314    0.000013    0.125000  
      3.696131  1.848065  3.696131    -0.000314    0.000013    0.125000  
      0.000000  5.544196  3.696131    -0.000314    0.000013    0.125000  
      3.696131  5.544196  3.696131    -0.000314    0.000013    0.125000  
      2.772098  2.772098  2.772098    -0.000314    0.000013    0.125000  
      6.468229  2.772098  2.772098    -0.000314    0.000013    0.125000  
      2.772098  6.468229  2.772098    -0.000314    0.000013    0.125000  
      6.468229  6.468229  2.772098    -0.000314    0.000013    0.125000  
      2.772098  2.772098  6.468229    -0.000314    0.000013    0.125000  
      6.468229  2.772098  6.468229    -0.000314    0.000013    0.125000  
      2.772098  6.468229  6.468229    -0.000314    0.000013    0.125000  
      6.468229  6.468229  6.468229    -0.000314    0.000013    0.125000  
      1.848065  0.000000  0.000000    -0.000314    0.000013    0.125000  
      5.544196  0.000000  0.000000    -0.000314    0.000013    0.125000  
      1.848065  3.696131  0.000000    -0.000314    0.000013    0.125000  
      5.544196  3.696131  0.000000    -0.000314    0.000013    0.125000  
      1.848065  0.000000  3.696131    -0.000314    0.000013    0.125000  
      5.544196  0.000000  3.696131    -0.000314    0.000013    0.125000  
      1.848065  3.696131  3.696131    -0.000314    0.000013    0.125000  
      5.544196  3.696131  3.696131    -0.000314    0.000013    0.125000  
      2.772098  0.924033  0.924033    -0.000314    0.000013    0.125000  
      6.468229  0.924033  0.924033    -0.000314    0.000013    0.125000  
      2.772098  4.620164  0.924033    -0.000314    0.000013    0.125000  
      6.468229  4.620164  0.924033    -0.000314    0.000013    0.125000  
      2.772098  0.924033  4.620164    -0.000314    0.000013    0.125000  
      6.468229  0.924033  4.620164    -0.000314    0.000013    0.125000  
      2.772098  4.620164  4.620164    -0.000314    0.000013    0.125000  
      6.468229  4.620164  4.620164    -0.000314    0.000013    0.125000  
      1.848065  1.848065  1.848065    -0.000314    0.000013    0.125000  
      5.544196  1.848065  1.848065    -0.000314    0.000013    0.125000  
      1.848065  5.544196  1.848065    -0.000314    0.000013    0.125000  
      5.544196  5.544196  1.848065    -0.000314    0.000013    0.125000  
      1.848065  1.848065  5.544196    -0.000314    0.000013    0.125000  
      5.544196  1.848065  5.544196    -0.000314    0.000013    0.125000  
      1.848065  5.544196  5.544196    -0.000314    0.000013    0.125000  
      5.544196  5.544196  5.544196    -0.000314    0.000013    0.125000  
 
 192 f  =    0.000006 THz     0.000036 2PiTHz    0.000194 cm-1     0.000024 meV
             X         Y         Z           dx          dy          dz
      0.924033  2.772098  0.924033    -0.005196   -0.124892   -0.000001  
      4.620164  2.772098  0.924033    -0.005196   -0.124892   -0.000001  
      0.924033  6.468229  0.924033    -0.005196   -0.124892   -0.000001  
      4.620164  6.468229  0.924033    -0.005196   -0.124892   -0.000001  
      0.924033  2.772098  4.620164    -0.005196   -0.124892   -0.000001  
      4.620164  2.772098  4.620164    -0.005196   -0.124892   -0.000001  
      0.924033  6.468229  4.620164    -0.005196   -0.124892   -0.000001  
      4.620164  6.468229  4.620164    -0.005196   -0.124892   -0.000001  
      0.000000  0.000000  1.848065    -0.005196   -0.124892   -0.000001  
      3.696131  0.000000  1.848065    -0.005196   -0.124892   -0.000001  
      0.000000  3.696131  1.848065    -0.005196   -0.124892   -0.000001  
      3.696131  3.696131  1.848065    -0.005196   -0.124892   -0.000001  
      0.000000  0.000000  5.544196    -0.005196   -0.124892   -0.000001  
      3.696131  0.000000  5.544196    -0.005196   -0.124892   -0.000001  
      0.000000  3.696131  5.544196    -0.005196   -0.124892   -0.000001  
      3.696131  3.696131  5.544196    -0.005196   -0.124892   -0.000001  
      0.924033  0.924033  2.772098    -0.005196   -0.124892   -0.000001  
      4.620164  0.924033  2.772098    -0.005196   -0.124892   -0.000001  
      0.924033  4.620164  2.772098    -0.005196   -0.124892   -0.000001  
      4.620164  4.620164  2.772098    -0.005196   -0.124892   -0.000001  
      0.924033  0.924033  6.468229    -0.005196   -0.124892   -0.000001  
      4.620164  0.924033  6.468229    -0.005196   -0.124892   -0.000001  
      0.924033  4.620164  6.468229    -0.005196   -0.124892   -0.000001  
      4.620164  4.620164  6.468229    -0.005196   -0.124892   -0.000001  
      0.000000  1.848065  0.000000    -0.005196   -0.124892   -0.000001  
      3.696131  1.848065  0.000000    -0.005196   -0.124892   -0.000001  
      0.000000  5.544196  0.000000    -0.005196   -0.124892   -0.000001  
      3.696131  5.544196  0.000000    -0.005196   -0.124892   -0.000001  
      0.000000  1.848065  3.696131    -0.005196   -0.124892   -0.000001  
      3.696131  1.848065  3.696131    -0.005196   -0.124892   -0.000001  
      0.000000  5.544196  3.696131    -0.005196   -0.124892   -0.000001  
      3.696131  5.544196  3.696131    -0.005196   -0.124892   -0.000001  
      2.772098  2.772098  2.772098    -0.005196   -0.124892   -0.000001  
      6.468229  2.772098  2.772098    -0.005196   -0.124892   -0.000001  
      2.772098  6.468229  2.772098    -0.005196   -0.124892   -0.000001  
      6.468229  6.468229  2.772098    -0.005196   -0.124892   -0.000001  
      2.772098  2.772098  6.468229    -0.005196   -0.124892   -0.000001  
      6.468229  2.772098  6.468229    -0.005196   -0.124892   -0.000001  
      2.772098  6.468229  6.468229    -0.005196   -0.124892   -0.000001  
      6.468229  6.468229  6.468229    -0.005196   -0.124892   -0.000001  
      1.848065  0.000000  0.000000    -0.005196   -0.124892   -0.000001  
      5.544196  0.000000  0.000000    -0.005196   -0.124892   -0.000001  
      1.848065  3.696131  0.000000    -0.005196   -0.124892   -0.000001  
      5.544196  3.696131  0.000000    -0.005196   -0.124892   -0.000001  
      1.848065  0.000000  3.696131    -0.005196   -0.124892   -0.000001  
      5.544196  0.000000  3.696131    -0.005196   -0.124892   -0.000001  
      1.848065  3.696131  3.696131    -0.005196   -0.124892   -0.000001  
      5.544196  3.696131  3.696131    -0.005196   -0.124892   -0.000001  
      2.772098  0.924033  0.924033    -0.005196   -0.124892   -0.000001  
      6.468229  0.924033  0.924033    -0.005196   -0.124892   -0.000001  
      2.772098  4.620164  0.924033    -0.005196   -0.124892   -0.000001  
      6.468229  4.620164  0.924033    -0.005196   -0.124892   -0.000001  
      2.772098  0.924033  4.620164    -0.005196   -0.124892   -0.000001  
      6.468229  0.924033  4.620164    -0.005196   -0.124892   -0.000001  
      2.772098  4.620164  4.620164    -0.005196   -0.124892   -0.000001  
      6.468229  4.620164  4.620164    -0.005196   -0.124892   -0.000001  
      1.848065  1.848065  1.848065    -0.005196   -0.124892   -0.000001  
      5.544196  1.848065  1.848065    -0.005196   -0.124892   -0.000001  
      1.848065  5.544196  1.848065    -0.005196   -0.124892   -0.000001  
      5.544196  5.544196  1.848065    -0.005196   -0.124892   -0.000001  
      1.848065  1.848065  5.544196    -0.005196   -0.124892   -0.000001  
      5.544196  1.848065  5.544196    -0.005196   -0.124892   -0.000001  
      1.848065  5.544196  5.544196    -0.005196   -0.124892   -0.000001  
      5.544196  5.544196  5.544196    -0.005196   -0.124892   -0.000001  
 


--------------------------------------------------------------------------------------------------------



 ELASTIC MODULI CONTR FROM IONIC RELAXATION (kBar)
 Direction    XX          YY          ZZ          XY          YZ          ZX
 --------------------------------------------------------------------------------
 XX          -0.0000      0.0000      0.0000      0.0000     -0.0000      0.0000
 YY           0.0000     -0.0000      0.0000      0.0000      0.0000     -0.0000
 ZZ           0.0000      0.0000     -0.0000     -0.0000      0.0000      0.0000
 XY           0.0000      0.0000     -0.0000    -15.8664     -0.0000     -0.0000
 YZ          -0.0000      0.0000      0.0000     -0.0000    -15.8664      0.0000
 ZX           0.0000     -0.0000      0.0000     -0.0000      0.0000    -15.8664
 --------------------------------------------------------------------------------



--------------------------------------------------------------------------------------------------------


     LOOP+:  cpu time  914.3410: real time  914.8864
    4ORBIT:  cpu time    0.0000: real time    0.0000

 total amount of memory used by VASP MPI-rank0    72880. kBytes
=======================================================================

   base      :      30000. kBytes
   nonl-proj :      17104. kBytes
   fftplans  :       4537. kBytes
   grid      :       5806. kBytes
   one-center:        196. kBytes
   wavefun   :      15237. kBytes
 
  
  
 General timing and accounting informations for this job:
 ========================================================
  
                  Total CPU time used (sec):      923.892
                            User time (sec):      918.805
                          System time (sec):        5.088
                         Elapsed time (sec):      924.499
  
                   Maximum memory used (kb):      403624.
                   Average memory used (kb):           0.
  
                          Minor page faults:        39303
                          Major page faults:           36
                 Voluntary context switches:          843
