# Thermal properties / unit cell (natom)

unit:
  temperature:   K
  free_energy:   kJ/mol
  entropy:       J/K/mol
  heat_capacity: J/K/mol

natom: 8    
cutoff_frequency:    0.000
num_modes: 2654208
num_integrated_modes: 2654208

zero_point_energy:     124.6409318
high_T_entropy:        453.4818438

thermal_properties:
- temperature:         0.0000000
  free_energy:       124.6409318
  entropy:             0.0000000
  heat_capacity:       0.0000000
  energy:            124.6409318

- temperature:         2.0000000
  free_energy:       124.6409318
  entropy:             0.0000000
  heat_capacity:       0.0000000
  energy:            124.6409318

- temperature:         4.0000000
  free_energy:       124.6409318
  entropy:             0.0000125
  heat_capacity:       0.0000746
  energy:            124.6409319

- temperature:         6.0000000
  free_energy:       124.6409317
  entropy:             0.0000939
  heat_capacity:       0.0003929
  energy:            124.6409323

- temperature:         8.0000000
  free_energy:       124.6409314
  entropy:             0.0002825
  heat_capacity:       0.0010005
  energy:            124.6409336

- temperature:        10.0000000
  free_energy:       124.6409305
  entropy:             0.0006030
  heat_capacity:       0.0019790
  energy:            124.6409365

- temperature:        12.0000000
  free_energy:       124.6409288
  entropy:             0.0010841
  heat_capacity:       0.0034298
  energy:            124.6409419

- temperature:        14.0000000
  free_energy:       124.6409260
  entropy:             0.0017569
  heat_capacity:       0.0054543
  energy:            124.6409506

- temperature:        16.0000000
  free_energy:       124.6409217
  entropy:             0.0026533
  heat_capacity:       0.0081525
  energy:            124.6409641

- temperature:        18.0000000
  free_energy:       124.6409153
  entropy:             0.0038059
  heat_capacity:       0.0116246
  energy:            124.6409838

- temperature:        20.0000000
  free_energy:       124.6409063
  entropy:             0.0052475
  heat_capacity:       0.0159720
  energy:            124.6410112

- temperature:        22.0000000
  free_energy:       124.6408940
  entropy:             0.0070114
  heat_capacity:       0.0212974
  energy:            124.6410483

- temperature:        24.0000000
  free_energy:       124.6408780
  entropy:             0.0091310
  heat_capacity:       0.0277054
  energy:            124.6410971

- temperature:        26.0000000
  free_energy:       124.6408573
  entropy:             0.0116404
  heat_capacity:       0.0353030
  energy:            124.6411599

- temperature:        28.0000000
  free_energy:       124.6408311
  entropy:             0.0145738
  heat_capacity:       0.0441993
  energy:            124.6412392

- temperature:        30.0000000
  free_energy:       124.6407987
  entropy:             0.0179663
  heat_capacity:       0.0545068
  energy:            124.6413377

- temperature:        32.0000000
  free_energy:       124.6407589
  entropy:             0.0218533
  heat_capacity:       0.0663407
  energy:            124.6414582

- temperature:        34.0000000
  free_energy:       124.6407109
  entropy:             0.0262710
  heat_capacity:       0.0798204
  energy:            124.6416041

- temperature:        36.0000000
  free_energy:       124.6406535
  entropy:             0.0312564
  heat_capacity:       0.0950694
  energy:            124.6417787

- temperature:        38.0000000
  free_energy:       124.6405855
  entropy:             0.0368470
  heat_capacity:       0.1122163
  energy:            124.6419857

- temperature:        40.0000000
  free_energy:       124.6405056
  entropy:             0.0430817
  heat_capacity:       0.1313957
  energy:            124.6422289

- temperature:        42.0000000
  free_energy:       124.6404127
  entropy:             0.0500000
  heat_capacity:       0.1527488
  energy:            124.6425127

- temperature:        44.0000000
  free_energy:       124.6403052
  entropy:             0.0576430
  heat_capacity:       0.1764247
  energy:            124.6428415

- temperature:        46.0000000
  free_energy:       124.6401816
  entropy:             0.0660530
  heat_capacity:       0.2025811
  energy:            124.6432200

- temperature:        48.0000000
  free_energy:       124.6400404
  entropy:             0.0752737
  heat_capacity:       0.2313857
  energy:            124.6436535

- temperature:        50.0000000
  free_energy:       124.6398799
  entropy:             0.0853506
  heat_capacity:       0.2630171
  energy:            124.6441475

- temperature:        52.0000000
  free_energy:       124.6396984
  entropy:             0.0963312
  heat_capacity:       0.2976652
  energy:            124.6447076

- temperature:        54.0000000
  free_energy:       124.6394940
  entropy:             0.1082648
  heat_capacity:       0.3355324
  energy:            124.6453403

- temperature:        56.0000000
  free_energy:       124.6392647
  entropy:             0.1212030
  heat_capacity:       0.3768332
  energy:            124.6460520

- temperature:        58.0000000
  free_energy:       124.6390085
  entropy:             0.1351998
  heat_capacity:       0.4217951
  energy:            124.6468500

- temperature:        60.0000000
  free_energy:       124.6387231
  entropy:             0.1503115
  heat_capacity:       0.4706578
  energy:            124.6477418

- temperature:        62.0000000
  free_energy:       124.6384064
  entropy:             0.1665970
  heat_capacity:       0.5236726
  energy:            124.6487354

- temperature:        64.0000000
  free_energy:       124.6380559
  entropy:             0.1841177
  heat_capacity:       0.5811020
  energy:            124.6498395

- temperature:        66.0000000
  free_energy:       124.6376691
  entropy:             0.2029376
  heat_capacity:       0.6432180
  energy:            124.6510630

- temperature:        68.0000000
  free_energy:       124.6372433
  entropy:             0.2231232
  heat_capacity:       0.7103014
  energy:            124.6524156

- temperature:        70.0000000
  free_energy:       124.6367756
  entropy:             0.2447435
  heat_capacity:       0.7826397
  energy:            124.6539077

- temperature:        72.0000000
  free_energy:       124.6362633
  entropy:             0.2678696
  heat_capacity:       0.8605257
  energy:            124.6555499

- temperature:        74.0000000
  free_energy:       124.6357031
  entropy:             0.2925753
  heat_capacity:       0.9442560
  energy:            124.6573537

- temperature:        76.0000000
  free_energy:       124.6350919
  entropy:             0.3189360
  heat_capacity:       1.0341288
  energy:            124.6593310

- temperature:        78.0000000
  free_energy:       124.6344262
  entropy:             0.3470292
  heat_capacity:       1.1304423
  energy:            124.6614945

- temperature:        80.0000000
  free_energy:       124.6337026
  entropy:             0.3769340
  heat_capacity:       1.2334930
  energy:            124.6638573

- temperature:        82.0000000
  free_energy:       124.6329172
  entropy:             0.4087309
  heat_capacity:       1.3435741
  energy:            124.6664332

- temperature:        84.0000000
  free_energy:       124.6320663
  entropy:             0.4425016
  heat_capacity:       1.4609738
  energy:            124.6692365

- temperature:        86.0000000
  free_energy:       124.6311458
  entropy:             0.4783288
  heat_capacity:       1.5859741
  energy:            124.6722821

- temperature:        88.0000000
  free_energy:       124.6301516
  entropy:             0.5162958
  heat_capacity:       1.7188490
  energy:            124.6755856

- temperature:        90.0000000
  free_energy:       124.6290792
  entropy:             0.5564863
  heat_capacity:       1.8598639
  energy:            124.6791629

- temperature:        92.0000000
  free_energy:       124.6279241
  entropy:             0.5989844
  heat_capacity:       2.0092742
  energy:            124.6830307

- temperature:        94.0000000
  free_energy:       124.6266816
  entropy:             0.6438740
  heat_capacity:       2.1673247
  energy:            124.6872058

- temperature:        96.0000000
  free_energy:       124.6253469
  entropy:             0.6912388
  heat_capacity:       2.3342484
  energy:            124.6917059

- temperature:        98.0000000
  free_energy:       124.6239150
  entropy:             0.7411620
  heat_capacity:       2.5102663
  energy:            124.6965489

- temperature:       100.0000000
  free_energy:       124.6223805
  entropy:             0.7937260
  heat_capacity:       2.6955870
  energy:            124.7017531

- temperature:       102.0000000
  free_energy:       124.6207383
  entropy:             0.8490125
  heat_capacity:       2.8904057
  energy:            124.7073375

- temperature:       104.0000000
  free_energy:       124.6189826
  entropy:             0.9071019
  heat_capacity:       3.0949045
  energy:            124.7133212

- temperature:       106.0000000
  free_energy:       124.6171079
  entropy:             0.9680734
  heat_capacity:       3.3092522
  energy:            124.7197237

- temperature:       108.0000000
  free_energy:       124.6151084
  entropy:             1.0320050
  heat_capacity:       3.5336038
  energy:            124.7265649

- temperature:       110.0000000
  free_energy:       124.6129779
  entropy:             1.0989728
  heat_capacity:       3.7681008
  energy:            124.7338649

- temperature:       112.0000000
  free_energy:       124.6107104
  entropy:             1.1690514
  heat_capacity:       4.0128711
  energy:            124.7416441

- temperature:       114.0000000
  free_energy:       124.6082996
  entropy:             1.2423136
  heat_capacity:       4.2680292
  energy:            124.7499233

- temperature:       116.0000000
  free_energy:       124.6057390
  entropy:             1.3188301
  heat_capacity:       4.5336763
  energy:            124.7587233

- temperature:       118.0000000
  free_energy:       124.6030220
  entropy:             1.3986698
  heat_capacity:       4.8099003
  energy:            124.7680651

- temperature:       120.0000000
  free_energy:       124.6001420
  entropy:             1.4818994
  heat_capacity:       5.0967762
  energy:            124.7779700

- temperature:       122.0000000
  free_energy:       124.5970921
  entropy:             1.5685835
  heat_capacity:       5.3943664
  energy:            124.7884593

- temperature:       124.0000000
  free_energy:       124.5938653
  entropy:             1.6587843
  heat_capacity:       5.7027206
  energy:            124.7995546

- temperature:       126.0000000
  free_energy:       124.5904546
  entropy:             1.7525618
  heat_capacity:       6.0218763
  energy:            124.8112774

- temperature:       128.0000000
  free_energy:       124.5868527
  entropy:             1.8499738
  heat_capacity:       6.3518592
  energy:            124.8236493

- temperature:       130.0000000
  free_energy:       124.5830522
  entropy:             1.9510755
  heat_capacity:       6.6926830
  energy:            124.8366921

- temperature:       132.0000000
  free_energy:       124.5790459
  entropy:             2.0559197
  heat_capacity:       7.0443504
  energy:            124.8504273

- temperature:       134.0000000
  free_energy:       124.5748260
  entropy:             2.1645570
  heat_capacity:       7.4068528
  energy:            124.8648767

- temperature:       136.0000000
  free_energy:       124.5703851
  entropy:             2.2770354
  heat_capacity:       7.7801708
  energy:            124.8800619

- temperature:       138.0000000
  free_energy:       124.5657153
  entropy:             2.3934004
  heat_capacity:       8.1642745
  energy:            124.8960046

- temperature:       140.0000000
  free_energy:       124.5608089
  entropy:             2.5136950
  heat_capacity:       8.5591240
  energy:            124.9127262

- temperature:       142.0000000
  free_energy:       124.5556579
  entropy:             2.6379599
  heat_capacity:       8.9646693
  energy:            124.9302482

- temperature:       144.0000000
  free_energy:       124.5502544
  entropy:             2.7662332
  heat_capacity:       9.3808510
  energy:            124.9485919

- temperature:       146.0000000
  free_energy:       124.5445902
  entropy:             2.8985506
  heat_capacity:       9.8076003
  energy:            124.9677786

- temperature:       148.0000000
  free_energy:       124.5386574
  entropy:             3.0349452
  heat_capacity:      10.2448396
  energy:            124.9878293

- temperature:       150.0000000
  free_energy:       124.5324477
  entropy:             3.1754480
  heat_capacity:      10.6924826
  energy:            125.0087649

- temperature:       152.0000000
  free_energy:       124.5259529
  entropy:             3.3200872
  heat_capacity:      11.1504348
  energy:            125.0306061

- temperature:       154.0000000
  free_energy:       124.5191646
  entropy:             3.4688887
  heat_capacity:      11.6185934
  energy:            125.0533735

- temperature:       156.0000000
  free_energy:       124.5120745
  entropy:             3.6218763
  heat_capacity:      12.0968483
  energy:            125.0770872

- temperature:       158.0000000
  free_energy:       124.5046743
  entropy:             3.7790710
  heat_capacity:      12.5850819
  energy:            125.1017675

- temperature:       160.0000000
  free_energy:       124.4969554
  entropy:             3.9404919
  heat_capacity:      13.0831693
  energy:            125.1274341

- temperature:       162.0000000
  free_energy:       124.4889095
  entropy:             4.1061554
  heat_capacity:      13.5909793
  energy:            125.1541067

- temperature:       164.0000000
  free_energy:       124.4805280
  entropy:             4.2760760
  heat_capacity:      14.1083739
  energy:            125.1818044

- temperature:       166.0000000
  free_energy:       124.4718024
  entropy:             4.4502657
  heat_capacity:      14.6352092
  energy:            125.2105465

- temperature:       168.0000000
  free_energy:       124.4627241
  entropy:             4.6287346
  heat_capacity:      15.1713356
  energy:            125.2403515

- temperature:       170.0000000
  free_energy:       124.4532846
  entropy:             4.8114903
  heat_capacity:      15.7165979
  energy:            125.2712379

- temperature:       172.0000000
  free_energy:       124.4434752
  entropy:             4.9985384
  heat_capacity:      16.2708357
  energy:            125.3032238

- temperature:       174.0000000
  free_energy:       124.4332875
  entropy:             5.1898826
  heat_capacity:      16.8338838
  energy:            125.3363271

- temperature:       176.0000000
  free_energy:       124.4227128
  entropy:             5.3855244
  heat_capacity:      17.4055727
  energy:            125.3705651

- temperature:       178.0000000
  free_energy:       124.4117426
  entropy:             5.5854633
  heat_capacity:      17.9857283
  energy:            125.4059550

- temperature:       180.0000000
  free_energy:       124.4003681
  entropy:             5.7896970
  heat_capacity:      18.5741729
  energy:            125.4425136

- temperature:       182.0000000
  free_energy:       124.3885809
  entropy:             5.9982210
  heat_capacity:      19.1707251
  energy:            125.4802571

- temperature:       184.0000000
  free_energy:       124.3763724
  entropy:             6.2110292
  heat_capacity:      19.7752002
  energy:            125.5192018

- temperature:       186.0000000
  free_energy:       124.3637340
  entropy:             6.4281137
  heat_capacity:      20.3874103
  energy:            125.5593631

- temperature:       188.0000000
  free_energy:       124.3506571
  entropy:             6.6494646
  heat_capacity:      21.0071652
  energy:            125.6007564

- temperature:       190.0000000
  free_energy:       124.3371333
  entropy:             6.8750705
  heat_capacity:      21.6342718
  energy:            125.6433967

- temperature:       192.0000000
  free_energy:       124.3231540
  entropy:             7.1049183
  heat_capacity:      22.2685351
  energy:            125.6872983

- temperature:       194.0000000
  free_energy:       124.3087108
  entropy:             7.3389932
  heat_capacity:      22.9097583
  energy:            125.7324754

- temperature:       196.0000000
  free_energy:       124.2937952
  entropy:             7.5772788
  heat_capacity:      23.5577427
  energy:            125.7789418

- temperature:       198.0000000
  free_energy:       124.2783989
  entropy:             7.8197572
  heat_capacity:      24.2122885
  energy:            125.8267108

- temperature:       200.0000000
  free_energy:       124.2625134
  entropy:             8.0664092
  heat_capacity:      24.8731947
  energy:            125.8757952

- temperature:       202.0000000
  free_energy:       124.2461305
  entropy:             8.3172140
  heat_capacity:      25.5402596
  energy:            125.9262077

- temperature:       204.0000000
  free_energy:       124.2292418
  entropy:             8.5721493
  heat_capacity:      26.2132806
  energy:            125.9779602

- temperature:       206.0000000
  free_energy:       124.2118391
  entropy:             8.8311918
  heat_capacity:      26.8920550
  energy:            126.0310646

- temperature:       208.0000000
  free_energy:       124.1939143
  entropy:             9.0943167
  heat_capacity:      27.5763798
  energy:            126.0855322

- temperature:       210.0000000
  free_energy:       124.1754591
  entropy:             9.3614979
  heat_capacity:      28.2660522
  energy:            126.1413737

- temperature:       212.0000000
  free_energy:       124.1564656
  entropy:             9.6327084
  heat_capacity:      28.9608697
  energy:            126.1985998

- temperature:       214.0000000
  free_energy:       124.1369256
  entropy:             9.9079198
  heat_capacity:      29.6606300
  energy:            126.2572205

- temperature:       216.0000000
  free_energy:       124.1168313
  entropy:            10.1871028
  heat_capacity:      30.3651319
  energy:            126.3172455

- temperature:       218.0000000
  free_energy:       124.0961746
  entropy:            10.4702268
  heat_capacity:      31.0741748
  energy:            126.3786840

- temperature:       220.0000000
  free_energy:       124.0749478
  entropy:            10.7572605
  heat_capacity:      31.7875592
  energy:            126.4415451

- temperature:       222.0000000
  free_energy:       124.0531430
  entropy:            11.0481715
  heat_capacity:      32.5050868
  energy:            126.5058370

- temperature:       224.0000000
  free_energy:       124.0307525
  entropy:            11.3429265
  heat_capacity:      33.2265607
  energy:            126.5715681

- temperature:       226.0000000
  free_energy:       124.0077687
  entropy:            11.6414914
  heat_capacity:      33.9517856
  energy:            126.6387458

- temperature:       228.0000000
  free_energy:       123.9841840
  entropy:            11.9438312
  heat_capacity:      34.6805677
  energy:            126.7073776

- temperature:       230.0000000
  free_energy:       123.9599909
  entropy:            12.2499104
  heat_capacity:      35.4127153
  energy:            126.7774703

- temperature:       232.0000000
  free_energy:       123.9351819
  entropy:            12.5596923
  heat_capacity:      36.1480383
  energy:            126.8490305

- temperature:       234.0000000
  free_energy:       123.9097497
  entropy:            12.8731399
  heat_capacity:      36.8863489
  energy:            126.9220644

- temperature:       236.0000000
  free_energy:       123.8836870
  entropy:            13.1902155
  heat_capacity:      37.6274613
  energy:            126.9965778

- temperature:       238.0000000
  free_energy:       123.8569865
  entropy:            13.5108806
  heat_capacity:      38.3711922
  energy:            127.0725760

- temperature:       240.0000000
  free_energy:       123.8296411
  entropy:            13.8350964
  heat_capacity:      39.1173605
  energy:            127.1500642

- temperature:       242.0000000
  free_energy:       123.8016437
  entropy:            14.1628234
  heat_capacity:      39.8657877
  energy:            127.2290470

- temperature:       244.0000000
  free_energy:       123.7729875
  entropy:            14.4940217
  heat_capacity:      40.6162976
  energy:            127.3095287

- temperature:       246.0000000
  free_energy:       123.7436654
  entropy:            14.8286508
  heat_capacity:      41.3687171
  energy:            127.3915135

- temperature:       248.0000000
  free_energy:       123.7136706
  entropy:            15.1666701
  heat_capacity:      42.1228752
  energy:            127.4750048

- temperature:       250.0000000
  free_energy:       123.6829964
  entropy:            15.5080382
  heat_capacity:      42.8786042
  energy:            127.5600060

- temperature:       252.0000000
  free_energy:       123.6516362
  entropy:            15.8527138
  heat_capacity:      43.6357390
  energy:            127.6465201

- temperature:       254.0000000
  free_energy:       123.6195834
  entropy:            16.2006550
  heat_capacity:      44.3941172
  energy:            127.7345498

- temperature:       256.0000000
  free_energy:       123.5868315
  entropy:            16.5518197
  heat_capacity:      45.1535797
  energy:            127.8240973

- temperature:       258.0000000
  free_energy:       123.5533740
  entropy:            16.9061656
  heat_capacity:      45.9139701
  energy:            127.9151647

- temperature:       260.0000000
  free_energy:       123.5192047
  entropy:            17.2636500
  heat_capacity:      46.6751351
  energy:            128.0077537

- temperature:       262.0000000
  free_energy:       123.4843173
  entropy:            17.6242303
  heat_capacity:      47.4369243
  energy:            128.1018657

- temperature:       264.0000000
  free_energy:       123.4487058
  entropy:            17.9878635
  heat_capacity:      48.1991905
  energy:            128.1975017

- temperature:       266.0000000
  free_energy:       123.4123639
  entropy:            18.3545067
  heat_capacity:      48.9617895
  energy:            128.2946627

- temperature:       268.0000000
  free_energy:       123.3752857
  entropy:            18.7241166
  heat_capacity:      49.7245801
  energy:            128.3933490

- temperature:       270.0000000
  free_energy:       123.3374655
  entropy:            19.0966502
  heat_capacity:      50.4874245
  energy:            128.4935610

- temperature:       272.0000000
  free_energy:       123.2988972
  entropy:            19.4720641
  heat_capacity:      51.2501876
  energy:            128.5952987

- temperature:       274.0000000
  free_energy:       123.2595753
  entropy:            19.8503150
  heat_capacity:      52.0127376
  energy:            128.6985616

- temperature:       276.0000000
  free_energy:       123.2194941
  entropy:            20.2313597
  heat_capacity:      52.7749459
  energy:            128.8033494

- temperature:       278.0000000
  free_energy:       123.1786480
  entropy:            20.6151549
  heat_capacity:      53.5366868
  energy:            128.9096611

- temperature:       280.0000000
  free_energy:       123.1370317
  entropy:            21.0016573
  heat_capacity:      54.2978379
  energy:            129.0174957

- temperature:       282.0000000
  free_energy:       123.0946396
  entropy:            21.3908239
  heat_capacity:      55.0582796
  energy:            129.1268520

- temperature:       284.0000000
  free_energy:       123.0514666
  entropy:            21.7826115
  heat_capacity:      55.8178956
  energy:            129.2377283

- temperature:       286.0000000
  free_energy:       123.0075075
  entropy:            22.1769771
  heat_capacity:      56.5765726
  energy:            129.3501229

- temperature:       288.0000000
  free_energy:       122.9627570
  entropy:            22.5738780
  heat_capacity:      57.3342003
  energy:            129.4640339

- temperature:       290.0000000
  free_energy:       122.9172103
  entropy:            22.9732712
  heat_capacity:      58.0906714
  energy:            129.5794590

- temperature:       292.0000000
  free_energy:       122.8708623
  entropy:            23.3751144
  heat_capacity:      58.8458815
  energy:            129.6963957

- temperature:       294.0000000
  free_energy:       122.8237082
  entropy:            23.7793651
  heat_capacity:      59.5997293
  energy:            129.8148416

- temperature:       296.0000000
  free_energy:       122.7757433
  entropy:            24.1859811
  heat_capacity:      60.3521163
  energy:            129.9347937

- temperature:       298.0000000
  free_energy:       122.7269628
  entropy:            24.5949203
  heat_capacity:      61.1029470
  energy:            130.0562490

- temperature:       300.0000000
  free_energy:       122.6773621
  entropy:            25.0061409
  heat_capacity:      61.8521288
  energy:            130.1792044

- temperature:       302.0000000
  free_energy:       122.6269367
  entropy:            25.4196015
  heat_capacity:      62.5995717
  energy:            130.3036564

- temperature:       304.0000000
  free_energy:       122.5756822
  entropy:            25.8352606
  heat_capacity:      63.3451887
  energy:            130.4296014

- temperature:       306.0000000
  free_energy:       122.5235942
  entropy:            26.2530772
  heat_capacity:      64.0888954
  energy:            130.5570358

- temperature:       308.0000000
  free_energy:       122.4706685
  entropy:            26.6730104
  heat_capacity:      64.8306103
  energy:            130.6859557

- temperature:       310.0000000
  free_energy:       122.4169008
  entropy:            27.0950197
  heat_capacity:      65.5702544
  energy:            130.8163569

- temperature:       312.0000000
  free_energy:       122.3622871
  entropy:            27.5190648
  heat_capacity:      66.3077515
  energy:            130.9482353

- temperature:       314.0000000
  free_energy:       122.3068232
  entropy:            27.9451058
  heat_capacity:      67.0430278
  energy:            131.0815864

- temperature:       316.0000000
  free_energy:       122.2505053
  entropy:            28.3731029
  heat_capacity:      67.7760123
  energy:            131.2164059

- temperature:       318.0000000
  free_energy:       122.1933295
  entropy:            28.8030169
  heat_capacity:      68.5066363
  energy:            131.3526889

- temperature:       320.0000000
  free_energy:       122.1352920
  entropy:            29.2348087
  heat_capacity:      69.2348337
  energy:            131.4904308

- temperature:       322.0000000
  free_energy:       122.0763891
  entropy:            29.6684395
  heat_capacity:      69.9605407
  energy:            131.6296266

- temperature:       324.0000000
  free_energy:       122.0166170
  entropy:            30.1038710
  heat_capacity:      70.6836960
  energy:            131.7702712

- temperature:       326.0000000
  free_energy:       121.9559724
  entropy:            30.5410651
  heat_capacity:      71.4042406
  energy:            131.9123596

- temperature:       328.0000000
  free_energy:       121.8944516
  entropy:            30.9799841
  heat_capacity:      72.1221177
  energy:            132.0558864

- temperature:       330.0000000
  free_energy:       121.8320513
  entropy:            31.4205907
  heat_capacity:      72.8372730
  energy:            132.2008463

- temperature:       332.0000000
  free_energy:       121.7687682
  entropy:            31.8628479
  heat_capacity:      73.5496542
  energy:            132.3472337

- temperature:       334.0000000
  free_energy:       121.7045989
  entropy:            32.3067190
  heat_capacity:      74.2592112
  energy:            132.4950430

- temperature:       336.0000000
  free_energy:       121.6395402
  entropy:            32.7521677
  heat_capacity:      74.9658959
  energy:            132.6442686

- temperature:       338.0000000
  free_energy:       121.5735892
  entropy:            33.1991582
  heat_capacity:      75.6696626
  energy:            132.7949047

- temperature:       340.0000000
  free_energy:       121.5067426
  entropy:            33.6476549
  heat_capacity:      76.3704673
  energy:            132.9469453

- temperature:       342.0000000
  free_energy:       121.4389976
  entropy:            34.0976226
  heat_capacity:      77.0682682
  energy:            133.1003845

- temperature:       344.0000000
  free_energy:       121.3703512
  entropy:            34.5490266
  heat_capacity:      77.7630252
  energy:            133.2552163

- temperature:       346.0000000
  free_energy:       121.3008005
  entropy:            35.0018325
  heat_capacity:      78.4547004
  energy:            133.4114346

- temperature:       348.0000000
  free_energy:       121.2303429
  entropy:            35.4560061
  heat_capacity:      79.1432575
  energy:            133.5690330

- temperature:       350.0000000
  free_energy:       121.1589756
  entropy:            35.9115139
  heat_capacity:      79.8286621
  energy:            133.7280055

- temperature:       352.0000000
  free_energy:       121.0866960
  entropy:            36.3683226
  heat_capacity:      80.5108816
  energy:            133.8883456

- temperature:       354.0000000
  free_energy:       121.0135015
  entropy:            36.8263994
  heat_capacity:      81.1898851
  energy:            134.0500469

- temperature:       356.0000000
  free_energy:       120.9393896
  entropy:            37.2857117