<?xml version="1.0" encoding="ISO-8859-1"?>
<modeling>
 <generator>
  <i name="program" type="string">vasp </i>
  <i name="version" type="string">5.4.4.18Apr17-6-g9f103f2a35  </i>
  <i name="subversion" type="string">(build Mar 12 2022 03:36:41) complex            parallel </i>
  <i name="platform" type="string">IFC19.0.3.199_CrayMPICH7.7.19 </i>
  <i name="date" type="string">2022 12 02 </i>
  <i name="time" type="string">02:40:20 </i>
 </generator>
 <incar>
  <i type="string" name="PREC">accurate</i>
  <i type="int" name="IALGO">    38</i>
  <i type="logical" name="ADDGRID"> T  </i>
  <i type="int" name="IBRION">     8</i>
  <i name="EDIFF">      0.00000001</i>
  <i type="logical" name="LREAL"> F  </i>
  <i type="int" name="ISMEAR">     0</i>
  <i name="SIGMA">      0.06000000</i>
  <i type="logical" name="LWAVE"> F  </i>
  <i type="logical" name="LCHARG"> F  </i>
  <v type="int" name="KPOINT_BSE">    -1     0     0     0</v>
 </incar>
 <structure name="primitive_cell" >
  <crystal>
   <varray name="basis" >
    <v>       1.84806546       1.84806546      -0.00000000 </v>
    <v>       1.84806546       0.00000000      -1.84806546 </v>
    <v>       0.00000000       1.84806546      -1.84806546 </v>
   </varray>
   <i name="volume">     12.62356578 </i>
   <varray name="rec_basis" >
    <v>       0.27055319       0.27055319       0.27055319 </v>
    <v>       0.27055319      -0.27055319      -0.27055319 </v>
    <v>      -0.27055319       0.27055319      -0.27055319 </v>
   </varray>
  </crystal>
  <varray name="positions" >
   <v>       0.25000000       0.25000000       0.25000000 </v>
   <v>      -0.50000000      -0.50000000      -0.50000000 </v>
  </varray>
 </structure>
 <varray name="primitive_index" >
  <v type="int" >        1 </v>
  <v type="int" >       11 </v>
 </varray>
 <kpoints>
  <generation param="Gamma">
   <v type="int" name="divisions">       6        6        6 </v>
   <v name="usershift">      0.00000000       0.00000000       0.00000000 </v>
   <v name="genvec1">      0.16666667       0.00000000       0.00000000 </v>
   <v name="genvec2">      0.00000000       0.16666667       0.00000000 </v>
   <v name="genvec3">      0.00000000       0.00000000       0.16666667 </v>
   <v name="shift">      0.00000000       0.00000000       0.00000000 </v>
  </generation>
  <varray name="kpointlist" >
   <v>       0.00000000       0.00000000       0.00000000 </v>
   <v>       0.16666667       0.00000000       0.00000000 </v>
   <v>       0.33333333       0.00000000       0.00000000 </v>
   <v>       0.50000000       0.00000000       0.00000000 </v>
   <v>       0.16666667       0.16666667       0.00000000 </v>
   <v>       0.33333333       0.16666667       0.00000000 </v>
   <v>       0.50000000       0.16666667       0.00000000 </v>
   <v>       0.33333333       0.33333333       0.00000000 </v>
   <v>       0.50000000       0.33333333       0.00000000 </v>
   <v>       0.50000000       0.50000000       0.00000000 </v>
   <v>       0.16666667       0.16666667       0.16666667 </v>
   <v>       0.33333333       0.16666667       0.16666667 </v>
   <v>       0.50000000       0.16666667       0.16666667 </v>
   <v>       0.33333333       0.33333333       0.16666667 </v>
   <v>       0.50000000       0.33333333       0.16666667 </v>
   <v>       0.50000000       0.50000000       0.16666667 </v>
   <v>       0.33333333       0.33333333       0.33333333 </v>
   <v>       0.50000000       0.33333333       0.33333333 </v>
   <v>       0.50000000       0.50000000       0.33333333 </v>
   <v>       0.50000000       0.50000000       0.50000000 </v>
  </varray>
  <varray name="weights" >
   <v>       0.00462963 </v>
   <v>       0.02777778 </v>
   <v>       0.02777778 </v>
   <v>       0.01388889 </v>
   <v>       0.05555556 </v>
   <v>       0.11111111 </v>
   <v>       0.05555556 </v>
   <v>       0.05555556 </v>
   <v>       0.05555556 </v>
   <v>       0.01388889 </v>
   <v>       0.03703704 </v>
   <v>       0.11111111 </v>
   <v>       0.05555556 </v>
   <v>       0.11111111 </v>
   <v>       0.11111111 </v>
   <v>       0.02777778 </v>
   <v>       0.03703704 </v>
   <v>       0.05555556 </v>
   <v>       0.02777778 </v>
   <v>       0.00462963 </v>
  </varray>
 </kpoints>
 <parameters>
  <separator name="general" >
   <i type="string" name="SYSTEM">unknown system</i>
   <i type="logical" name="LCOMPAT"> F  </i>
  </separator>
  <separator name="electronic" >
   <i type="string" name="PREC">accura</i>
   <i name="ENMAX">    400.00000000</i>
   <i name="ENAUG">    644.87300000</i>
   <i name="EDIFF">      0.00000001</i>
   <i type="int" name="IALGO">    38</i>
   <i type="int" name="IWAVPR">    11</i>
   <i type="int" name="NBANDS">   192</i>
   <i name="NELECT">    256.00000000</i>
   <i type="int" name="TURBO">     0</i>
   <i type="int" name="IRESTART">     0</i>
   <i type="int" name="NREBOOT">     0</i>
   <i type="int" name="NMIN">     0</i>
   <i name="EREF">      0.00000000</i>
   <separator name="electronic smearing" >
    <i type="int" name="ISMEAR">     0</i>
    <i name="SIGMA">      0.06000000</i>
    <i name="KSPACING">      0.50000000</i>
    <i type="logical" name="KGAMMA"> T  </i>
   </separator>
   <separator name="electronic projectors" >
    <i type="logical" name="LREAL"> F  </i>
    <v name="ROPT">      0.00000000</v>
    <i type="int" name="LMAXPAW">  -100</i>
    <i type="int" name="LMAXMIX">     2</i>
    <i type="logical" name="NLSPLINE"> F  </i>
   </separator>
   <separator name="electronic startup" >
    <i type="int" name="ISTART">     0</i>
    <i type="int" name="ICHARG">     2</i>
    <i type="int" name="INIWAV">     1</i>
   </separator>
   <separator name="electronic spin" >
    <i type="int" name="ISPIN">     1</i>
    <i type="logical" name="LNONCOLLINEAR"> F  </i>
    <v name="MAGMOM">      1.00000000      1.00000000      1.00000000      1.00000000      1.00000000      1.00000000      1.00000000      1.00000000      1.00000000      1.00000000      1.00000000      1.00000000      1.00000000      1.00000000      1.00000000      1.00000000      1.00000000      1.00000000      1.00000000      1.00000000
      1.00000000      1.00000000      1.00000000      1.00000000      1.00000000      1.00000000      1.00000000      1.00000000      1.00000000      1.00000000      1.00000000      1.00000000      1.00000000      1.00000000      1.00000000      1.00000000      1.00000000      1.00000000      1.00000000      1.00000000
      1.00000000      1.00000000      1.00000000      1.00000000      1.00000000      1.00000000      1.00000000      1.00000000      1.00000000      1.00000000      1.00000000      1.00000000      1.00000000      1.00000000      1.00000000      1.00000000      1.00000000      1.00000000      1.00000000      1.00000000
      1.00000000      1.00000000      1.00000000      1.00000000</v>
    <i name="NUPDOWN">     -1.00000000</i>
    <i type="logical" name="LSORBIT"> F  </i>
    <v name="SAXIS">      0.00000000      0.00000000      1.00000000</v>
    <i type="logical" name="LSPIRAL"> F  </i>
    <v name="QSPIRAL">      0.00000000      0.00000000      0.00000000</v>
    <i type="logical" name="LZEROZ"> F  </i>
   </separator>
   <separator name="electronic exchange-correlation" >
    <i type="logical" name="LASPH"> F  </i>
    <i type="logical" name="LMETAGGA"> F  </i>
   </separator>
   <separator name="electronic convergence" >
    <i type="int" name="NELM">    60</i>
    <i type="int" name="NELMDL">    -5</i>
    <i type="int" name="NELMIN">     2</i>
    <i name="ENINI">    400.00000000</i>
    <separator name="electronic convergence detail" >
     <i type="logical" name="LDIAG"> T  </i>
     <i type="logical" name="LSUBROT"> F  </i>
     <i name="WEIMIN">      0.00100000</i>
     <i name="EBREAK">      0.00000000</i>
     <i name="DEPER">      0.30000000</i>
     <i type="int" name="NRMM">     4</i>
     <i name="TIME">      0.40000000</i>
    </separator>
   </separator>
   <separator name="electronic mixer" >
    <i name="AMIX">      0.40000000</i>
    <i name="BMIX">      1.00000000</i>
    <i name="AMIN">      0.10000000</i>
    <i name="AMIX_MAG">      1.60000000</i>
    <i name="BMIX_MAG">      1.00000000</i>
    <separator name="electronic mixer details" >
     <i type="int" name="IMIX">     4</i>
     <i type="logical" name="MIXFIRST"> F  </i>
     <i type="int" name="MAXMIX">   -45</i>
     <i name="WC">    100.00000000</i>
     <i type="int" name="INIMIX">     1</i>
     <i type="int" name="MIXPRE">     1</i>
     <i type="int" name="MREMOVE">     5</i>
    </separator>
   </separator>
   <separator name="electronic dipolcorrection" >
    <i type="logical" name="LDIPOL"> F  </i>
    <i type="logical" name="LMONO"> F  </i>
    <i type="int" name="IDIPOL">     0</i>
    <i name="EPSILON">      1.00000000</i>
    <v name="DIPOL">   -100.00000000   -100.00000000   -100.00000000</v>
    <i name="EFIELD">      0.00000000</i>
   </separator>
  </separator>
  <separator name="grids" >
   <i type="int" name="NGX">    48</i>
   <i type="int" name="NGY">    48</i>
   <i type="int" name="NGZ">    48</i>
   <i type="int" name="NGXF">    96</i>
   <i type="int" name="NGYF">    96</i>
   <i type="int" name="NGZF">    96</i>
   <i type="logical" name="ADDGRID"> T  </i>
  </separator>
  <separator name="ionic" >
   <i type="int" name="NSW">     1</i>
   <i type="int" name="IBRION">     8</i>
   <i type="int" name="MDALGO">     0</i>
   <i type="int" name="ISIF">     2</i>
   <i name="PSTRESS">      0.00000000</i>
   <i name="EDIFFG">      0.00000010</i>
   <i type="int" name="NFREE">     0</i>
   <i name="POTIM">      0.50000000</i>
   <i name="SMASS">     -3.00000000</i>
   <i name="SCALEE">      1.00000000</i>
  </separator>
  <separator name="ionic md" >
   <i name="TEBEG">      0.00010000</i>
   <i name="TEEND">      0.00010000</i>
   <i type="int" name="NBLOCK">     1</i>
   <i type="int" name="KBLOCK">     1</i>
   <i type="int" name="NPACO">   256</i>
   <i name="APACO">     16.00000000</i>
  </separator>
  <separator name="symmetry" >
   <i type="int" name="ISYM">     2</i>
   <i name="SYMPREC">      0.00001000</i>
  </separator>
  <separator name="dos" >
   <i type="int" name="LORBIT">     0</i>
   <v name="RWIGS">     -1.00000000</v>
   <i type="int" name="NEDOS">   301</i>
   <i name="EMIN">     10.00000000</i>
   <i name="EMAX">    -10.00000000</i>
   <i name="EFERMI">      0.00000000</i>
  </separator>
  <separator name="writing" >
   <i type="int" name="NWRITE">     2</i>
   <i type="logical" name="LWAVE"> F  </i>
   <i type="logical" name="LDOWNSAMPLE"> F  </i>
   <i type="logical" name="LCHARG"> F  </i>
   <i type="logical" name="LPARD"> F  </i>
   <i type="logical" name="LVTOT"> F  </i>
   <i type="logical" name="LVHAR"> F  </i>
   <i type="logical" name="LELF"> F  </i>
   <i type="logical" name="LOPTICS"> F  </i>
   <v name="STM">      0.00000000      0.00000000      0.00000000      0.00000000      0.00000000      0.00000000      0.00000000</v>
  </separator>
  <separator name="performance" >
   <i type="int" name="NPAR">    32</i>
   <i type="int" name="NSIM">     4</i>
   <i type="int" name="NBLK">    -1</i>
   <i type="logical" name="LPLANE"> T  </i>
   <i type="logical" name="LSCALAPACK"> T  </i>
   <i type="logical" name="LSCAAWARE"> F  </i>
   <i type="logical" name="LSCALU"> F  </i>
   <i type="logical" name="LASYNC"> F  </i>
   <i type="logical" name="LORBITALREAL"> F  </i>
  </separator>
  <separator name="miscellaneous" >
   <i type="int" name="IDIOT">     3</i>
   <i type="int" name="ISPECIAL">     0</i>
   <i type="logical" name="LMUSIC"> F  </i>
   <v name="POMASS">     12.01100000</v>
   <v name="DARWINR">      0.00000000</v>
   <v name="DARWINV">      1.00000000</v>
   <i type="logical" name="LCORR"> T  </i>
  </separator>
  <i type="logical" name="GGA_COMPAT"> T  </i>
  <i type="logical" name="LBERRY"> F  </i>
  <i type="int" name="ICORELEVEL">     0</i>
  <i type="logical" name="LDAU"> F  </i>
  <i type="int" name="I_CONSTRAINED_M">     0</i>
  <separator name="electronic exchange-correlation" >
   <i type="string" name="GGA">--</i>
   <i type="int" name="VOSKOWN">     0</i>
   <i type="logical" name="LHFCALC"> F  </i>
   <i type="string" name="PRECFOCK"></i>
   <i type="logical" name="LSYMGRAD"> F  </i>
   <i type="logical" name="LHFONE"> F  </i>
   <i type="logical" name="LRHFCALC"> F  </i>
   <i type="logical" name="LTHOMAS"> F  </i>
   <i type="logical" name="LMODELHF"> F  </i>
   <i name="ENCUT4O">     -1.00000000</i>
   <i type="int" name="EXXOEP">     0</i>
   <i type="int" name="FOURORBIT">     0</i>
   <i name="AEXX">      0.00000000</i>
   <i name="HFALPHA">      0.00000000</i>
   <i name="MCALPHA">      0.00000000</i>
   <i name="ALDAX">      1.00000000</i>
   <i name="AGGAX">      1.00000000</i>
   <i name="ALDAC">      1.00000000</i>
   <i name="AGGAC">      1.00000000</i>
   <i type="int" name="NKREDX">     1</i>
   <i type="int" name="NKREDY">     1</i>
   <i type="int" name="NKREDZ">     1</i>
   <i type="logical" name="SHIFTRED"> F  </i>
   <i type="logical" name="ODDONLY"> F  </i>
   <i type="logical" name="EVENONLY"> F  </i>
   <i type="int" name="LMAXFOCK">     0</i>
   <i type="int" name="NMAXFOCKAE">     0</i>
   <i type="logical" name="LFOCKAEDFT"> F  </i>
   <i name="HFSCREEN">      0.00000000</i>
   <i name="HFSCREENC">      0.00000000</i>
   <i type="int" name="NBANDSGWLOW">     0</i>
  </separator>
  <separator name="vdW DFT" >
   <i type="logical" name="LUSE_VDW"> F  </i>
   <i name="Zab_VDW">     -0.84910000</i>
   <i name="PARAM1">      0.12340000</i>
   <i name="PARAM2">      1.00000000</i>
   <i name="PARAM3">      0.00000000</i>
  </separator>
  <separator name="model GW" >
   <i type="int" name="MODEL_GW">     0</i>
   <i name="MODEL_EPS0">      3.78706973</i>
   <i name="MODEL_ALPHA">      1.00000000</i>
  </separator>
  <separator name="linear response parameters" >
   <i type="logical" name="LEPSILON"> F  </i>
   <i type="logical" name="LRPA"> F  </i>
   <i type="logical" name="LNABLA"> F  </i>
   <i type="logical" name="LVEL"> F  </i>
   <i type="int" name="KINTER">     0</i>
   <i name="CSHIFT">      0.10000000</i>
   <i name="OMEGAMAX">     -1.00000000</i>
   <i name="DEG_THRESHOLD">      0.00200000</i>
   <i name="RTIME">     -0.10000000</i>
   <i name="WPLASMAI">      0.00000000</i>
   <v name="DFIELD">      0.00000000      0.00000000      0.00000000</v>
   <v name="WPLASMA">      0.00000000      0.00000000      0.00000000      0.00000000      0.00000000      0.00000000      0.00000000      0.00000000      0.00000000</v>
  </separator>
  <separator name="orbital magnetization" >
   <i type="logical" name="NUCIND"> F  </i>
   <v name="MAGPOS">      0.00000000      0.00000000      0.00000000</v>
   <i type="logical" name="LNICSALL"> T  </i>
   <i type="logical" name="ORBITALMAG"> F  </i>
   <i type="logical" name="LMAGBLOCH"> F  </i>
   <i type="logical" name="LCHIMAG"> F  </i>
   <i type="logical" name="LGAUGE"> T  </i>
   <i type="int" name="MAGATOM">     0</i>
   <v name="MAGDIPOL">      0.00000000      0.00000000      0.00000000</v>
   <v name="AVECCONST">      0.00000000      0.00000000      0.00000000</v>
  </separator>
  <separator name="response functions" >
   <i type="logical" name="LADDER"> F  </i>
   <i type="logical" name="LRPAFORCE"> F  </i>
   <i type="logical" name="LFXC"> F  </i>
   <i type="logical" name="LHARTREE"> T  </i>
   <i type="int" name="IBSE">     0</i>
   <v type="int" name="KPOINT">    -1     0     0     0</v>
   <i type="logical" name="LTCTE"> F  </i>
   <i type="logical" name="LTETE"> F  </i>
   <i type="logical" name="LTRIPLET"> F  </i>
   <i type="logical" name="LFXCEPS"> F  </i>
   <i type="logical" name="LFXHEG"> F  </i>
   <i type="int" name="NATURALO">     2</i>
   <i type="logical" name="L2ORDER"> F  </i>
   <i type="logical" name="LMP2LT"> F  </i>
   <i type="logical" name="LUSEW"> F  </i>
   <i name="ENCUTGW">     -2.00000000</i>
   <i name="ENCUTGWSOFT">     -2.00000000</i>
   <i name="ENCUTLF">     -1.00000000</i>
   <i type="int" name="LMAXMP2">    -1</i>
   <i name="SCISSOR">      0.00000000</i>
   <i type="int" name="NOMEGA">     0</i>
   <i type="int" name="NOMEGAR">     0</i>
   <i type="int" name="NBANDSGW">    -1</i>
   <i type="int" name="NBANDSO">    -1</i>
   <i type="int" name="NBANDSV">    -1</i>
   <i type="int" name="NELM">     1</i>
   <i type="int" name="NELMHF">     1</i>
   <i type="int" name="DIM">     3</i>
   <i type="int" name="ANTIRES">     0</i>
   <i name="OMEGAMAX">    -30.00000000</i>
   <i name="OMEGAMIN">    -30.00000000</i>
   <i name="OMEGATL">   -200.00000000</i>
   <i type="int" name="OMEGAGRID">   140</i>
   <i name="CSHIFT">     -0.10000000</i>
   <i type="logical" name="SELFENERGY"> F  </i>
   <i type="logical" name="LSPECTRAL"> F  </i>
   <i type="logical" name="LSPECTRALGW"> F  </i>
   <i type="logical" name="LSINGLES"> F  </i>
   <i type="logical" name="LFERMIGW"> F  </i>
   <i type="logical" name="ODDONLYGW"> F  </i>
   <i type="logical" name="EVENONLYGW"> F  </i>
   <i type="int" name="NKREDLFX">     1</i>
   <i type="int" name="NKREDLFY">     1</i>
   <i type="int" name="NKREDLFZ">     1</i>
   <i type="int" name="MAXMEM">  2800</i>
   <i type="int" name="TELESCOPE">     0</i>
   <i type="int" name="TAUPAR">     1</i>
   <i type="int" name="OMEGAPAR">    -1</i>
   <i name="LAMBDA">      1.00000000</i>
  </separator>
  <separator name="External order field" >
   <i name="OFIELD_KAPPA">      0.00000000</i>
   <v name="OFIELD_K">      0.00000000      0.00000000      0.00000000</v>
   <i name="OFIELD_Q6_NEAR">      0.00000000</i>
   <i name="OFIELD_Q6_FAR">      0.00000000</i>
   <i name="OFIELD_A">      0.00000000</i>
  </separator>
 </parameters>
 <atominfo>
  <atoms>      64 </atoms>
  <types>       1 </types>
  <array name="atoms" >
   <dimension dim="1">ion</dimension>
   <field type="string">element</field>
   <field type="int">atomtype</field>
   <set>
    <rc><c>C </c><c>   1</c></rc>
    <rc><c>C </c><c>   1</c></rc>
    <rc><c>C </c><c>   1</c></rc>
    <rc><c>C </c><c>   1</c></rc>
    <rc><c>C </c><c>   1</c></rc>
    <rc><c>C </c><c>   1</c></rc>
    <rc><c>C </c><c>   1</c></rc>
    <rc><c>C </c><c>   1</c></rc>
    <rc><c>C </c><c>   1</c></rc>
    <rc><c>C </c><c>   1</c></rc>
    <rc><c>C </c><c>   1</c></rc>
    <rc><c>C </c><c>   1</c></rc>
    <rc><c>C </c><c>   1</c></rc>
    <rc><c>C </c><c>   1</c></rc>
    <rc><c>C </c><c>   1</c></rc>
    <rc><c>C </c><c>   1</c></rc>
    <rc><c>C </c><c>   1</c></rc>
    <rc><c>C </c><c>   1</c></rc>
    <rc><c>C </c><c>   1</c></rc>
    <rc><c>C </c><c>   1</c></rc>
    <rc><c>C </c><c>   1</c></rc>
    <rc><c>C </c><c>   1</c></rc>
    <rc><c>C </c><c>   1</c></rc>
    <rc><c>C </c><c>   1</c></rc>
    <rc><c>C </c><c>   1</c></rc>
    <rc><c>C </c><c>   1</c></rc>
    <rc><c>C </c><c>   1</c></rc>
    <rc><c>C </c><c>   1</c></rc>
    <rc><c>C </c><c>   1</c></rc>
    <rc><c>C </c><c>   1</c></rc>
    <rc><c>C </c><c>   1</c></rc>
    <rc><c>C </c><c>   1</c></rc>
    <rc><c>C </c><c>   1</c></rc>
    <rc><c>C </c><c>   1</c></rc>
    <rc><c>C </c><c>   1</c></rc>
    <rc><c>C </c><c>   1</c></rc>
    <rc><c>C </c><c>   1</c></rc>
    <rc><c>C </c><c>   1</c></rc>
    <rc><c>C </c><c>   1</c></rc>
    <rc><c>C </c><c>   1</c></rc>
    <rc><c>C </c><c>   1</c></rc>
    <rc><c>C </c><c>   1</c></rc>
    <rc><c>C </c><c>   1</c></rc>
    <rc><c>C </c><c>   1</c></rc>
    <rc><c>C </c><c>   1</c></rc>
    <rc><c>C </c><c>   1</c></rc>
    <rc><c>C </c><c>   1</c></rc>
    <rc><c>C </c><c>   1</c></rc>
    <rc><c>C </c><c>   1</c></rc>
    <rc><c>C </c><c>   1</c></rc>
    <rc><c>C </c><c>   1</c></rc>
    <rc><c>C </c><c>   1</c></rc>
    <rc><c>C </c><c>   1</c></rc>
    <rc><c>C </c><c>   1</c></rc>
    <rc><c>C </c><c>   1</c></rc>
    <rc><c>C </c><c>   1</c></rc>
    <rc><c>C </c><c>   1</c></rc>
    <rc><c>C </c><c>   1</c></rc>
    <rc><c>C </c><c>   1</c></rc>
    <rc><c>C </c><c>   1</c></rc>
    <rc><c>C </c><c>   1</c></rc>
    <rc><c>C </c><c>   1</c></rc>
    <rc><c>C </c><c>   1</c></rc>
    <rc><c>C </c><c>   1</c></rc>
   </set>
  </array>
  <array name="atomtypes" >
   <dimension dim="1">type</dimension>
   <field type="int">atomspertype</field>
   <field type="string">element</field>
   <field>mass</field>
   <field>valence</field>
   <field type="string">pseudopotential</field>
   <set>
    <rc><c>  64</c><c>C </c><c>     12.01100000</c><c>      4.00000000</c><c> PAW_PBE C 08Apr2002                    </c></rc>
   </set>
  </array>
 </atominfo>
 <structure name="initialpos" >
  <crystal>
   <varray name="basis" >
    <v>       7.39226185       0.00000000       0.00000000 </v>
    <v>       0.00000000       7.39226185       0.00000000 </v>
    <v>       0.00000000       0.00000000       7.39226185 </v>
   </varray>
   <i name="volume">    403.95410496 </i>
   <varray name="rec_basis" >
    <v>       0.13527659       0.00000000       0.00000000 </v>
    <v>       0.00000000       0.13527659       0.00000000 </v>
    <v>       0.00000000       0.00000000       0.13527659 </v>
   </varray>
  </crystal>
  <varray name="positions" >
   <v>       0.12500000       0.37500000       0.12500000 </v>
   <v>       0.62500000       0.37500000       0.12500000 </v>
   <v>       0.12500000       0.87500000       0.12500000 </v>
   <v>       0.62500000       0.87500000       0.12500000 </v>
   <v>       0.12500000       0.37500000       0.62500000 </v>
   <v>       0.62500000       0.37500000       0.62500000 </v>
   <v>       0.12500000       0.87500000       0.62500000 </v>
   <v>       0.62500000       0.87500000       0.62500000 </v>
   <v>       0.00000000       0.00000000       0.25000000 </v>
   <v>       0.50000000       0.00000000       0.25000000 </v>
   <v>       0.00000000       0.50000000       0.25000000 </v>
   <v>       0.50000000       0.50000000       0.25000000 </v>
   <v>       0.00000000       0.00000000       0.75000000 </v>
   <v>       0.50000000       0.00000000       0.75000000 </v>
   <v>       0.00000000       0.50000000       0.75000000 </v>
   <v>       0.50000000       0.50000000       0.75000000 </v>
   <v>       0.12500000       0.12500000       0.37500000 </v>
   <v>       0.62500000       0.12500000       0.37500000 </v>
   <v>       0.12500000       0.62500000       0.37500000 </v>
   <v>       0.62500000       0.62500000       0.37500000 </v>
   <v>       0.12500000       0.12500000       0.87500000 </v>
   <v>       0.62500000       0.12500000       0.87500000 </v>
   <v>       0.12500000       0.62500000       0.87500000 </v>
   <v>       0.62500000       0.62500000       0.87500000 </v>
   <v>       0.00000000       0.25000000       0.00000000 </v>
   <v>       0.50000000       0.25000000       0.00000000 </v>
   <v>       0.00000000       0.75000000       0.00000000 </v>
   <v>       0.50000000       0.75000000       0.00000000 </v>
   <v>       0.00000000       0.25000000       0.50000000 </v>
   <v>       0.50000000       0.25000000       0.50000000 </v>
   <v>       0.00000000       0.75000000       0.50000000 </v>
   <v>       0.50000000       0.75000000       0.50000000 </v>
   <v>       0.37500000       0.37500000       0.37500000 </v>
   <v>       0.87500000       0.37500000       0.37500000 </v>
   <v>       0.37500000       0.87500000       0.37500000 </v>
   <v>       0.87500000       0.87500000       0.37500000 </v>
   <v>       0.37500000       0.37500000       0.87500000 </v>
   <v>       0.87500000       0.37500000       0.87500000 </v>
   <v>       0.37500000       0.87500000       0.87500000 </v>
   <v>       0.87500000       0.87500000       0.87500000 </v>
   <v>       0.25000000       0.00000000       0.00000000 </v>
   <v>       0.75000000       0.00000000       0.00000000 </v>
   <v>       0.25000000       0.50000000       0.00000000 </v>
   <v>       0.75000000       0.50000000       0.00000000 </v>
   <v>       0.25000000       0.00000000       0.50000000 </v>
   <v>       0.75000000       0.00000000       0.50000000 </v>
   <v>       0.25000000       0.50000000       0.50000000 </v>
   <v>       0.75000000       0.50000000       0.50000000 </v>
   <v>       0.37500000       0.12500000       0.12500000 </v>
   <v>       0.87500000       0.12500000       0.12500000 </v>
   <v>       0.37500000       0.62500000       0.12500000 </v>
   <v>       0.87500000       0.62500000       0.12500000 </v>
   <v>       0.37500000       0.12500000       0.62500000 </v>
   <v>       0.87500000       0.12500000       0.62500000 </v>
   <v>       0.37500000       0.62500000       0.62500000 </v>
   <v>       0.87500000       0.62500000       0.62500000 </v>
   <v>       0.25000000       0.25000000       0.25000000 </v>
   <v>       0.75000000       0.25000000       0.25000000 </v>
   <v>       0.25000000       0.75000000       0.25000000 </v>
   <v>       0.75000000       0.75000000       0.25000000 </v>
   <v>       0.25000000       0.25000000       0.75000000 </v>
   <v>       0.75000000       0.25000000       0.75000000 </v>
   <v>       0.25000000       0.75000000       0.75000000 </v>
   <v>       0.75000000       0.75000000       0.75000000 </v>
  </varray>
 </structure>
 <calculation>
  <scstep>
   <time name="dav">   14.38   14.39</time>
   <time name="total">   14.52   14.59</time>
   <energy>
    <i name="alphaZ">    826.18977662 </i>
    <i name="ewald"> -10745.07518925 </i>
    <i name="hartreedc">   -641.31490946 </i>
    <i name="XCdc">    894.09307441 </i>
    <i name="pawpsdc">   2421.21235816 </i>
    <i name="pawaedc">  -2494.84305711 </i>
    <i name="eentropy">     -0.00817773 </i>
    <i name="bandstr">    817.25557921 </i>
    <i name="atom">   9416.14232778 </i>
    <i name="e_fr_energy">    493.65178263 </i>
    <i name="e_wo_entrp">    493.65996035 </i>
    <i name="e_0_energy">    493.65587149 </i>
   </energy>
  </scstep>
  <scstep>
   <time name="dav">   17.20   17.20</time>
   <time name="total">   17.20   17.21</time>
   <energy>
    <i name="e_fr_energy">   -548.27122581 </i>
    <i name="e_wo_entrp">   -548.27122581 </i>
    <i name="e_0_energy">   -548.27122581 </i>
   </energy>
  </scstep>
  <scstep>
   <time name="dav">   20.84   20.85</time>
   <time name="total">   20.85   20.85</time>
   <energy>
    <i name="e_fr_energy">   -590.90318915 </i>
    <i name="e_wo_entrp">   -590.90318915 </i>
    <i name="e_0_energy">   -590.90318915 </i>
   </energy>
  </scstep>
  <scstep>
   <time name="dav">   18.85   18.86</time>
   <time name="total">   18.86   18.86</time>
   <energy>
    <i name="e_fr_energy">   -591.44179954 </i>
    <i name="e_wo_entrp">   -591.44179954 </i>
    <i name="e_0_energy">   -591.44179954 </i>
   </energy>
  </scstep>
  <scstep>
   <time name="dav">   16.10   16.11</time>
   <time name="total">   16.62   16.62</time>
   <energy>
    <i name="e_fr_energy">   -591.45083058 </i>
    <i name="e_wo_entrp">   -591.45083058 </i>
    <i name="e_0_energy">   -591.45083058 </i>
   </energy>
  </scstep>
  <scstep>
   <time name="dav">   15.75   15.75</time>
   <time name="total">   16.40   16.40</time>
   <energy>
    <i name="e_fr_energy">   -580.76603525 </i>
    <i name="e_wo_entrp">   -580.76603525 </i>
    <i name="e_0_energy">   -580.76603525 </i>
   </energy>
  </scstep>
  <scstep>
   <time name="dav">   15.80   15.80</time>
   <time name="total">   16.41   16.41</time>
   <energy>
    <i name="e_fr_energy">   -577.14713506 </i>
    <i name="e_wo_entrp">   -577.14713506 </i>
    <i name="e_0_energy">   -577.14713506 </i>
   </energy>
  </scstep>
  <scstep>
   <time name="dav">   17.54   17.54</time>
   <time name="total">   18.17   18.17</time>
   <energy>
    <i name="e_fr_energy">   -577.19621856 </i>
    <i name="e_wo_entrp">   -577.19621856 </i>
    <i name="e_0_energy">   -577.19621856 </i>
   </energy>
  </scstep>
  <scstep>
   <time name="dav">   16.91   16.91</time>
   <time name="total">   17.54   17.54</time>
   <energy>
    <i name="e_fr_energy">   -577.19838819 </i>
    <i name="e_wo_entrp">   -577.19838819 </i>
    <i name="e_0_energy">   -577.19838819 </i>
   </energy>
  </scstep>
  <scstep>
   <time name="dav">   17.26   17.27</time>
   <time name="total">   17.88   17.88</time>
   <energy>
    <i name="e_fr_energy">   -577.19885363 </i>
    <i name="e_wo_entrp">   -577.19885363 </i>
    <i name="e_0_energy">   -577.19885363 </i>
   </energy>
  </scstep>
  <scstep>
   <time name="dav">   19.17   19.17</time>
   <time name="total">   19.78   19.79</time>
   <energy>
    <i name="e_fr_energy">   -577.19885578 </i>
    <i name="e_wo_entrp">   -577.19885578 </i>
    <i name="e_0_energy">   -577.19885578 </i>
   </energy>
  </scstep>
  <scstep>
   <time name="dav">   16.74   16.74</time>
   <time name="total">   17.35   17.35</time>
   <energy>
    <i name="e_fr_energy">   -577.19885628 </i>
    <i name="e_wo_entrp">   -577.19885628 </i>
    <i name="e_0_energy">   -577.19885628 </i>
   </energy>
  </scstep>
  <scstep>
   <time name="dav">   14.08   14.08</time>
   <time name="total">   14.69   14.70</time>
   <energy>
    <i name="e_fr_energy">   -577.19885639 </i>
    <i name="e_wo_entrp">   -577.19885639 </i>
    <i name="e_0_energy">   -577.19885639 </i>
   </energy>
  </scstep>
  <scstep>
   <time name="dav">   13.79   13.79</time>
   <time name="total">   13.89   13.89</time>
   <energy>
    <i name="alphaZ">    826.18977662 </i>
    <i name="ewald"> -10745.07518925 </i>
    <i name="hartreedc">   -893.44826761 </i>
    <i name="XCdc">    917.65588693 </i>
    <i name="pawpsdc">   3808.52872358 </i>
    <i name="pawaedc">  -3887.47313330 </i>
    <i name="eentropy">     -0.00000000 </i>
    <i name="bandstr">    -19.71898115 </i>
    <i name="atom">   9416.14232778 </i>
    <i name="e_fr_energy">   -577.19885639 </i>
    <i name="e_wo_entrp">   -577.19885639 </i>
    <i name="e_0_energy">   -577.19885639 </i>
   </energy>
  </scstep>
  <structure>
   <crystal>
    <varray name="basis" >
     <v>       7.39226185       0.00000000       0.00000000 </v>
     <v>       0.00000000       7.39226185       0.00000000 </v>
     <v>       0.00000000       0.00000000       7.39226185 </v>
    </varray>
    <i name="volume">    403.95410496 </i>
    <varray name="rec_basis" >
     <v>       0.13527659       0.00000000       0.00000000 </v>
     <v>       0.00000000       0.13527659       0.00000000 </v>
     <v>       0.00000000       0.00000000       0.13527659 </v>
    </varray>
   </crystal>
   <varray name="positions" >
    <v>       0.12500000       0.37500000       0.12500000 </v>
    <v>       0.62500000       0.37500000       0.12500000 </v>
    <v>       0.12500000       0.87500000       0.12500000 </v>
    <v>       0.62500000       0.87500000       0.12500000 </v>
    <v>       0.12500000       0.37500000       0.62500000 </v>
    <v>       0.62500000       0.37500000       0.62500000 </v>
    <v>       0.12500000       0.87500000       0.62500000 </v>
    <v>       0.62500000       0.87500000       0.62500000 </v>
    <v>       0.00000000       0.00000000       0.25000000 </v>
    <v>       0.50000000       0.00000000       0.25000000 </v>
    <v>       0.00000000       0.50000000       0.25000000 </v>
    <v>       0.50000000       0.50000000       0.25000000 </v>
    <v>       0.00000000       0.00000000       0.75000000 </v>
    <v>       0.50000000       0.00000000       0.75000000 </v>
    <v>       0.00000000       0.50000000       0.75000000 </v>
    <v>       0.50000000       0.50000000       0.75000000 </v>
    <v>       0.12500000       0.12500000       0.37500000 </v>
    <v>       0.62500000       0.12500000       0.37500000 </v>
    <v>       0.12500000       0.62500000       0.37500000 </v>
    <v>       0.62500000       0.62500000       0.37500000 </v>
    <v>       0.12500000       0.12500000       0.87500000 </v>
    <v>       0.62500000       0.12500000       0.87500000 </v>
    <v>       0.12500000       0.62500000       0.87500000 </v>
    <v>       0.62500000       0.62500000       0.87500000 </v>
    <v>       0.00000000       0.25000000       0.00000000 </v>
    <v>       0.50000000       0.25000000       0.00000000 </v>
    <v>       0.00000000       0.75000000       0.00000000 </v>
    <v>       0.50000000       0.75000000       0.00000000 </v>
    <v>       0.00000000       0.25000000       0.50000000 </v>
    <v>       0.50000000       0.25000000       0.50000000 </v>
    <v>       0.00000000       0.75000000       0.50000000 </v>
    <v>       0.50000000       0.75000000       0.50000000 </v>
    <v>       0.37500000       0.37500000       0.37500000 </v>
    <v>       0.87500000       0.37500000       0.37500000 </v>
    <v>       0.37500000       0.87500000       0.37500000 </v>
    <v>       0.87500000       0.87500000       0.37500000 </v>
    <v>       0.37500000       0.37500000       0.87500000 </v>
    <v>       0.87500000       0.37500000       0.87500000 </v>
    <v>       0.37500000       0.87500000       0.87500000 </v>
    <v>       0.87500000       0.87500000       0.87500000 </v>
    <v>       0.25000000       0.00000000       0.00000000 </v>
    <v>       0.75000000       0.00000000       0.00000000 </v>
    <v>       0.25000000       0.50000000       0.00000000 </v>
    <v>       0.75000000       0.50000000       0.00000000 </v>
    <v>       0.25000000       0.00000000       0.50000000 </v>
    <v>       0.75000000       0.00000000       0.50000000 </v>
    <v>       0.25000000       0.50000000       0.50000000 </v>
    <v>       0.75000000       0.50000000       0.50000000 </v>
    <v>       0.37500000       0.12500000       0.12500000 </v>
    <v>       0.87500000       0.12500000       0.12500000 </v>
    <v>       0.37500000       0.62500000       0.12500000 </v>
    <v>       0.87500000       0.62500000       0.12500000 </v>
    <v>       0.37500000       0.12500000       0.62500000 </v>
    <v>       0.87500000       0.12500000       0.62500000 </v>
    <v>       0.37500000       0.62500000       0.62500000 </v>
    <v>       0.87500000       0.62500000       0.62500000 </v>
    <v>       0.25000000       0.25000000       0.25000000 </v>
    <v>       0.75000000       0.25000000       0.25000000 </v>
    <v>       0.25000000       0.75000000       0.25000000 </v>
    <v>       0.75000000       0.75000000       0.25000000 </v>
    <v>       0.25000000       0.25000000       0.75000000 </v>
    <v>       0.75000000       0.25000000       0.75000000 </v>
    <v>       0.25000000       0.75000000       0.75000000 </v>
    <v>       0.75000000       0.75000000       0.75000000 </v>
   </varray>
  </structure>
  <varray name="forces" >
   <v>      -0.00000000       0.00000000       0.00000000 </v>
   <v>      -0.00000000      -0.00000000       0.00000000 </v>
   <v>      -0.00000000      -0.00000000       0.00000000 </v>
   <v>       0.00000000       0.00000000       0.00000000 </v>
   <v>       0.00000000       0.00000000       0.00000000 </v>
   <v>       0.00000000       0.00000000      -0.00000000 </v>
   <v>       0.00000000       0.00000000      -0.00000000 </v>
   <v>       0.00000000      -0.00000000       0.00000000 </v>
   <v>      -0.00000000      -0.00000000      -0.00000000 </v>
   <v>      -0.00000000       0.00000000       0.00000000 </v>
   <v>      -0.00000000      -0.00000000       0.00000000 </v>
   <v>      -0.00000000       0.00000000      -0.00000000 </v>
   <v>       0.00000000      -0.00000000      -0.00000000 </v>
   <v>      -0.00000000      -0.00000000      -0.00000000 </v>
   <v>      -0.00000000      -0.00000000      -0.00000000 </v>
   <v>       0.00000000      -0.00000000      -0.00000000 </v>
   <v>       0.00000000      -0.00000000       0.00000000 </v>
   <v>       0.00000000       0.00000000       0.00000000 </v>
   <v>       0.00000000       0.00000000       0.00000000 </v>
   <v>       0.00000000      -0.00000000       0.00000000 </v>
   <v>       0.00000000       0.00000000       0.00000000 </v>
   <v>       0.00000000       0.00000000       0.00000000 </v>
   <v>       0.00000000       0.00000000       0.00000000 </v>
   <v>      -0.00000000       0.00000000       0.00000000 </v>
   <v>      -0.00000000      -0.00000000       0.00000000 </v>
   <v>      -0.00000000       0.00000000      -0.00000000 </v>
   <v>       0.00000000      -0.00000000      -0.00000000 </v>
   <v>      -0.00000000      -0.00000000      -0.00000000 </v>
   <v>      -0.00000000       0.00000000      -0.00000000 </v>
   <v>      -0.00000000      -0.00000000      -0.00000000 </v>
   <v>      -0.00000000      -0.00000000      -0.00000000 </v>
   <v>      -0.00000000      -0.00000000      -0.00000000 </v>
   <v>       0.00000000      -0.00000000       0.00000000 </v>
   <v>       0.00000000      -0.00000000       0.00000000 </v>
   <v>       0.00000000      -0.00000000      -0.00000000 </v>
   <v>       0.00000000       0.00000000       0.00000000 </v>
   <v>       0.00000000       0.00000000       0.00000000 </v>
   <v>       0.00000000       0.00000000       0.00000000 </v>
   <v>       0.00000000       0.00000000       0.00000000 </v>
   <v>       0.00000000       0.00000000       0.00000000 </v>
   <v>      -0.00000000      -0.00000000      -0.00000000 </v>
   <v>      -0.00000000      -0.00000000       0.00000000 </v>
   <v>       0.00000000       0.00000000      -0.00000000 </v>
   <v>      -0.00000000      -0.00000000      -0.00000000 </v>
   <v>      -0.00000000      -0.00000000       0.00000000 </v>
   <v>      -0.00000000       0.00000000      -0.00000000 </v>
   <v>      -0.00000000       0.00000000      -0.00000000 </v>
   <v>      -0.00000000      -0.00000000      -0.00000000 </v>
   <v>      -0.00000000      -0.00000000       0.00000000 </v>
   <v>       0.00000000       0.00000000       0.00000000 </v>
   <v>      -0.00000000       0.00000000       0.00000000 </v>
   <v>       0.00000000      -0.00000000       0.00000000 </v>
   <v>       0.00000000       0.00000000       0.00000000 </v>
   <v>       0.00000000      -0.00000000       0.00000000 </v>
   <v>       0.00000000      -0.00000000       0.00000000 </v>
   <v>       0.00000000       0.00000000      -0.00000000 </v>
   <v>      -0.00000000      -0.00000000      -0.00000000 </v>
   <v>      -0.00000000      -0.00000000       0.00000000 </v>
   <v>      -0.00000000      -0.00000000       0.00000000 </v>
   <v>      -0.00000000      -0.00000000      -0.00000000 </v>
   <v>       0.00000000      -0.00000000      -0.00000000 </v>
   <v>      -0.00000000       0.00000000      -0.00000000 </v>
   <v>       0.00000000       0.00000000      -0.00000000 </v>
   <v>      -0.00000000      -0.00000000      -0.00000000 </v>
  </varray>
  <varray name="stress" >
   <v>    -403.99494357       0.00000000      -0.00000000 </v>
   <v>      -0.00000000    -403.99494357      -0.00000000 </v>
   <v>       0.00000000       0.00000000    -403.99494357 </v>
  </varray>
  <energy>
   <i name="e_fr_energy">   -577.19885639 </i>
   <i name="e_wo_entrp">   -577.19885639 </i>
   <i name="e_0_energy">     -0.00000000 </i>
  </energy>
  <kpoints>
   <generation param="Gamma">
    <v type="int" name="divisions">       6        6        6 </v>
    <v name="usershift">      0.00000000       0.00000000       0.00000000 </v>
    <v name="genvec1">      0.16666667       0.00000000       0.00000000 </v>
    <v name="genvec2">      0.00000000       0.16666667       0.00000000 </v>
    <v name="genvec3">      0.00000000       0.00000000       0.16666667 </v>
    <v name="shift">      0.00000000       0.00000000       0.00000000 </v>
   </generation>
   <varray name="kpointlist" >
    <v>       0.00000000       0.00000000       0.00000000 </v>
    <v>       0.16666667       0.00000000       0.00000000 </v>
    <v>       0.33333333       0.00000000       0.00000000 </v>
    <v>       0.50000000       0.00000000       0.00000000 </v>
    <v>       0.00000000       0.16666667       0.00000000 </v>
    <v>       0.16666667       0.16666667       0.00000000 </v>
    <v>       0.33333333       0.16666667       0.00000000 </v>
    <v>       0.50000000       0.16666667       0.00000000 </v>
    <v>       0.00000000       0.33333333       0.00000000 </v>
    <v>       0.16666667       0.33333333       0.00000000 </v>
    <v>       0.33333333       0.33333333       0.00000000 </v>
    <v>       0.50000000       0.33333333       0.00000000 </v>
    <v>       0.00000000       0.50000000       0.00000000 </v>
    <v>       0.16666667       0.50000000       0.00000000 </v>
    <v>       0.33333333       0.50000000       0.00000000 </v>
    <v>       0.50000000       0.50000000       0.00000000 </v>
    <v>       0.00000000       0.16666667       0.16666667 </v>
    <v>       0.16666667       0.16666667       0.16666667 </v>
    <v>       0.33333333       0.16666667       0.16666667 </v>
    <v>       0.50000000       0.16666667       0.16666667 </v>
    <v>       0.00000000       0.33333333       0.16666667 </v>
    <v>       0.16666667       0.33333333       0.16666667 </v>
    <v>       0.33333333       0.33333333       0.16666667 </v>
    <v>       0.50000000       0.33333333       0.16666667 </v>
    <v>       0.00000000       0.50000000       0.16666667 </v>
    <v>       0.16666667       0.50000000       0.16666667 </v>
    <v>       0.33333333       0.50000000       0.16666667 </v>
    <v>       0.50000000       0.50000000       0.16666667 </v>
    <v>       0.00000000      -0.33333333       0.16666667 </v>
    <v>       0.16666667      -0.33333333       0.16666667 </v>
    <v>       0.33333333      -0.33333333       0.16666667 </v>
    <v>       0.50000000      -0.33333333       0.16666667 </v>
    <v>       0.00000000      -0.16666667       0.16666667 </v>
    <v>       0.16666667      -0.16666667       0.16666667 </v>
    <v>       0.33333333      -0.16666667       0.16666667 </v>
    <v>       0.50000000      -0.16666667       0.16666667 </v>
    <v>       0.00000000       0.33333333       0.33333333 </v>
    <v>       0.16666667       0.33333333       0.33333333 </v>
    <v>       0.33333333       0.33333333       0.33333333 </v>
    <v>       0.50000000       0.33333333       0.33333333 </v>
    <v>       0.00000000       0.50000000       0.33333333 </v>
    <v>       0.16666667       0.50000000       0.33333333 </v>
    <v>       0.33333333       0.50000000       0.33333333 </v>
    <v>       0.50000000       0.50000000       0.33333333 </v>
    <v>       0.00000000      -0.33333333       0.33333333 </v>
    <v>       0.16666667      -0.33333333       0.33333333 </v>
    <v>       0.33333333      -0.33333333       0.33333333 </v>
    <v>       0.50000000      -0.33333333       0.33333333 </v>
    <v>       0.00000000       0.50000000       0.50000000 </v>
    <v>       0.16666667       0.50000000       0.50000000 </v>
    <v>       0.33333333       0.50000000       0.50000000 </v>
    <v>       0.50000000       0.50000000       0.50000000 </v>
   </varray>
   <varray name="weights" >
    <v>       0.00462963 </v>
    <v>       0.00925926 </v>
    <v>       0.00925926 </v>
    <v>       0.00462963 </v>
    <v>       0.01851852 </v>
    <v>       0.03703704 </v>
    <v>       0.03703704 </v>
    <v>       0.01851852 </v>
    <v>       0.01851852 </v>
    <v>       0.03703704 </v>
    <v>       0.03703704 </v>
    <v>       0.01851852 </v>
    <v>       0.00925926 </v>
    <v>       0.01851852 </v>
    <v>       0.01851852 </v>
    <v>       0.00925926 </v>
    <v>       0.00925926 </v>
    <v>       0.01851852 </v>
    <v>       0.01851852 </v>
    <v>       0.00925926 </v>
    <v>       0.01851852 </v>
    <v>       0.03703704 </v>
    <v>       0.03703704 </v>
    <v>       0.01851852 </v>
    <v>       0.01851852 </v>
    <v>       0.03703704 </v>
    <v>       0.03703704 </v>
    <v>       0.01851852 </v>
    <v>       0.01851852 </v>
    <v>       0.03703704 </v>
    <v>       0.03703704 </v>
    <v>       0.01851852 </v>
    <v>       0.00925926 </v>
    <v>       0.01851852 </v>
    <v>       0.01851852 </v>
    <v>       0.00925926 </v>
    <v>       0.00925926 </v>
    <v>       0.01851852 </v>
    <v>       0.01851852 </v>
    <v>       0.00925926 </v>
    <v>       0.01851852 </v>
    <v>       0.03703704 </v>
    <v>       0.03703704 </v>
    <v>       0.01851852 </v>
    <v>       0.00925926 </v>
    <v>       0.01851852 </v>
    <v>       0.01851852 </v>
    <v>       0.00925926 </v>
    <v>       0.00462963 </v>
    <v>       0.00925926 </v>
    <v>       0.00925926 </v>
    <v>       0.00462963 </v>
   </varray>
  </kpoints>
  <scstep>
   <time name="total">   45.41   45.42</time>
   <energy>
    <i name="e_fr_energy">   -346.35584042 </i>
    <i name="e_wo_entrp">   -346.35584042 </i>
    <i name="e_0_energy">   -346.35584042 </i>
   </energy>
  </scstep>
  <scstep>
   <time name="total">   33.89   33.90</time>
   <energy>
    <i name="e_fr_energy">   -300.09491672 </i>
    <i name="e_wo_entrp">   -300.09491672 </i>
    <i name="e_0_energy">   -300.09491672 </i>
   </energy>
  </scstep>
  <scstep>
   <time name="total">   36.13   36.13</time>
   <energy>
    <i name="e_fr_energy">   -299.91472563 </i>
    <i name="e_wo_entrp">   -299.91472563 </i>
    <i name="e_0_energy">   -299.91472563 </i>
   </energy>
  </scstep>
  <scstep>
   <time name="total">   34.71   34.71</time>
   <energy>
    <i name="e_fr_energy">   -300.36747865 </i>
    <i name="e_wo_entrp">   -300.36747865 </i>
    <i name="e_0_energy">   -300.36747865 </i>
   </energy>
  </scstep>
  <scstep>
   <time name="total">   36.52   36.52</time>
   <energy>
    <i name="e_fr_energy">   -300.50818655 </i>
    <i name="e_wo_entrp">   -300.50818655 </i>
    <i name="e_0_energy">   -300.50818655 </i>
   </energy>
  </scstep>
  <scstep>
   <time name="total">   37.14   37.14</time>
   <energy>
    <i name="e_fr_energy">   -300.46390812 </i>
    <i name="e_wo_entrp">   -300.46390812 </i>
    <i name="e_0_energy">   -300.46390812 </i>
   </energy>
  </scstep>
  <scstep>
   <time name="total">   35.21   35.22</time>
   <energy>
    <i name="e_fr_energy">   -300.44336124 </i>
    <i name="e_wo_entrp">   -300.44336124 </i>
    <i name="e_0_energy">   -300.44336124 </i>
   </energy>
  </scstep>
  <scstep>
   <time name="total">   36.33   36.33</time>
   <energy>
    <i name="e_fr_energy">   -300.44242962 </i>
    <i name="e_wo_entrp">   -300.44242962 </i>
    <i name="e_0_energy">   -300.44242962 </i>
   </energy>
  </scstep>
  <scstep>
   <time name="total">   37.72   37.73</time>
   <energy>
    <i name="e_fr_energy">   -300.44183734 </i>
    <i name="e_wo_entrp">   -300.44183734 </i>
    <i name="e_0_energy">   -300.44183734 </i>
   </energy>
  </scstep>
  <scstep>
   <time name="total">   39.28   39.28</time>
   <energy>
    <i name="e_fr_energy">   -300.44218518 </i>
    <i name="e_wo_entrp">   -300.44218518 </i>
    <i name="e_0_energy">   -300.44218518 </i>
   </energy>
  </scstep>
  <scstep>
   <time name="total">   40.82   40.83</time>
   <energy>
    <i name="e_fr_energy">   -300.44217892 </i>
    <i name="e_wo_entrp">   -300.44217892 </i>
    <i name="e_0_energy">   -300.44217892 </i>
   </energy>
  </scstep>
  <kpoints>
   <generation param="Gamma">
    <v type="int" name="divisions">       6        6        6 </v>
    <v name="usershift">      0.00000000       0.00000000       0.00000000 </v>
    <v name="genvec1">      0.16666667       0.00000000       0.00000000 </v>
    <v name="genvec2">      0.00000000       0.16666667       0.00000000 </v>
    <v name="genvec3">      0.00000000       0.00000000       0.16666667 </v>
    <v name="shift">      0.00000000       0.00000000       0.00000000 </v>
   </generation>
   <varray name="kpointlist" >
    <v>       0.00000000       0.00000000       0.00000000 </v>
    <v>       0.16666667       0.00000000       0.00000000 </v>
    <v>       0.33333333       0.00000000       0.00000000 </v>
    <v>       0.50000000       0.00000000       0.00000000 </v>
    <v>       0.16666667       0.16666667       0.00000000 </v>
    <v>       0.33333333       0.16666667       0.00000000 </v>
    <v>       0.50000000       0.16666667       0.00000000 </v>
    <v>       0.33333333       0.33333333       0.00000000 </v>
    <v>       0.50000000       0.33333333       0.00000000 </v>
    <v>       0.50000000       0.50000000       0.00000000 </v>
    <v>       0.16666667       0.16666667       0.16666667 </v>
    <v>       0.33333333       0.16666667       0.16666667 </v>
    <v>       0.50000000       0.16666667       0.16666667 </v>
    <v>       0.33333333       0.33333333       0.16666667 </v>
    <v>       0.50000000       0.33333333       0.16666667 </v>
    <v>       0.50000000       0.50000000       0.16666667 </v>
    <v>       0.33333333       0.33333333       0.33333333 </v>
    <v>       0.50000000       0.33333333       0.33333333 </v>
    <v>       0.50000000       0.50000000       0.33333333 </v>
    <v>       0.50000000       0.50000000       0.50000000 </v>
   </varray>
   <varray name="weights" >
    <v>       0.00462963 </v>
    <v>       0.02777778 </v>
    <v>       0.02777778 </v>
    <v>       0.01388889 </v>
    <v>       0.05555556 </v>
    <v>       0.11111111 </v>
    <v>       0.05555556 </v>
    <v>       0.05555556 </v>
    <v>       0.05555556 </v>
    <v>       0.01388889 </v>
    <v>       0.03703704 </v>
    <v>       0.11111111 </v>
    <v>       0.05555556 </v>
    <v>       0.11111111 </v>
    <v>       0.11111111 </v>
    <v>       0.02777778 </v>
    <v>       0.03703704 </v>
    <v>       0.05555556 </v>
    <v>       0.02777778 </v>
    <v>       0.00462963 </v>
   </varray>
  </kpoints>
  <dynmat>
   <varray name="hessian" >
    <v>      -2.96261245       0.00000000      -0.00000000       0.01123068       0.00000000      -0.00000000       0.00744739       0.00000000      -0.00000000       0.00741033      -0.00000000       0.00000000       0.00744739      -0.00000000      -0.00000000       0.00741033       0.00000000       0.00000000      -0.04570405       0.00000000       0.00000000       0.00382759      -0.00000000      -0.00000000      -0.01201638      -0.00723556       0.00033728       0.00547597      -0.00663812      -0.01542872       0.61581221      -0.05132727      -0.05132727      -0.00506618      -0.00723556      -0.00723556       0.02753820      -0.01542872      -0.01542872      -0.00258059      -0.00257650      -0.00257650      -0.01201638       0.00033728      -0.00723556       0.00547597      -0.01542872      -0.00663812      -0.10495730       0.05115716      -0.05115716      -0.00365681       0.00263352      -0.00263352      -0.10495730       0.05115716       0.05115716      -0.00365681       0.00263352       0.00263352      -0.10495730      -0.05115716      -0.05115716      -0.00365681      -0.00263352      -0.00263352      -0.10495730      -0.05115716       0.05115716      -0.00365681      -0.00263352       0.00263352       0.61581221       0.05132727       0.05132727      -0.00506618       0.00723556       0.00723556      -0.01201638       0.00723556      -0.00033728       0.00547597       0.00663812       0.01542872      -0.01201638      -0.00033728       0.00723556       0.00547597       0.01542872       0.00663812       0.02753820       0.01542872       0.01542872      -0.00258059       0.00257650       0.00257650       0.10715738      -0.05115716       0.11067303       0.10715738      -0.05115716      -0.11067303       0.00628111      -0.00263352      -0.00657741       0.00628111      -0.00263352       0.00657741       0.10715738       0.05115716      -0.11067303       0.10715738       0.05115716       0.11067303       0.00628111       0.00263352       0.00657741       0.00628111       0.00263352      -0.00657741      -0.01201638       0.00723556       0.00033728       0.00547597       0.00663812      -0.01542872       0.61581221       0.05132727      -0.05132727      -0.00506618       0.00723556      -0.00723556       0.02753820       0.01542872      -0.01542872      -0.00258059       0.00257650      -0.00257650      -0.01201638      -0.00033728      -0.00723556       0.00547597       0.01542872      -0.00663812       0.10715738      -0.11067303       0.05115716       0.10715738       0.11067303       0.05115716       0.10715738       0.11067303      -0.05115716       0.10715738      -0.11067303      -0.05115716       0.00628111       0.00657741       0.00263352       0.00628111      -0.00657741       0.00263352       0.00628111      -0.00657741      -0.00263352       0.00628111       0.00657741      -0.00263352       0.61581221      -0.05132727       0.05132727      -0.00506618      -0.00723556       0.00723556      -0.01201638      -0.00723556      -0.00033728       0.00547597      -0.00663812       0.01542872      -0.01201638       0.00033728       0.00723556       0.00547597      -0.01542872       0.00663812       0.02753820      -0.01542872       0.01542872      -0.00258059      -0.00257650       0.00257650 </v>
    <v>       0.00000000      -2.96261245      -0.00000000       0.00000000       0.00744739      -0.00000000       0.00000000       0.01123068      -0.00000000      -0.00000000       0.00741033       0.00000000      -0.00000000       0.00744739      -0.00000000       0.00000000      -0.04570405       0.00000000       0.00000000       0.00741033       0.00000000      -0.00000000       0.00382759      -0.00000000      -0.00723556      -0.00506618       0.00723556      -0.00663812       0.00547597       0.01542872      -0.05132727       0.61581221       0.05132727      -0.00723556      -0.01201638      -0.00033728      -0.01542872       0.00547597       0.00663812      -0.00257650      -0.00258059       0.00257650       0.00033728      -0.01201638       0.00723556      -0.01542872       0.02753820       0.01542872      -0.05115716       0.10715738      -0.11067303      -0.00263352       0.00628111       0.00657741      -0.05115716       0.10715738       0.11067303      -0.00263352       0.00628111      -0.00657741       0.05115716       0.10715738       0.11067303       0.00263352       0.00628111      -0.00657741       0.05115716       0.10715738      -0.11067303       0.00263352       0.00628111       0.00657741       0.05132727       0.61581221       0.05132727       0.00723556      -0.01201638      -0.00033728       0.00723556      -0.00506618       0.00723556       0.00663812       0.00547597       0.01542872      -0.00033728      -0.01201638       0.00723556       0.01542872       0.02753820       0.01542872       0.01542872       0.00547597       0.00663812       0.00257650      -0.00258059       0.00257650       0.05115716      -0.10495730       0.05115716       0.05115716      -0.10495730      -0.05115716       0.00263352      -0.00365681       0.00263352       0.00263352      -0.00365681      -0.00263352      -0.05115716      -0.10495730       0.05115716      -0.05115716      -0.10495730      -0.05115716      -0.00263352      -0.00365681       0.00263352      -0.00263352      -0.00365681      -0.00263352       0.00723556      -0.00506618      -0.00723556       0.00663812       0.00547597      -0.01542872       0.05132727       0.61581221      -0.05132727       0.00723556      -0.01201638       0.00033728       0.01542872       0.00547597      -0.00663812       0.00257650      -0.00258059      -0.00257650      -0.00033728      -0.01201638      -0.00723556       0.01542872       0.02753820      -0.01542872      -0.11067303       0.10715738      -0.05115716       0.11067303       0.10715738       0.05115716       0.11067303       0.10715738      -0.05115716      -0.11067303       0.10715738       0.05115716       0.00657741       0.00628111      -0.00263352      -0.00657741       0.00628111       0.00263352      -0.00657741       0.00628111      -0.00263352       0.00657741       0.00628111       0.00263352      -0.05132727       0.61581221      -0.05132727      -0.00723556      -0.01201638       0.00033728      -0.00723556      -0.00506618      -0.00723556      -0.00663812       0.00547597      -0.01542872       0.00033728      -0.01201638      -0.00723556      -0.01542872       0.02753820      -0.01542872      -0.01542872       0.00547597      -0.00663812      -0.00257650      -0.00258059      -0.00257650 </v>
    <v>      -0.00000000      -0.00000000      -2.96261245      -0.00000000      -0.00000000       0.00744739      -0.00000000      -0.00000000       0.00744739       0.00000000       0.00000000      -0.04570405      -0.00000000      -0.00000000       0.01123068       0.00000000       0.00000000       0.00741033       0.00000000       0.00000000       0.00741033      -0.00000000      -0.00000000       0.00382759       0.00033728       0.00723556      -0.01201638      -0.01542872       0.01542872       0.02753820      -0.05132727       0.05132727       0.61581221      -0.00723556      -0.00033728      -0.01201638      -0.01542872       0.00663812       0.00547597      -0.00257650       0.00257650      -0.00258059      -0.00723556       0.00723556      -0.00506618      -0.00663812       0.01542872       0.00547597       0.05115716      -0.11067303       0.10715738       0.00263352       0.00657741       0.00628111      -0.05115716       0.11067303       0.10715738      -0.00263352      -0.00657741       0.00628111       0.05115716       0.11067303       0.10715738       0.00263352      -0.00657741       0.00628111      -0.05115716      -0.11067303       0.10715738      -0.00263352       0.00657741       0.00628111       0.05132727       0.05132727       0.61581221       0.00723556      -0.00033728      -0.01201638      -0.00033728       0.00723556      -0.01201638       0.01542872       0.01542872       0.02753820       0.00723556       0.00723556      -0.00506618       0.00663812       0.01542872       0.00547597       0.01542872       0.00663812       0.00547597       0.00257650       0.00257650      -0.00258059       0.11067303      -0.05115716       0.10715738      -0.11067303       0.05115716       0.10715738      -0.00657741      -0.00263352       0.00628111       0.00657741       0.00263352       0.00628111      -0.11067303      -0.05115716       0.10715738       0.11067303       0.05115716       0.10715738       0.00657741      -0.00263352       0.00628111      -0.00657741       0.00263352       0.00628111       0.00033728      -0.00723556      -0.01201638      -0.01542872      -0.01542872       0.02753820      -0.05132727      -0.05132727       0.61581221      -0.00723556       0.00033728      -0.01201638      -0.01542872      -0.00663812       0.00547597      -0.00257650      -0.00257650      -0.00258059      -0.00723556      -0.00723556      -0.00506618      -0.00663812      -0.01542872       0.00547597      -0.05115716       0.05115716      -0.10495730      -0.05115716      -0.05115716      -0.10495730       0.05115716       0.05115716      -0.10495730       0.05115716      -0.05115716      -0.10495730      -0.00263352       0.00263352      -0.00365681      -0.00263352      -0.00263352      -0.00365681       0.00263352       0.00263352      -0.00365681       0.00263352      -0.00263352      -0.00365681       0.05132727      -0.05132727       0.61581221       0.00723556       0.00033728      -0.01201638      -0.00033728      -0.00723556      -0.01201638       0.01542872      -0.01542872       0.02753820       0.00723556      -0.00723556      -0.00506618       0.00663812      -0.01542872       0.00547597       0.01542872      -0.00663812       0.00547597       0.00257650      -0.00257650      -0.00258059 </v>
    <v>       0.01123068       0.00000000      -0.00000000      -2.96261245       0.00000000      -0.00000000       0.00741033      -0.00000000       0.00000000       0.00744739       0.00000000      -0.00000000       0.00741033       0.00000000       0.00000000       0.00744739      -0.00000000      -0.00000000       0.00382759      -0.00000000      -0.00000000      -0.04570405       0.00000000       0.00000000       0.00547597      -0.00663812      -0.01542872      -0.01201638      -0.00723556       0.00033728      -0.00506618      -0.00723556      -0.00723556       0.61581221      -0.05132727      -0.05132727      -0.00258059      -0.00257650      -0.00257650       0.02753820      -0.01542872      -0.01542872       0.00547597      -0.01542872      -0.00663812      -0.01201638       0.00033728      -0.00723556      -0.00365681       0.00263352      -0.00263352      -0.10495730       0.05115716      -0.05115716      -0.00365681       0.00263352       0.00263352      -0.10495730       0.05115716       0.05115716      -0.00365681      -0.00263352      -0.00263352      -0.10495730      -0.05115716      -0.05115716      -0.00365681      -0.00263352       0.00263352      -0.10495730      -0.05115716       0.05115716      -0.00506618       0.00723556       0.00723556       0.61581221       0.05132727       0.05132727       0.00547597       0.00663812       0.01542872      -0.01201638       0.00723556      -0.00033728       0.00547597       0.01542872       0.00663812      -0.01201638      -0.00033728       0.00723556      -0.00258059       0.00257650       0.00257650       0.02753820       0.01542872       0.01542872       0.10715738      -0.05115716      -0.11067303       0.10715738      -0.05115716       0.11067303       0.00628111      -0.00263352       0.00657741       0.00628111      -0.00263352      -0.00657741       0.10715738       0.05115716       0.11067303       0.10715738       0.05115716      -0.11067303       0.00628111       0.00263352      -0.00657741       0.00628111       0.00263352       0.00657741       0.00547597       0.00663812      -0.01542872      -0.01201638       0.00723556       0.00033728      -0.00506618       0.00723556      -0.00723556       0.61581221       0.05132727      -0.05132727      -0.00258059       0.00257650      -0.00257650       0.02753820       0.01542872      -0.01542872       0.00547597       0.01542872      -0.00663812      -0.01201638      -0.00033728      -0.00723556       0.10715738       0.11067303       0.05115716       0.10715738      -0.11067303       0.05115716       0.10715738      -0.11067303      -0.05115716       0.10715738       0.11067303      -0.05115716       0.00628111      -0.00657741       0.00263352       0.00628111       0.00657741       0.00263352       0.00628111       0.00657741      -0.00263352       0.00628111      -0.00657741      -0.00263352      -0.00506618      -0.00723556       0.00723556       0.61581221      -0.05132727       0.05132727       0.00547597      -0.00663812       0.01542872      -0.01201638      -0.00723556      -0.00033728       0.00547597      -0.01542872       0.00663812      -0.01201638       0.00033728       0.00723556      -0.00258059      -0.00257650       0.00257650       0.02753820      -0.01542872       0.01542872 </v>
    <v>       0.00000000       0.00744739      -0.00000000       0.00000000      -2.96261245      -0.00000000      -0.00000000       0.00741033       0.00000000       0.00000000       0.01123068      -0.00000000       0.00000000      -0.04570405       0.00000000      -0.00000000       0.00744739      -0.00000000      -0.00000000       0.00382759      -0.00000000       0.00000000       0.00741033       0.00000000      -0.00663812       0.00547597       0.01542872      -0.00723556      -0.00506618       0.00723556      -0.00723556      -0.01201638      -0.00033728      -0.05132727       0.61581221       0.05132727      -0.00257650      -0.00258059       0.00257650      -0.01542872       0.00547597       0.00663812      -0.01542872       0.02753820       0.01542872       0.00033728      -0.01201638       0.00723556      -0.00263352       0.00628111       0.00657741      -0.05115716       0.10715738      -0.11067303      -0.00263352       0.00628111      -0.00657741      -0.05115716       0.10715738       0.11067303       0.00263352       0.00628111      -0.00657741       0.05115716       0.10715738       0.11067303       0.00263352       0.00628111       0.00657741       0.05115716       0.10715738      -0.11067303       0.00723556      -0.01201638      -0.00033728       0.05132727       0.61581221       0.05132727       0.00663812       0.00547597       0.01542872       0.00723556      -0.00506618       0.00723556       0.01542872       0.02753820       0.01542872      -0.00033728      -0.01201638       0.00723556       0.00257650      -0.00258059       0.00257650       0.01542872       0.00547597       0.00663812       0.05115716      -0.10495730      -0.05115716       0.05115716      -0.10495730       0.05115716       0.00263352      -0.00365681      -0.00263352       0.00263352      -0.00365681       0.00263352      -0.05115716      -0.10495730      -0.05115716      -0.05115716      -0.10495730       0.05115716      -0.00263352      -0.00365681      -0.00263352      -0.00263352      -0.00365681       0.00263352       0.00663812       0.00547597      -0.01542872       0.00723556      -0.00506618      -0.00723556       0.00723556      -0.01201638       0.00033728       0.05132727       0.61581221      -0.05132727       0.00257650      -0.00258059      -0.00257650       0.01542872       0.00547597      -0.00663812       0.01542872       0.02753820      -0.01542872      -0.00033728      -0.01201638      -0.00723556       0.11067303       0.10715738       0.05115716      -0.11067303       0.10715738      -0.05115716      -0.11067303       0.10715738       0.05115716       0.11067303       0.10715738      -0.05115716      -0.00657741       0.00628111       0.00263352       0.00657741       0.00628111      -0.00263352       0.00657741       0.00628111       0.00263352      -0.00657741       0.00628111      -0.00263352      -0.00723556      -0.01201638       0.00033728      -0.05132727       0.61581221      -0.05132727      -0.00663812       0.00547597      -0.01542872      -0.00723556      -0.00506618      -0.00723556      -0.01542872       0.02753820      -0.01542872       0.00033728      -0.01201638      -0.00723556      -0.00257650      -0.00258059      -0.00257650      -0.01542872       0.00547597      -0.00663812 </v>
    <v>      -0.00000000      -0.00000000       0.00744739      -0.00000000      -0.00000000      -2.96261245       0.00000000       0.00000000      -0.04570405      -0.00000000      -0.00000000       0.00744739       0.00000000       0.00000000       0.00741033      -0.00000000      -0.00000000       0.01123068      -0.00000000      -0.00000000       0.00382759       0.00000000       0.00000000       0.00741033      -0.01542872       0.01542872       0.02753820       0.00033728       0.00723556      -0.01201638      -0.00723556      -0.00033728      -0.01201638      -0.05132727       0.05132727       0.61581221      -0.00257650       0.00257650      -0.00258059      -0.01542872       0.00663812       0.00547597      -0.00663812       0.01542872       0.00547597      -0.00723556       0.00723556      -0.00506618       0.00263352       0.00657741       0.00628111       0.05115716      -0.11067303       0.10715738      -0.00263352      -0.00657741       0.00628111      -0.05115716       0.11067303       0.10715738       0.00263352      -0.00657741       0.00628111       0.05115716       0.11067303       0.10715738      -0.00263352       0.00657741       0.00628111      -0.05115716      -0.11067303       0.10715738       0.00723556      -0.00033728      -0.01201638       0.05132727       0.05132727       0.61581221       0.01542872       0.01542872       0.02753820      -0.00033728       0.00723556      -0.01201638       0.00663812       0.01542872       0.00547597       0.00723556       0.00723556      -0.00506618       0.00257650       0.00257650      -0.00258059       0.01542872       0.00663812       0.00547597      -0.11067303       0.05115716       0.10715738       0.11067303      -0.05115716       0.10715738       0.00657741       0.00263352       0.00628111      -0.00657741      -0.00263352       0.00628111       0.11067303       0.05115716       0.10715738      -0.11067303      -0.05115716       0.10715738      -0.00657741       0.00263352       0.00628111       0.00657741      -0.00263352       0.00628111      -0.01542872      -0.01542872       0.02753820       0.00033728      -0.00723556      -0.01201638      -0.00723556       0.00033728      -0.01201638      -0.05132727      -0.05132727       0.61581221      -0.00257650      -0.00257650      -0.00258059      -0.01542872      -0.00663812       0.00547597      -0.00663812      -0.01542872       0.00547597      -0.00723556      -0.00723556      -0.00506618      -0.05115716      -0.05115716      -0.10495730      -0.05115716       0.05115716      -0.10495730       0.05115716      -0.05115716      -0.10495730       0.05115716       0.05115716      -0.10495730      -0.00263352      -0.00263352      -0.00365681      -0.00263352       0.00263352      -0.00365681       0.00263352      -0.00263352      -0.00365681       0.00263352       0.00263352      -0.00365681       0.00723556       0.00033728      -0.01201638       0.05132727      -0.05132727       0.61581221       0.01542872      -0.01542872       0.02753820      -0.00033728      -0.00723556      -0.01201638       0.00663812      -0.01542872       0.00547597       0.00723556      -0.00723556      -0.00506618       0.00257650      -0.00257650      -0.00258059       0.01542872      -0.00663812       0.00547597 </v>
    <v>       0.00744739       0.00000000      -0.00000000       0.00741033      -0.00000000       0.00000000      -2.96261245       0.00000000      -0.00000000       0.01123068       0.00000000      -0.00000000      -0.04570405       0.00000000       0.00000000       0.00382759      -0.00000000      -0.00000000       0.00744739      -0.00000000      -0.00000000       0.00741033       0.00000000       0.00000000       0.61581221      -0.05132727      -0.05132727      -0.00506618      -0.00723556      -0.00723556      -0.01201638      -0.00723556       0.00033728       0.00547597      -0.00663812      -0.01542872      -0.01201638       0.00033728      -0.00723556       0.00547597      -0.01542872      -0.00663812       0.02753820      -0.01542872      -0.01542872      -0.00258059      -0.00257650      -0.00257650      -0.10495730       0.05115716       0.05115716      -0.00365681       0.00263352       0.00263352      -0.10495730       0.05115716      -0.05115716      -0.00365681       0.00263352      -0.00263352      -0.10495730      -0.05115716       0.05115716      -0.00365681      -0.00263352       0.00263352      -0.10495730      -0.05115716      -0.05115716      -0.00365681      -0.00263352      -0.00263352      -0.01201638       0.00723556      -0.00033728       0.00547597       0.00663812       0.01542872       0.61581221       0.05132727       0.05132727      -0.00506618       0.00723556       0.00723556       0.02753820       0.01542872       0.01542872      -0.00258059       0.00257650       0.00257650      -0.01201638      -0.00033728       0.00723556       0.00547597       0.01542872       0.00663812       0.00628111      -0.00263352      -0.00657741       0.00628111      -0.00263352       0.00657741       0.10715738      -0.05115716       0.11067303       0.10715738      -0.05115716      -0.11067303       0.00628111       0.00263352       0.00657741       0.00628111       0.00263352      -0.00657741       0.10715738       0.05115716      -0.11067303       0.10715738       0.05115716       0.11067303       0.61581221       0.05132727      -0.05132727      -0.00506618       0.00723556      -0.00723556      -0.01201638       0.00723556       0.00033728       0.00547597       0.00663812      -0.01542872      -0.01201638      -0.00033728      -0.00723556       0.00547597       0.01542872      -0.00663812       0.02753820       0.01542872      -0.01542872      -0.00258059       0.00257650      -0.00257650       0.10715738       0.11067303      -0.05115716       0.10715738      -0.11067303      -0.05115716       0.10715738      -0.11067303       0.05115716       0.10715738       0.11067303       0.05115716       0.00628111      -0.00657741      -0.00263352       0.00628111       0.00657741      -0.00263352       0.00628111       0.00657741       0.00263352       0.00628111      -0.00657741       0.00263352      -0.01201638      -0.00723556      -0.00033728       0.00547597      -0.00663812       0.01542872       0.61581221      -0.05132727       0.05132727      -0.00506618      -0.00723556       0.00723556       0.02753820      -0.01542872       0.01542872      -0.00258059      -0.00257650       0.00257650      -0.01201638       0.00033728       0.00723556       0.00547597      -0.01542872       0.00663812 </v>
    <v>       0.00000000       0.01123068      -0.00000000      -0.00000000       0.00741033       0.00000000       0.00000000      -2.96261245      -0.00000000       0.00000000       0.00744739      -0.00000000       0.00000000       0.00741033       0.00000000      -0.00000000       0.00382759      -0.00000000      -0.00000000       0.00744739      -0.00000000       0.00000000      -0.04570405       0.00000000      -0.05132727       0.61581221       0.05132727      -0.00723556      -0.01201638      -0.00033728      -0.00723556      -0.00506618       0.00723556      -0.00663812       0.00547597       0.01542872       0.00033728      -0.01201638       0.00723556      -0.01542872       0.02753820       0.01542872      -0.01542872       0.00547597       0.00663812      -0.00257650      -0.00258059       0.00257650      -0.05115716       0.10715738       0.11067303      -0.00263352       0.00628111      -0.00657741      -0.05115716       0.10715738      -0.11067303      -0.00263352       0.00628111       0.00657741       0.05115716       0.10715738      -0.11067303       0.00263352       0.00628111       0.00657741       0.05115716       0.10715738       0.11067303       0.00263352       0.00628111      -0.00657741       0.00723556      -0.00506618       0.00723556       0.00663812       0.00547597       0.01542872       0.05132727       0.61581221       0.05132727       0.00723556      -0.01201638      -0.00033728       0.01542872       0.00547597       0.00663812       0.00257650      -0.00258059       0.00257650      -0.00033728      -0.01201638       0.00723556       0.01542872       0.02753820       0.01542872       0.00263352      -0.00365681       0.00263352       0.00263352      -0.00365681      -0.00263352       0.05115716      -0.10495730       0.05115716       0.05115716      -0.10495730      -0.05115716      -0.00263352      -0.00365681       0.00263352      -0.00263352      -0.00365681      -0.00263352      -0.05115716      -0.10495730       0.05115716      -0.05115716      -0.10495730      -0.05115716       0.05132727       0.61581221      -0.05132727       0.00723556      -0.01201638       0.00033728       0.00723556      -0.00506618      -0.00723556       0.00663812       0.00547597      -0.01542872      -0.00033728      -0.01201638      -0.00723556       0.01542872       0.02753820      -0.01542872       0.01542872       0.00547597      -0.00663812       0.00257650      -0.00258059      -0.00257650       0.11067303       0.10715738      -0.05115716      -0.11067303       0.10715738       0.05115716      -0.11067303       0.10715738      -0.05115716       0.11067303       0.10715738       0.05115716      -0.00657741       0.00628111      -0.00263352       0.00657741       0.00628111       0.00263352       0.00657741       0.00628111      -0.00263352      -0.00657741       0.00628111       0.00263352      -0.00723556      -0.00506618      -0.00723556      -0.00663812       0.00547597      -0.01542872      -0.05132727       0.61581221      -0.05132727      -0.00723556      -0.01201638       0.00033728      -0.01542872       0.00547597      -0.00663812      -0.00257650      -0.00258059      -0.00257650       0.00033728      -0.01201638      -0.00723556      -0.01542872       0.02753820      -0.01542872 </v>
    <v>      -0.00000000      -0.00000000       0.00744739       0.00000000       0.00000000      -0.04570405      -0.00000000      -0.00000000      -2.96261245      -0.00000000      -0.00000000       0.00744739       0.00000000       0.00000000       0.00741033      -0.00000000      -0.00000000       0.00382759      -0.00000000      -0.00000000       0.01123068       0.00000000       0.00000000       0.00741033      -0.05132727       0.05132727       0.61581221      -0.00723556      -0.00033728      -0.01201638       0.00033728       0.00723556      -0.01201638      -0.01542872       0.01542872       0.02753820      -0.00723556       0.00723556      -0.00506618      -0.00663812       0.01542872       0.00547597      -0.01542872       0.00663812       0.00547597      -0.00257650       0.00257650      -0.00258059      -0.05115716       0.11067303       0.10715738      -0.00263352      -0.00657741       0.00628111       0.05115716      -0.11067303       0.10715738       0.00263352       0.00657741       0.00628111      -0.05115716      -0.11067303       0.10715738      -0.00263352       0.00657741       0.00628111       0.05115716       0.11067303       0.10715738       0.00263352      -0.00657741       0.00628111      -0.00033728       0.00723556      -0.01201638       0.01542872       0.01542872       0.02753820       0.05132727       0.05132727       0.61581221       0.00723556      -0.00033728      -0.01201638       0.01542872       0.00663812       0.00547597       0.00257650       0.00257650      -0.00258059       0.00723556       0.00723556      -0.00506618       0.00663812       0.01542872       0.00547597      -0.00657741      -0.00263352       0.00628111       0.00657741       0.00263352       0.00628111       0.11067303      -0.05115716       0.10715738      -0.11067303       0.05115716       0.10715738       0.00657741      -0.00263352       0.00628111      -0.00657741       0.00263352       0.00628111      -0.11067303      -0.05115716       0.10715738       0.11067303       0.05115716       0.10715738      -0.05132727      -0.05132727       0.61581221      -0.00723556       0.00033728      -0.01201638       0.00033728      -0.00723556      -0.01201638      -0.01542872      -0.01542872       0.02753820      -0.00723556      -0.00723556      -0.00506618      -0.00663812      -0.01542872       0.00547597      -0.01542872      -0.00663812       0.00547597      -0.00257650      -0.00257650      -0.00258059       0.05115716       0.05115716      -0.10495730       0.05115716      -0.05115716      -0.10495730      -0.05115716       0.05115716      -0.10495730      -0.05115716      -0.05115716      -0.10495730       0.00263352       0.00263352      -0.00365681       0.00263352      -0.00263352      -0.00365681      -0.00263352       0.00263352      -0.00365681      -0.00263352      -0.00263352      -0.00365681      -0.00033728      -0.00723556      -0.01201638       0.01542872      -0.01542872       0.02753820       0.05132727      -0.05132727       0.61581221       0.00723556       0.00033728      -0.01201638       0.01542872      -0.00663812       0.00547597       0.00257650      -0.00257650      -0.00258059       0.00723556      -0.00723556      -0.00506618       0.00663812      -0.01542872       0.00547597 </v>
[...]
      </set>
     </set>
    </set>
   </array>
  </eigenvalues>
  <separator name="orbital magnetization" >
   <v name="MAGDIPOLOUT">      0.00000000      0.00000000      0.00000000</v>
  </separator>
  <dos>
   <i name="efermi">      8.54391117 </i>
   <total>
    <array>
     <dimension dim="1">gridpoints</dimension>
     <dimension dim="2">spin</dimension>
     <field>energy</field>
     <field>total</field>
     <field>integrated</field>
     <set>
      <set comment="spin 1">
       <r>   -13.3675     0.0000     0.0000 </r>
       <r>   -13.2546     0.0000     0.0000 </r>
       <r>   -13.1417     0.0000     0.0000 </r>
       <r>   -13.0288     0.0000     0.0000 </r>
       <r>   -12.9159     0.0000     0.0000 </r>
       <r>   -12.8030     0.0000     0.0000 </r>
       <r>   -12.6901     0.0000     0.0000 </r>
       <r>   -12.5772     0.0000     0.0000 </r>
       <r>   -12.4643     0.0000     0.0000 </r>
       <r>   -12.3513     0.0000     0.0000 </r>
       <r>   -12.2384     0.0000     0.0000 </r>
       <r>   -12.1255     0.0000     0.0000 </r>
       <r>   -12.0126     0.0000     0.0000 </r>
       <r>   -11.8997     0.0042     0.0005 </r>
       <r>   -11.7868     0.2603     0.0299 </r>
       <r>   -11.6739     1.2830     0.1747 </r>
       <r>   -11.5610     1.5258     0.3470 </r>
       <r>   -11.4481     2.9573     0.6809 </r>
       <r>   -11.3352     1.6847     0.8711 </r>
       <r>   -11.2223     3.7334     1.2927 </r>
       <r>   -11.1093     3.0644     1.6387 </r>
       <r>   -10.9964     4.0416     2.0950 </r>
       <r>   -10.8835     2.5429     2.3821 </r>
       <r>   -10.7706     4.8638     2.9313 </r>
       <r>   -10.6577     4.6580     3.4572 </r>
       <r>   -10.5448     5.3069     4.0564 </r>
       <r>   -10.4319     2.5886     4.3487 </r>
       <r>   -10.3190     4.9670     4.9095 </r>
       <r>   -10.2061     6.7006     5.6661 </r>
       <r>   -10.0932     5.9386     6.3366 </r>
       <r>    -9.9803     4.6680     6.8636 </r>
       <r>    -9.8673     4.4635     7.3676 </r>
       <r>    -9.7544     7.2793     8.1895 </r>
       <r>    -9.6415     5.4535     8.8053 </r>
       <r>    -9.5286     5.8348     9.4641 </r>
       <r>    -9.4157     7.4145    10.3012 </r>
       <r>    -9.3028     7.7370    11.1748 </r>
       <r>    -9.1899     6.6321    11.9236 </r>
       <r>    -9.0770     5.6205    12.5582 </r>
       <r>    -8.9641     4.5160    13.0681 </r>
       <r>    -8.8512     9.6537    14.1581 </r>
       <r>    -8.7383     8.1997    15.0839 </r>
       <r>    -8.6253     9.6808    16.1770 </r>
       <r>    -8.5124     6.4242    16.9024 </r>
       <r>    -8.3995     6.8992    17.6813 </r>
       <r>    -8.2866     8.1310    18.5994 </r>
       <r>    -8.1737     7.6735    19.4658 </r>
       <r>    -8.0608     8.0045    20.3696 </r>
       <r>    -7.9479    10.9877    21.6102 </r>
       <r>    -7.8350    10.6428    22.8119 </r>
       <r>    -7.7221     5.2446    23.4040 </r>
       <r>    -7.6092     9.6661    24.4954 </r>
       <r>    -7.4962    14.3380    26.1143 </r>
       <r>    -7.3833     8.3538    27.0575 </r>
       <r>    -7.2704     5.7326    27.7048 </r>
       <r>    -7.1575    10.5831    28.8997 </r>
       <r>    -7.0446    10.7523    30.1138 </r>
       <r>    -6.9317    11.6753    31.4320 </r>
       <r>    -6.8188    14.2351    33.0393 </r>
       <r>    -6.7059    12.4944    34.4500 </r>
       <r>    -6.5930    14.3024    36.0649 </r>
       <r>    -6.4801    11.9053    37.4091 </r>
       <r>    -6.3672     6.7838    38.1751 </r>
       <r>    -6.2542    17.5160    40.1528 </r>
       <r>    -6.1413    15.3484    41.8858 </r>
       <r>    -6.0284     9.1460    42.9184 </r>
       <r>    -5.9155     9.8628    44.0320 </r>
       <r>    -5.8026    16.0789    45.8475 </r>
       <r>    -5.6897    11.8986    47.1910 </r>
       <r>    -5.5768    11.4218    48.4806 </r>
       <r>    -5.4639     8.7401    49.4674 </r>
       <r>    -5.3510    11.6413    50.7818 </r>
       <r>    -5.2381    12.4840    52.1914 </r>
       <r>    -5.1252     3.4768    52.5839 </r>
       <r>    -5.0122    10.9198    53.8169 </r>
       <r>    -4.8993    10.9211    55.0500 </r>
       <r>    -4.7864     4.8658    55.5994 </r>
       <r>    -4.6735     9.8176    56.7079 </r>
       <r>    -4.5606    12.0323    58.0664 </r>
       <r>    -4.4477    11.6226    59.3787 </r>
       <r>    -4.3348     7.5525    60.2315 </r>
       <r>    -4.2219     3.4184    60.6175 </r>
       <r>    -4.1090     5.1465    61.1985 </r>
       <r>    -3.9961     4.4775    61.7041 </r>
       <r>    -3.8832     2.6788    62.0066 </r>
       <r>    -3.7702     6.9939    62.7962 </r>
       <r>    -3.6573    12.2031    64.1741 </r>
       <r>    -3.5444    11.1826    65.4367 </r>
       <r>    -3.4315     5.2271    66.0269 </r>
       <r>    -3.3186     7.9594    66.9256 </r>
       <r>    -3.2057    10.7613    68.1406 </r>
       <r>    -3.0928    11.5323    69.4427 </r>
       <r>    -2.9799     6.8737    70.2188 </r>
       <r>    -2.8670     8.8488    71.2179 </r>
       <r>    -2.7541    15.1632    72.9300 </r>
       <r>    -2.6412    10.0644    74.0664 </r>
       <r>    -2.5282    20.5974    76.3920 </r>
       <r>    -2.4153    45.4094    81.5191 </r>
       <r>    -2.3024    26.6654    84.5299 </r>
       <r>    -2.1895     8.2194    85.4580 </r>
       <r>    -2.0766    11.4253    86.7480 </r>
       <r>    -1.9637    17.1544    88.6849 </r>
       <r>    -1.8508     8.3450    89.6271 </r>
       <r>    -1.7379     9.5353    90.7037 </r>
       <r>    -1.6250    15.3113    92.4325 </r>
       <r>    -1.5121    13.0770    93.9090 </r>
       <r>    -1.3992    11.8925    95.2518 </r>
       <r>    -1.2862     9.9203    96.3719 </r>
       <r>    -1.1733    12.6039    97.7950 </r>
       <r>    -1.0604    15.8048    99.5795 </r>
       <r>    -0.9475    10.1402   100.7244 </r>
       <r>    -0.8346     3.5243   101.1224 </r>
       <r>    -0.7217     5.2612   101.7164 </r>
       <r>    -0.6088     5.0562   102.2873 </r>
       <r>    -0.4959    15.3323   104.0184 </r>
       <r>    -0.3830     7.3885   104.8527 </r>
       <r>    -0.2701     5.9768   105.5275 </r>
       <r>    -0.1572     9.1946   106.5657 </r>
       <r>    -0.0442    10.2082   107.7183 </r>
       <r>     0.0687    14.9386   109.4050 </r>
       <r>     0.1816    15.3873   111.1423 </r>
       <r>     0.2945    14.0121   112.7244 </r>
       <r>     0.4074    16.3064   114.5656 </r>
       <r>     0.5203    17.4066   116.5309 </r>
       <r>     0.6332    15.3565   118.2648 </r>
       <r>     0.7461    22.4104   120.7952 </r>
       <r>     0.8590    18.5501   122.8896 </r>
       <r>     0.9719    11.1700   124.1508 </r>
       <r>     1.0848    25.3602   127.0142 </r>
       <r>     1.1978    21.2501   129.4136 </r>
       <r>     1.3107     7.5404   130.2650 </r>
       <r>     1.4236    20.9528   132.6307 </r>
       <r>     1.5365    22.3014   135.1488 </r>
       <r>     1.6494    26.6964   138.1630 </r>
       <r>     1.7623    11.7922   139.4945 </r>
       <r>     1.8752    11.7888   140.8255 </r>
       <r>     1.9881    20.2661   143.1138 </r>
       <r>     2.1010    23.3163   145.7464 </r>
       <r>     2.2139    24.5702   148.5206 </r>
       <r>     2.3268    24.6212   151.3006 </r>
       <r>     2.4398    21.7332   153.7544 </r>
       <r>     2.5527    28.6987   156.9948 </r>
       <r>     2.6656    25.2595   159.8468 </r>
       <r>     2.7785    23.9138   162.5469 </r>
       <r>     2.8914    16.2931   164.3865 </r>
       <r>     3.0043    30.8150   167.8658 </r>
       <r>     3.1172    33.4674   171.6446 </r>
       <r>     3.2301    39.3612   176.0888 </r>
       <r>     3.3430    24.4196   178.8460 </r>
       <r>     3.4559    12.3775   180.2436 </r>
       <r>     3.5689    24.3538   182.9933 </r>
       <r>     3.6818    33.0384   186.7237 </r>
       <r>     3.7947    19.5155   188.9272 </r>
       <r>     3.9076    28.2093   192.1123 </r>
       <r>     4.0205    29.9813   195.4974 </r>
       <r>     4.1334    25.2857   198.3524 </r>
       <r>     4.2463    19.6847   200.5750 </r>
       <r>     4.3592    25.1119   203.4104 </r>
       <r>     4.4721    24.8048   206.2111 </r>
       <r>     4.5850    23.8333   208.9021 </r>
       <r>     4.6979    28.3738   212.1057 </r>
       <r>     4.8109    17.1149   214.0382 </r>
       <r>     4.9238    21.2031   216.4322 </r>
       <r>     5.0367    24.9197   219.2458 </r>
       <r>     5.1496    26.3849   222.2249 </r>
       <r>     5.2625    28.1418   225.4024 </r>
       <r>     5.3754    21.0096   227.7746 </r>
       <r>     5.4883    15.1533   229.4855 </r>
       <r>     5.6012    16.6677   231.3675 </r>
       <r>     5.7141    23.6743   234.0405 </r>
       <r>     5.8270    33.2474   237.7945 </r>
       <r>     5.9399    14.2843   239.4073 </r>
       <r>     6.0529     9.0889   240.4335 </r>
       <r>     6.1658    13.9604   242.0098 </r>
       <r>     6.2787    14.1116   243.6031 </r>
       <r>     6.3916     8.3276   244.5433 </r>
       <r>     6.5045    15.4363   246.2862 </r>
       <r>     6.6174    11.4953   247.5842 </r>
       <r>     6.7303     6.5807   248.3272 </r>
       <r>     6.8432     8.8786   249.3297 </r>
       <r>     6.9561     8.3329   250.2705 </r>
       <r>     7.0690     6.9952   251.0604 </r>
       <r>     7.1819     7.6722   251.9266 </r>
       <r>     7.2949     5.1148   252.5041 </r>
       <r>     7.4078     5.0593   253.0754 </r>
       <r>     7.5207     7.2097   253.8894 </r>
       <r>     7.6336     4.6712   254.4168 </r>
       <r>     7.7465     2.2969   254.6762 </r>
       <r>     7.8594     3.3921   255.0592 </r>
       <r>     7.9723     3.7538   255.4830 </r>
       <r>     8.0852     2.7987   255.7990 </r>
       <r>     8.1981     1.0322   255.9155 </r>
       <r>     8.3110     0.7112   255.9958 </r>
       <r>     8.4239     0.0368   256.0000 </r>
       <r>     8.5369     0.0000   256.0000 </r>
       <r>     8.6498     0.0000   256.0000 </r>
       <r>     8.7627     0.0000   256.0000 </r>
       <r>     8.8756     0.0000   256.0000 </r>
       <r>     8.9885     0.0000   256.0000 </r>
       <r>     9.1014     0.0000   256.0000 </r>
       <r>     9.2143     0.0000   256.0000 </r>
       <r>     9.3272     0.0000   256.0000 </r>
       <r>     9.4401     0.0000   256.0000 </r>
       <r>     9.5530     0.0000   256.0000 </r>
       <r>     9.6659     0.0000   256.0000 </r>
       <r>     9.7789     0.0000   256.0000 </r>
       <r>     9.8918     0.0000   256.0000 </r>
       <r>    10.0047     0.0000   256.0000 </r>
       <r>    10.1176     0.0000   256.0000 </r>
       <r>    10.2305     0.0000   256.0000 </r>
       <r>    10.3434     0.0000   256.0000 </r>
       <r>    10.4563     0.0000   256.0000 </r>
       <r>    10.5692     0.0000   256.0000 </r>
       <r>    10.6821     0.0000   256.0000 </r>
       <r>    10.7950     0.0000   256.0000 </r>
       <r>    10.9079     0.0000   256.0000 </r>
       <r>    11.0209     0.0000   256.0000 </r>
       <r>    11.1338     0.0000   256.0000 </r>
       <r>    11.2467     0.0000   256.0000 </r>
       <r>    11.3596     0.0000   256.0000 </r>
       <r>    11.4725     0.0000   256.0000 </r>
       <r>    11.5854     0.0000   256.0000 </r>
       <r>    11.6983     0.0000   256.0000 </r>
       <r>    11.8112     0.0000   256.0000 </r>
       <r>    11.9241     0.0000   256.0000 </r>
       <r>    12.0370     0.0004   256.0000 </r>
       <r>    12.1499     0.2283   256.0258 </r>
       <r>    12.2629     1.0975   256.1497 </r>
       <r>    12.3758     0.9300   256.2547 </r>
       <r>    12.4887     4.5317   256.7664 </r>
       <r>    12.6016     4.9393   257.3241 </r>
       <r>    12.7145     7.2025   258.1373 </r>
       <r>    12.8274     5.9445   258.8085 </r>
       <r>    12.9403     4.0928   259.2706 </r>
       <r>    13.0532     3.2956   259.6427 </r>
       <r>    13.1661    11.5038   260.9416 </r>
       <r>    13.2790    22.1686   263.4446 </r>
       <r>    13.3919     9.9086   264.5634 </r>
       <r>    13.5049     9.7603   265.6654 </r>
       <r>    13.6178    11.0378   266.9117 </r>
       <r>    13.7307    16.4888   268.7734 </r>
       <r>    13.8436    12.2454   270.1561 </r>
       <r>    13.9565    13.6291   271.6949 </r>
       <r>    14.0694    21.8491   274.1619 </r>
       <r>    14.1823    18.9855   276.3055 </r>
       <r>    14.2952    22.9476   278.8965 </r>
       <r>    14.4081    14.3664   280.5186 </r>
       <r>    14.5210    19.0437   282.6688 </r>
       <r>    14.6340    21.8432   285.1351 </r>
       <r>    14.7469    23.6631   287.8069 </r>
       <r>    14.8598    23.8260   290.4971 </r>
       <r>    14.9727    14.2474   292.1057 </r>
       <r>    15.0856    23.7892   294.7917 </r>
       <r>    15.1985    30.7545   298.2642 </r>
       <r>    15.3114    12.8219   299.7119 </r>
       <r>    15.4243    24.2370   302.4485 </r>
       <r>    15.5372    39.4859   306.9068 </r>
       <r>    15.6501    48.0166   312.3283 </r>
       <r>    15.7630    39.2076   316.7552 </r>
       <r>    15.8760    35.1867   320.7281 </r>
       <r>    15.9889    25.9535   323.6585 </r>
       <r>    16.1018    33.1794   327.4048 </r>
       <r>    16.2147    43.2275   332.2856 </r>
       <r>    16.3276    40.6724   336.8778 </r>
       <r>    16.4405    43.8683   341.8310 </r>
       <r>    16.5534    33.2331   345.5833 </r>
       <r>    16.6663    38.0473   349.8792 </r>
       <r>    16.7792    38.9525   354.2773 </r>
       <r>    16.8921    29.8378   357.6462 </r>
       <r>    17.0050    18.8606   359.7758 </r>
       <r>    17.1180    16.5298   361.6421 </r>
       <r>    17.2309    25.1693   364.4840 </r>
       <r>    17.3438    35.4704   368.4889 </r>
       <r>    17.4567    34.1646   372.3464 </r>
       <r>    17.5696    25.7116   375.2495 </r>
       <r>    17.6825    14.9240   376.9346 </r>
       <r>    17.7954    18.3611   379.0077 </r>
       <r>    17.9083    13.6567   380.5497 </r>
       <r>    18.0212     5.0911   381.1245 </r>
       <r>    18.1341     6.6297   381.8731 </r>
       <r>    18.2470     7.2995   382.6972 </r>
       <r>    18.3600     3.6635   383.1109 </r>
       <r>    18.4729     1.0377   383.2280 </r>
       <r>    18.5858     1.5334   383.4012 </r>
       <r>    18.6987     0.0591   383.4079 </r>
       <r>    18.8116     0.8789   383.5071 </r>
       <r>    18.9245     3.1982   383.8682 </r>
       <r>    19.0374     1.1420   383.9971 </r>
       <r>    19.1503     0.0253   384.0000 </r>
       <r>    19.2632     0.0000   384.0000 </r>
       <r>    19.3761     0.0000   384.0000 </r>
       <r>    19.4890     0.0000   384.0000 </r>
       <r>    19.6020     0.0000   384.0000 </r>
       <r>    19.7149     0.0000   384.0000 </r>
       <r>    19.8278     0.0000   384.0000 </r>
       <r>    19.9407     0.0000   384.0000 </r>
       <r>    20.0536     0.0000   384.0000 </r>
       <r>    20.1665     0.0000   384.0000 </r>
       <r>    20.2794     0.0000   384.0000 </r>
       <r>    20.3923     0.0000   384.0000 </r>
       <r>    20.5052     0.0000   384.0000 </r>
      </set>
     </set>
    </array>
   </total>
  </dos>
 </calculation>
 <structure name="finalpos" >
  <crystal>
   <varray name="basis" >
    <v>       7.39226185       0.00000000       0.00000000 </v>
    <v>       0.00000000       7.39226185       0.00000000 </v>
    <v>       0.00000000       0.00000000       7.39226185 </v>
   </varray>
   <i name="volume">    403.95410496 </i>
   <varray name="rec_basis" >
    <v>       0.13527659       0.00000000       0.00000000 </v>
    <v>       0.00000000       0.13527659       0.00000000 </v>
    <v>       0.00000000       0.00000000       0.13527659 </v>
   </varray>
  </crystal>
  <varray name="positions" >
   <v>       0.12500000       0.37500000       0.12500000 </v>
   <v>       0.62500000       0.37500000       0.12500000 </v>
   <v>       0.12500000       0.87500000       0.12500000 </v>
   <v>       0.62500000       0.87500000       0.12500000 </v>
   <v>       0.12500000       0.37500000       0.62500000 </v>
   <v>       0.62500000       0.37500000       0.62500000 </v>
   <v>       0.12500000       0.87500000       0.62500000 </v>
   <v>       0.62500000       0.87500000       0.62500000 </v>
   <v>       0.00000000       0.00000000       0.25000000 </v>
   <v>       0.50000000       0.00000000       0.25000000 </v>
   <v>       0.00000000       0.50000000       0.25000000 </v>
   <v>       0.50000000       0.50000000       0.25000000 </v>
   <v>       0.00000000       0.00000000       0.75000000 </v>
   <v>       0.50000000       0.00000000       0.75000000 </v>
   <v>       0.00000000       0.50000000       0.75000000 </v>
   <v>       0.50000000       0.50000000       0.75000000 </v>
   <v>       0.12500000       0.12500000       0.37500000 </v>
   <v>       0.62500000       0.12500000       0.37500000 </v>
   <v>       0.12500000       0.62500000       0.37500000 </v>
   <v>       0.62500000       0.62500000       0.37500000 </v>
   <v>       0.12500000       0.12500000       0.87500000 </v>
   <v>       0.62500000       0.12500000       0.87500000 </v>
   <v>       0.12500000       0.62500000       0.87500000 </v>
   <v>       0.62500000       0.62500000       0.87500000 </v>
   <v>       0.00000000       0.25000000       0.00000000 </v>
   <v>       0.50000000       0.25000000       0.00000000 </v>
   <v>       0.00000000       0.75000000       0.00000000 </v>
   <v>       0.50000000       0.75000000       0.00000000 </v>
   <v>       0.00000000       0.25000000       0.50000000 </v>
   <v>       0.50000000       0.25000000       0.50000000 </v>
   <v>       0.00000000       0.75000000       0.50000000 </v>
   <v>       0.50000000       0.75000000       0.50000000 </v>
   <v>       0.37500000       0.37500000       0.37500000 </v>
   <v>       0.87500000       0.37500000       0.37500000 </v>
   <v>       0.37500000       0.87500000       0.37500000 </v>
   <v>       0.87500000       0.87500000       0.37500000 </v>
   <v>       0.37500000       0.37500000       0.87500000 </v>
   <v>       0.87500000       0.37500000       0.87500000 </v>
   <v>       0.37500000       0.87500000       0.87500000 </v>
   <v>       0.87500000       0.87500000       0.87500000 </v>
   <v>       0.25000000       0.00000000       0.00000000 </v>
   <v>       0.75000000       0.00000000       0.00000000 </v>
   <v>       0.25000000       0.50000000       0.00000000 </v>
   <v>       0.75000000       0.50000000       0.00000000 </v>
   <v>       0.25000000       0.00000000       0.50000000 </v>
   <v>       0.75000000       0.00000000       0.50000000 </v>
   <v>       0.25000000       0.50000000       0.50000000 </v>
   <v>       0.75000000       0.50000000       0.50000000 </v>
   <v>       0.37500000       0.12500000       0.12500000 </v>
   <v>       0.87500000       0.12500000       0.12500000 </v>
   <v>       0.37500000       0.62500000       0.12500000 </v>
   <v>       0.87500000       0.62500000       0.12500000 </v>
   <v>       0.37500000       0.12500000       0.62500000 </v>
   <v>       0.87500000       0.12500000       0.62500000 </v>
   <v>       0.37500000       0.62500000       0.62500000 </v>
   <v>       0.87500000       0.62500000       0.62500000 </v>
   <v>       0.25000000       0.25000000       0.25000000 </v>
   <v>       0.75000000       0.25000000       0.25000000 </v>
   <v>       0.25000000       0.75000000       0.25000000 </v>
   <v>       0.75000000       0.75000000       0.25000000 </v>
   <v>       0.25000000       0.25000000       0.75000000 </v>
   <v>       0.75000000       0.25000000       0.75000000 </v>
   <v>       0.25000000       0.75000000       0.75000000 </v>
   <v>       0.75000000       0.75000000       0.75000000 </v>
  </varray>
 </structure>
</modeling>
