  64  64   0   0
  0.6226254E+01  0.7358720E-09  0.7358720E-09  0.7358720E-09  0.5000000E-15
  1.000000000000000E-004
  CAR 
 unknown system                          
     20.89110913    -13.37255519  301      8.79175267      1.00000000
    -13.373  0.0000E+00  0.0000E+00
    -13.258  0.0000E+00  0.0000E+00
    -13.144  0.0000E+00  0.0000E+00
    -13.030  0.0000E+00  0.0000E+00
    -12.916  0.0000E+00  0.0000E+00
    -12.801  0.0000E+00  0.0000E+00
    -12.687  0.0000E+00  0.0000E+00
    -12.573  0.0000E+00  0.0000E+00
    -12.459  0.0000E+00  0.0000E+00
    -12.345  0.0000E+00  0.0000E+00
    -12.230  0.0000E+00  0.0000E+00
    -12.116  0.2208E-13  0.2522E-14
    -12.002  0.2014E-06  0.2300E-07
    -11.888  0.2919E-02  0.3334E-03
    -11.774  0.2792E+00  0.3222E-01
    -11.659  0.1168E+01  0.1657E+00
    -11.545  0.1741E+01  0.3645E+00
    -11.431  0.2401E+01  0.6387E+00
    -11.317  0.2588E+01  0.9343E+00
    -11.203  0.2935E+01  0.1269E+01
    -11.088  0.3531E+01  0.1673E+01
    -10.974  0.2859E+01  0.1999E+01
    -10.860  0.4414E+01  0.2503E+01
    -10.746  0.3769E+01  0.2934E+01
    -10.631  0.4311E+01  0.3426E+01
    -10.517  0.4346E+01  0.3923E+01
    -10.403  0.5228E+01  0.4520E+01
    -10.289  0.4924E+01  0.5082E+01
    -10.175  0.3836E+01  0.5520E+01
    -10.060  0.6214E+01  0.6230E+01
     -9.946  0.6076E+01  0.6924E+01
     -9.832  0.4880E+01  0.7481E+01
     -9.718  0.5744E+01  0.8137E+01
     -9.604  0.6288E+01  0.8855E+01
     -9.489  0.6871E+01  0.9640E+01
     -9.375  0.5380E+01  0.1025E+02
     -9.261  0.7735E+01  0.1114E+02
     -9.147  0.5156E+01  0.1173E+02
     -9.032  0.7186E+01  0.1255E+02
     -8.918  0.7378E+01  0.1339E+02
     -8.804  0.9078E+01  0.1443E+02
     -8.690  0.5827E+01  0.1509E+02
     -8.576  0.6310E+01  0.1581E+02
     -8.461  0.9176E+01  0.1686E+02
     -8.347  0.7711E+01  0.1774E+02
     -8.233  0.8835E+01  0.1875E+02
     -8.119  0.7284E+01  0.1958E+02
     -8.005  0.8980E+01  0.2061E+02
     -7.890  0.8186E+01  0.2154E+02
     -7.776  0.8340E+01  0.2250E+02
     -7.662  0.9286E+01  0.2356E+02
     -7.548  0.1001E+02  0.2470E+02
     -7.434  0.1040E+02  0.2589E+02
     -7.319  0.8835E+01  0.2690E+02
     -7.205  0.8815E+01  0.2790E+02
     -7.091  0.8880E+01  0.2892E+02
     -6.977  0.1301E+02  0.3040E+02
     -6.862  0.1106E+02  0.3167E+02
     -6.748  0.1105E+02  0.3293E+02
     -6.634  0.1103E+02  0.3419E+02
     -6.520  0.1409E+02  0.3580E+02
     -6.406  0.1156E+02  0.3712E+02
     -6.291  0.1440E+02  0.3876E+02
     -6.177  0.1107E+02  0.4003E+02
     -6.063  0.1338E+02  0.4156E+02
     -5.949  0.1521E+02  0.4329E+02
     -5.835  0.1099E+02  0.4455E+02
     -5.720  0.9278E+01  0.4561E+02
     -5.606  0.1221E+02  0.4700E+02
     -5.492  0.9955E+01  0.4814E+02
     -5.378  0.1036E+02  0.4932E+02
     -5.263  0.1377E+02  0.5089E+02
     -5.149  0.7355E+01  0.5173E+02
     -5.035  0.1168E+02  0.5307E+02
     -4.921  0.8137E+01  0.5400E+02
     -4.807  0.9412E+01  0.5507E+02
     -4.692  0.8738E+01  0.5607E+02
     -4.578  0.7177E+01  0.5689E+02
     -4.464  0.7071E+01  0.5770E+02
     -4.350  0.9012E+01  0.5873E+02
     -4.236  0.8793E+01  0.5973E+02
     -4.121  0.8525E+01  0.6071E+02
     -4.007  0.6527E+01  0.6145E+02
     -3.893  0.3787E+01  0.6188E+02
     -3.779  0.4973E+01  0.6245E+02
     -3.665  0.8323E+01  0.6340E+02
     -3.550  0.8739E+01  0.6440E+02
     -3.436  0.9684E+01  0.6551E+02
     -3.322  0.6943E+01  0.6630E+02
     -3.208  0.8273E+01  0.6724E+02
     -3.093  0.7749E+01  0.6813E+02
     -2.979  0.8732E+01  0.6913E+02
     -2.865  0.1117E+02  0.7040E+02
     -2.751  0.7870E+01  0.7130E+02
     -2.637  0.1763E+02  0.7332E+02
     -2.522  0.2463E+02  0.7613E+02
     -2.408  0.2942E+02  0.7949E+02
     -2.294  0.1810E+02  0.8156E+02
     -2.180  0.1435E+02  0.8320E+02
     -2.066  0.1506E+02  0.8492E+02
     -1.951  0.1542E+02  0.8668E+02
     -1.837  0.1374E+02  0.8825E+02
     -1.723  0.2242E+02  0.9081E+02
     -1.609  0.1144E+02  0.9211E+02
     -1.494  0.9707E+01  0.9322E+02
     -1.380  0.1100E+02  0.9448E+02
     -1.266  0.9129E+01  0.9552E+02
     -1.152  0.9573E+01  0.9661E+02
     -1.038  0.1125E+02  0.9790E+02
     -0.923  0.9686E+01  0.9901E+02
     -0.809  0.1060E+02  0.1002E+03
     -0.695  0.1159E+02  0.1015E+03
     -0.581  0.1026E+02  0.1027E+03
     -0.467  0.4008E+01  0.1032E+03
     -0.352  0.5506E+01  0.1038E+03
     -0.238  0.9497E+01  0.1049E+03
     -0.124  0.1130E+02  0.1062E+03
     -0.010  0.8477E+01  0.1071E+03
      0.104  0.9592E+01  0.1082E+03
      0.219  0.1559E+02  0.1100E+03
      0.333  0.1818E+02  0.1121E+03
      0.447  0.1382E+02  0.1137E+03
      0.561  0.1352E+02  0.1152E+03
      0.676  0.1754E+02  0.1172E+03
      0.790  0.2455E+02  0.1200E+03
      0.904  0.1899E+02  0.1222E+03
      1.018  0.1351E+02  0.1237E+03
      1.132  0.1679E+02  0.1257E+03
      1.247  0.1714E+02  0.1276E+03
      1.361  0.2171E+02  0.1301E+03
      1.475  0.1820E+02  0.1322E+03
      1.589  0.1492E+02  0.1339E+03
      1.703  0.1891E+02  0.1360E+03
      1.818  0.1767E+02  0.1381E+03
      1.932  0.2245E+02  0.1406E+03
      2.046  0.1776E+02  0.1426E+03
      2.160  0.2311E+02  0.1453E+03
      2.275  0.1567E+02  0.1471E+03
      2.389  0.2273E+02  0.1497E+03
      2.503  0.2839E+02  0.1529E+03
      2.617  0.1896E+02  0.1551E+03
      2.731  0.2574E+02  0.1580E+03
      2.846  0.2603E+02  0.1610E+03
      2.960  0.2618E+02  0.1640E+03
      3.074  0.3322E+02  0.1678E+03
      3.188  0.2533E+02  0.1707E+03
      3.302  0.2780E+02  0.1738E+03
      3.417  0.1934E+02  0.1761E+03
      3.531  0.2884E+02  0.1793E+03
      3.645  0.2384E+02  0.1821E+03
      3.759  0.3064E+02  0.1856E+03
      3.873  0.2765E+02  0.1887E+03
      3.988  0.2157E+02  0.1912E+03
      4.102  0.1854E+02  0.1933E+03
      4.216  0.2719E+02  0.1964E+03
      4.330  0.3246E+02  0.2001E+03
      4.445  0.2303E+02  0.2028E+03
      4.559  0.1779E+02  0.2048E+03
      4.673  0.2341E+02  0.2075E+03
      4.787  0.2381E+02  0.2102E+03
      4.901  0.2988E+02  0.2136E+03
      5.016  0.2189E+02  0.2161E+03
      5.130  0.1777E+02  0.2181E+03
      5.244  0.2279E+02  0.2207E+03
      5.358  0.2312E+02  0.2234E+03
      5.472  0.2705E+02  0.2265E+03
      5.587  0.2242E+02  0.2290E+03
      5.701  0.1699E+02  0.2310E+03
      5.815  0.1899E+02  0.2331E+03
      5.929  0.2746E+02  0.2363E+03
      6.044  0.1859E+02  0.2384E+03
      6.158  0.1041E+02  0.2396E+03
      6.272  0.1609E+02  0.2414E+03
      6.386  0.1345E+02  0.2429E+03
      6.500  0.1294E+02  0.2444E+03
      6.615  0.1148E+02  0.2457E+03
      6.729  0.8125E+01  0.2467E+03
      6.843  0.1043E+02  0.2479E+03
      6.957  0.1003E+02  0.2490E+03
      7.071  0.8257E+01  0.2499E+03
      7.186  0.5988E+01  0.2506E+03
      7.300  0.7400E+01  0.2515E+03
      7.414  0.6668E+01  0.2522E+03
      7.528  0.6775E+01  0.2530E+03
      7.642  0.3877E+01  0.2534E+03
      7.757  0.5100E+01  0.2540E+03
      7.871  0.4416E+01  0.2545E+03
      7.985  0.3878E+01  0.2550E+03
      8.099  0.3167E+01  0.2553E+03
      8.214  0.2178E+01  0.2556E+03
      8.328  0.2434E+01  0.2559E+03
      8.442  0.9705E+00  0.2560E+03
      8.556  0.2001E+00  0.2560E+03
      8.670  0.8580E-03  0.2560E+03
      8.785  0.7981E-08  0.2560E+03
      8.899  0.9113E-16  0.2560E+03
      9.013  0.0000E+00  0.2560E+03
      9.127  0.0000E+00  0.2560E+03
      9.241  0.0000E+00  0.2560E+03
      9.356  0.0000E+00  0.2560E+03
      9.470  0.0000E+00  0.2560E+03
      9.584  0.0000E+00  0.2560E+03
      9.698  0.0000E+00  0.2560E+03
      9.813  0.0000E+00  0.2560E+03
      9.927  0.0000E+00  0.2560E+03
     10.041  0.0000E+00  0.2560E+03
     10.155  0.0000E+00  0.2560E+03
     10.269  0.0000E+00  0.2560E+03
     10.384  0.0000E+00  0.2560E+03
     10.498  0.0000E+00  0.2560E+03
     10.612  0.0000E+00  0.2560E+03
     10.726  0.0000E+00  0.2560E+03
     10.840  0.0000E+00  0.2560E+03
     10.955  0.0000E+00  0.2560E+03
     11.069  0.0000E+00  0.2560E+03
     11.183  0.0000E+00  0.2560E+03
     11.297  0.0000E+00  0.2560E+03
     11.411  0.0000E+00  0.2560E+03
     11.526  0.0000E+00  0.2560E+03
     11.640  0.0000E+00  0.2560E+03
     11.754  0.0000E+00  0.2560E+03
     11.868  0.0000E+00  0.2560E+03
     11.983  0.0000E+00  0.2560E+03
     12.097  0.1380E-11  0.2560E+03
     12.211  0.6207E-05  0.2560E+03
     12.325  0.2965E-01  0.2560E+03
     12.439  0.5504E+00  0.2561E+03
     12.554  0.1880E+01  0.2563E+03
     12.668  0.3670E+01  0.2567E+03
     12.782  0.4058E+01  0.2572E+03
     12.896  0.2936E+01  0.2575E+03
     13.010  0.6454E+01  0.2582E+03
     13.125  0.9225E+01  0.2593E+03
     13.239  0.9705E+01  0.2604E+03
     13.353  0.6807E+01  0.2612E+03
     13.467  0.5411E+01  0.2618E+03
     13.582  0.1413E+02  0.2634E+03
     13.696  0.1679E+02  0.2653E+03
     13.810  0.1274E+02  0.2668E+03
     13.924  0.1374E+02  0.2683E+03
     14.038  0.1493E+02  0.2701E+03
     14.153  0.1371E+02  0.2716E+03
     14.267  0.1442E+02  0.2733E+03
     14.381  0.1973E+02  0.2755E+03
     14.495  0.2359E+02  0.2782E+03
     14.609  0.1791E+02  0.2803E+03
     14.724  0.1435E+02  0.2819E+03
     14.838  0.2156E+02  0.2844E+03
     14.952  0.1898E+02  0.2865E+03
     15.066  0.2166E+02  0.2890E+03
     15.180  0.2184E+02  0.2915E+03
     15.295  0.2765E+02  0.2947E+03
     15.409  0.2111E+02  0.2971E+03
     15.523  0.2279E+02  0.2997E+03
     15.637  0.2753E+02  0.3028E+03
     15.752  0.3067E+02  0.3063E+03
     15.866  0.3276E+02  0.3101E+03
     15.980  0.2687E+02  0.3131E+03
     16.094  0.3063E+02  0.3166E+03
     16.208  0.4178E+02  0.3214E+03
     16.323  0.4315E+02  0.3263E+03
     16.437  0.4335E+02  0.3313E+03
     16.551  0.4554E+02  0.3365E+03
     16.665  0.4076E+02  0.3411E+03
     16.779  0.3159E+02  0.3447E+03
     16.894  0.2835E+02  0.3480E+03
     17.008  0.2510E+02  0.3508E+03
     17.122  0.2907E+02  0.3542E+03
     17.236  0.3804E+02  0.3585E+03
     17.351  0.2461E+02  0.3613E+03
     17.465  0.2979E+02  0.3647E+03
     17.579  0.2745E+02  0.3679E+03
     17.693  0.2671E+02  0.3709E+03
     17.807  0.2513E+02  0.3738E+03
     17.922  0.2128E+02  0.3762E+03
     18.036  0.1510E+02  0.3779E+03
     18.150  0.1306E+02  0.3794E+03
     18.264  0.1308E+02  0.3809E+03
     18.378  0.9171E+01  0.3820E+03
     18.493  0.3472E+01  0.3824E+03
     18.607  0.2163E+01  0.3826E+03
     18.721  0.4074E+01  0.3831E+03
     18.835  0.9405E+00  0.3832E+03
     18.950  0.3041E+01  0.3835E+03
     19.064  0.1936E+01  0.3838E+03
     19.178  0.1006E+01  0.3839E+03
     19.292  0.5076E+00  0.3839E+03
     19.406  0.6223E+00  0.3840E+03
     19.521  0.2470E-01  0.3840E+03
     19.635  0.2163E-05  0.3840E+03
     19.749  0.2019E-12  0.3840E+03
     19.863  0.0000E+00  0.3840E+03
     19.977  0.0000E+00  0.3840E+03
     20.092  0.0000E+00  0.3840E+03
     20.206  0.0000E+00  0.3840E+03
     20.320  0.0000E+00  0.3840E+03
     20.434  0.0000E+00  0.3840E+03
     20.548  0.0000E+00  0.3840E+03
     20.663  0.0000E+00  0.3840E+03
     20.777  0.0000E+00  0.3840E+03
     20.891  0.0000E+00  0.3840E+03
