mesh: [    48,    48,    48 ]
nqpoint: 2600   
reciprocal_lattice:
- [   0.27178640,   0.00000000,   0.00000000 ] # a*
- [   0.00000000,   0.27178640,   0.00000000 ] # b*
- [   0.00000000,   0.00000000,   0.27178640 ] # c*
natom:   8      
lattice:
- [     3.679360000000000,     0.000000000000000,     0.000000000000000 ] # a
- [     0.000000000000000,     3.679360000000000,     0.000000000000000 ] # b
- [     0.000000000000000,     0.000000000000000,     3.679360000000000 ] # c
points:
- symbol: C  # 1
  coordinates: [  0.250000000000000,  0.750000000000000,  0.250000000000000 ]
  mass: 12.010700
- symbol: C  # 2
  coordinates: [  0.000000000000000,  0.000000000000000,  0.500000000000000 ]
  mass: 12.010700
- symbol: C  # 3
  coordinates: [  0.250000000000000,  0.250000000000000,  0.750000000000000 ]
  mass: 12.010700
- symbol: C  # 4
  coordinates: [  0.000000000000000,  0.500000000000000,  0.000000000000000 ]
  mass: 12.010700
- symbol: C  # 5
  coordinates: [  0.750000000000000,  0.750000000000000,  0.750000000000000 ]
  mass: 12.010700
- symbol: C  # 6
  coordinates: [  0.500000000000000,  0.000000000000000,  0.000000000000000 ]
  mass: 12.010700
- symbol: C  # 7
  coordinates: [  0.750000000000000,  0.250000000000000,  0.250000000000000 ]
  mass: 12.010700
- symbol: C  # 8
  coordinates: [  0.500000000000000,  0.500000000000000,  0.500000000000000 ]
  mass: 12.010700

phonon:
- q-position: [    0.0104167,    0.0104167,    0.0104167 ]
  distance_from_gamma:  0.004903623
  weight: 8    
  band:
  - # 1
    frequency:     0.5595544642
  - # 2
    frequency:     0.5595544642
  - # 3
    frequency:     0.8111741862
  - # 4
    frequency:    22.7761701806
  - # 5
    frequency:    22.7761701806
  - # 6
    frequency:    22.7761701806
  - # 7
    frequency:    22.7869167015
  - # 8
    frequency:    22.7869167015
  - # 9
    frequency:    22.7869167015
  - # 10
    frequency:    27.4979409799
  - # 11
    frequency:    27.4979409799
  - # 12
    frequency:    27.4979409799
  - # 13
    frequency:    27.5008666788
  - # 14
    frequency:    27.5008666788
  - # 15
    frequency:    27.5008666788
  - # 16
    frequency:    32.7021750473
  - # 17
    frequency:    32.7021750473
  - # 18
    frequency:    32.7021750473
  - # 19
    frequency:    33.0070279543
  - # 20
    frequency:    33.0070279543
  - # 21
    frequency:    33.0070279543
  - # 22
    frequency:    35.3819393220
  - # 23
    frequency:    35.3819393220
  - # 24
    frequency:    35.3865467887

- q-position: [    0.0312500,    0.0104167,    0.0104167 ]
  distance_from_gamma:  0.009389724
  weight: 24   
  band:
  - # 1
    frequency:     1.0732709769
  - # 2
    frequency:     1.0751858529
  - # 3
    frequency:     1.5484622877
  - # 4
    frequency:    22.7241557975
  - # 5
    frequency:    22.7348493473
  - # 6
    frequency:    22.7821739521
  - # 7
    frequency:    22.7821739521
  - # 8
    frequency:    22.8143649487
  - # 9
    frequency:    22.8143649487
  - # 10
    frequency:    27.4935621437
  - # 11
    frequency:    27.4935621437
  - # 12
    frequency:    27.5023447638
  - # 13
    frequency:    27.5023447638
  - # 14
    frequency:    27.5398329760
  - # 15
    frequency:    27.5427691169
  - # 16
    frequency:    32.3807950801
  - # 17
    frequency:    32.6881268038
  - # 18
    frequency:    32.6881268038
  - # 19
    frequency:    32.9928788565
  - # 20
    frequency:    32.9928788565
  - # 21
    frequency:    33.2952808091
  - # 22
    frequency:    35.3705580182
  - # 23
    frequency:    35.3711500575
  - # 24
    frequency:    35.3907118208

- q-position: [    0.0520833,    0.0104167,    0.0104167 ]
  distance_from_gamma:  0.014710870
  weight: 24   
  band:
  - # 1
    frequency:     1.6841453257
  - # 2
    frequency:     1.6850998647
  - # 3
    frequency:     2.4211075156
  - # 4
    frequency:    22.6225554053
  - # 5
    frequency:    22.6331536508
  - # 6
    frequency:    22.8048359238
  - # 7
    frequency:    22.8048359238
  - # 8
    frequency:    22.8583287122
  - # 9
    frequency:    22.8583287122
  - # 10
    frequency:    27.4877062244
  - # 11
    frequency:    27.4877062244
  - # 12
    frequency:    27.5023615392
  - # 13
    frequency:    27.5023615392
  - # 14
    frequency:    27.6211325905
  - # 15
    frequency:    27.6241082928
  - # 16
    frequency:    32.0425917659
  - # 17
    frequency:    32.6601702395
  - # 18
    frequency:    32.6601702395
  - # 19
    frequency:    32.9647051457
  - # 20
    frequency:    32.9647051457
  - # 21
    frequency:    33.5672664041
  - # 22
    frequency:    35.3478168544
  - # 23
    frequency:    35.3485070771
  - # 24
    frequency:    35.4000658185

- q-position: [    0.0729167,    0.0104167,    0.0104167 ]
  distance_from_gamma:  0.020218157
  weight: 24   
  band:
  - # 1
    frequency:     2.3148674578
  - # 2
    frequency:     2.3149720792
  - # 3
    frequency:     3.3227515396
  - # 4
    frequency:    22.4755977198
  - # 5
    frequency:    22.4860748210
  - # 6
    frequency:    22.8439242481
  - # 7
    frequency:    22.8439242481
  - # 8
    frequency:    22.9184844987
  - # 9
    frequency:    22.9184844987
  - # 10
    frequency:    27.4803312272
  - # 11
    frequency:    27.4803312272
  - # 12
    frequency:    27.5008819733
  - # 13
    frequency:    27.5008819733
  - # 14
    frequency:    27.7375017235
  - # 15
    frequency:    27.7405814294
  - # 16
    frequency:    31.6874583298
  - # 17
    frequency:    32.6185864329
  - # 18
    frequency:    32.6185864329
  - # 19
    frequency:    32.9227567501
  - # 20
    frequency:    32.9227567501
  - # 21
    frequency:    33.8231675080
  - # 22
    frequency:    35.3137587376
  - # 23
    frequency:    35.3144857589
  - # 24
    frequency:    35.4140529809

- q-position: [    0.0937500,    0.0104167,    0.0104167 ]
  distance_from_gamma:  0.025792624
  weight: 24   
  band:
  - # 1
    frequency:     2.9508832059
  - # 2
    frequency:     2.9514737060
  - # 3
    frequency:     4.2327659665
  - # 4
    frequency:    22.2883901354
  - # 5
    frequency:    22.2987365486
  - # 6
    frequency:    22.8990669115
  - # 7
    frequency:    22.8990669115
  - # 8
    frequency:    22.9943742461
  - # 9
    frequency:    22.9943742461
  - # 10
    frequency:    27.4713764823
  - # 11
    frequency:    27.4713764823
  - # 12
    frequency:    27.4978468808
  - # 13
    frequency:    27.4978468808
  - # 14
    frequency:    27.8836699669
  - # 15
    frequency:    27.8869715026
  - # 16
    frequency:    31.3153007595
  - # 17
    frequency:    32.5638001302
  - # 18
    frequency:    32.5638001302
  - # 19
    frequency:    32.8674109962
  - # 20
    frequency:    32.8674109962
  - # 21
    frequency:    34.0632015429
  - # 22
    frequency:    35.2684480758
  - # 23
    frequency:    35.2691995510
  - # 24
    frequency:    35.4324407457

- q-position: [    0.1145833,    0.0104167,    0.0104167 ]
  distance_from_gamma:  0.031398510
  weight: 24   
  band:
  - # 1
    frequency:     3.5883430763
  - # 2
    frequency:     3.5895320756
  - # 3
    frequency:     5.1443142555
  - # 4
    frequency:    22.0660907425
  - # 5
    frequency:    22.0763090494
  - # 6
    frequency:    22.9697521010
  - # 7
    frequency:    22.9697521010
  - # 8
    frequency:    23.0854078588
  - # 9
    frequency:    23.0854078588
  - # 10
    frequency:    27.4607614266
  - # 11
    frequency:    27.4607614266
  - # 12
    frequency:    27.4931690951
  - # 13
    frequency:    27.4931690951
  - # 14
    frequency:    28.0542495616
  - # 15
    frequency:    28.0579769392
  - # 16
    frequency:    30.9260739650
  - # 17
    frequency:    32.4963836253
  - # 18
    frequency:    32.4963836253
  - # 19
    frequency:    32.7991756328
  - # 20
    frequency:    32.7991756328
  - # 21
    frequency:    34.2876038184
  - # 22
    frequency:    35.2119708294
  - # 23
    frequency:    35.2127442941
  - # 24
    frequency:    35.4549772552

- q-position: [    0.1354167,    0.0104167,    0.0104167 ]
  distance_from_gamma:  0.037021545
  weight: 24   
  band:
  - # 1
    frequency:     4.2252932364
  - # 2
    frequency:     4.2270197798
  - # 3
    frequency:     6.0541705624
  - # 4
    frequency:    21.8133762945
  - # 5
    frequency:    21.8234759398
  - # 6
    frequency:    23.0553284611
  - # 7
    frequency:    23.0553284611
  - # 8
    frequency:    23.1908657882
  - # 9
    frequency:    23.1908657882
  - # 10
    frequency:    27.4483838861
  - # 11
    frequency:    27.4483838861
  - # 12
    frequency:    27.4867287300
  - # 13
    frequency:    27.4867287300
  - # 14
    frequency:    28.2442184751
  - # 15
    frequency:    28.2487458724
  - # 16
    frequency:    30.5198359501
  - # 17
    frequency:    32.4170621176
  - # 18
    frequency:    32.4170621176
  - # 19
    frequency:    32.7186930247
  - # 20
    frequency:    32.7186930247
  - # 21
    frequency:    34.4966265144
  - # 22
    frequency:    35.1444345737
  - # 23
    frequency:    35.1452304336
  - # 24
    frequency:    35.4813614702

- q-position: [    0.1562500,    0.0104167,    0.0104167 ]
  distance_from_gamma:  0.042654948
  weight: 24   
  band:
  - # 1
    frequency:     4.8605220655
  - # 2
    frequency:     4.8627450115
  - # 3
    frequency:     6.9603826299
  - # 4
    frequency:    21.5342074105
  - # 5
    frequency:    21.5442002211
  - # 6
    frequency:    23.1550047998
  - # 7
    frequency:    23.1550047998
  - # 8
    frequency:    23.3099012150
  - # 9
    frequency:    23.3099012150
  - # 10
    frequency:    27.4341181086
  - # 11
    frequency:    27.4341181086
  - # 12
    frequency:    27.4783676298
  - # 13
    frequency:    27.4783676298
  - # 14
    frequency:    28.4489755158
  - # 15
    frequency:    28.4551136167
  - # 16
    frequency:    30.0969302892
  - # 17
    frequency:    32.3267206581
  - # 18
    frequency:    32.3267206581
  - # 19
    frequency:    32.6267456332
  - # 20
    frequency:    32.6267456332
  - # 21
    frequency:    34.6905388563
  - # 22
    frequency:    35.0659685633
  - # 23
    frequency:    35.0667881898
  - # 24
    frequency:    35.5112408161

- q-position: [    0.1770833,    0.0104167,    0.0104167 ]
  distance_from_gamma:  0.048295090
  weight: 24   
  band:
  - # 1
    frequency:     5.4931746880
  - # 2
    frequency:     5.4958642037
  - # 3
    frequency:     7.8615455133
  - # 4
    frequency:    21.2317975275
  - # 5
    frequency:    21.2416946433
  - # 6
    frequency:    23.2678486367
  - # 7
    frequency:    23.2678486367
  - # 8
    frequency:    23.4415413200
  - # 9
    frequency:    23.4415413200
  - # 10
    frequency:    27.4178129260
  - # 11
    frequency:    27.4178129260
  - # 12
    frequency:    27.4678832412
  - # 13
    frequency:    27.4678832412
  - # 14
    frequency:    28.6634398532
  - # 15
    frequency:    28.6736367877
  - # 16
    frequency:    29.6589200885
  - # 17
    frequency:    32.2264127385
  - # 18
    frequency:    32.2264127385
  - # 19
    frequency:    32.5242628978
  - # 20
    frequency:    32.5242628978
  - # 21
    frequency:    34.8696275832
  - # 22
    frequency:    34.9767237931
  - # 23
    frequency:    34.9775688576
  - # 24
    frequency:    35.5442131318

- q-position: [    0.1979167,    0.0104167,    0.0104167 ]
  distance_from_gamma:  0.053939858
  weight: 24   
  band:
  - # 1
    frequency:     6.1225678120
  - # 2
    frequency:     6.1257007627
  - # 3
    frequency:     8.7565271278
  - # 4
    frequency:    20.9086876868
  - # 5
    frequency:    20.9184977991
  - # 6
    frequency:    23.3927828294
  - # 7
    frequency:    23.3927828294
  - # 8
    frequency:    23.5846870125
  - # 9
    frequency:    23.5846870125
  - # 10
    frequency:    27.3992906388
  - # 11
    frequency:    27.3992906388
  - # 12
    frequency:    27.4550223698
  - # 13
    frequency:    27.4550223698
  - # 14
    frequency:    28.8697179277
  - # 15
    frequency:    28.9015219138
  - # 16
    frequency:    29.2208491744
  - # 17
    frequency:    32.1173704472
  - # 18
    frequency:    32.1173704472
  - # 19
    frequency:    32.4123295884
  - # 20
    frequency:    32.4123295884
  - # 21
    frequency:    34.8768730465
  - # 22
    frequency:    34.8777452477
  - # 23
    frequency:    35.0341975373
  - # 24
    frequency:    35.5798298468

- q-position: [    0.2187500,    0.0104167,    0.0104167 ]
  distance_from_gamma:  0.059587937
  weight: 24   
  band:
  - # 1
    frequency:     6.7481093613
  - # 2
    frequency:     6.7516666964
  - # 3
    frequency:     9.6443495583
  - # 4
    frequency:    20.5668598560
  - # 5
    frequency:    20.5765884008
  - # 6
    frequency:    23.5285793224
  - # 7
    frequency:    23.5285793224
  - # 8
    frequency:    23.7381103299
  - # 9
    frequency:    23.7381103299
  - # 10
    frequency:    27.3783475549
  - # 11
    frequency:    27.3783475549
  - # 12
    frequency:    27.4394756750
  - # 13
    frequency:    27.4394756750
  - # 14
    frequency:    28.6885634436
  - # 15
    frequency:    29.1365157663
  - # 16
    frequency:    29.1596723259
  - # 17
    frequency:    32.0010158510
  - # 18
    frequency:    32.0010158510
  - # 19
    frequency:    32.2921956029
  - # 20
    frequency:    32.2921956029
  - # 21
    frequency:    34.7666109206
  - # 22
    frequency:    34.7675118653
  - # 23
    frequency:    35.1845723136
  - # 24
    frequency:    35.6175997176

- q-position: [    0.2395833,    0.0104167,    0.0104167 ]
  distance_from_gamma:  0.065238467
  weight: 24   
  band:
  - # 1
    frequency:     7.3692599196
  - # 2
    frequency:     7.3732251180
  - # 3
    frequency:    10.5241325221
  - # 4
    frequency:    20.2078524275
  - # 5
    frequency:    20.2175013871
  - # 6
    frequency:    23.6738488119
  - # 7
    frequency:    23.6738488119
  - # 8
    frequency:    23.9004484887
  - # 9
    frequency:    23.9004484887
  - # 10
    frequency:    27.3547576335
  - # 11
    frequency:    27.3547576335
  - # 12
    frequency:    27.4208743954
  - # 13
    frequency:    27.4208743954
  - # 14
    frequency:    28.2076000281
  - # 15
    frequency:    29.3767936923
  - # 16
    frequency:    29.3859212510
  - # 17
    frequency:    31.8789728083
  - # 18
    frequency:    31.8789728083
  - # 19
    frequency:    32.1652869991
  - # 20
    frequency:    32.1652869991
  - # 21
    frequency:    34.6461538186
  - # 22
    frequency:    34.6470849745
  - # 23
    frequency:    35.3210949311
  - # 24
    frequency:    35.6569929045

- q-position: [    0.2604167,    0.0104167,    0.0104167 ]
  distance_from_gamma:  0.070890862
  weight: 24   
  band:
  - # 1
    frequency:     7.9855128445
  - # 2
    frequency:     7.9898709503
  - # 3
    frequency:    11.3950644821
  - # 4
    frequency:    19.8328621985
  - # 5
    frequency:    19.8424302506
  - # 6
    frequency:    23.8270247713
  - # 7
    frequency:    23.8270247713
  - # 8
    frequency:    24.0701931910
  - # 9
    frequency:    24.0701931910
  - # 10
    frequency:    27.3282814747
  - # 11
    frequency:    27.3282814747
  - # 12
    frequency:    27.3987918210
  - # 13
    frequency:    27.3987918210
  - # 14
    frequency:    27.6983285903
  - # 15
    frequency:    29.6208615721
  - # 16
    frequency:    29.6265998068
  - # 17
    frequency:    31.7530776910
  - # 18
    frequency:    31.7530776910
  - # 19
    frequency:    32.0332177457
  - # 20
    frequency:    32.0332177457
  - # 21
    frequency:    34.5157399002
  - # 22
    frequency:    34.5167025881
  - # 23
    frequency:    35.4441284968
  - # 24
    frequency:    35.6974452700

- q-position: [    0.2812500,    0.0104167,    0.0104167 ]
  distance_from_gamma:  0.076544708
  weight: 24   
  band:
  - # 1
    frequency:     8.5963834928
  - # 2
    frequency:     8.6011204950
  - # 3
    frequency:    12.2563871289
  - # 4
    frequency:    19.4428283220
  - # 5
    frequency:    19.4523111678
  - # 6
    frequency:    23.9863397944
  - # 7
    frequency:    23.9863397944
  - # 8
    frequency:    24.2456731552
  - # 9
    frequency:    24.2456731552
  - # 10
    frequency:    27.1695167190
  - # 11
    frequency:    27.2986840503
  - # 12
    frequency:    27.2986840503
  - # 13
    frequency:    27.3727536058
  - # 14
    frequency:    27.3727536058
  - # 15
    frequency:    29.8674758379
  - # 16
    frequency:    29.8717154619
  - # 17
    frequency:    31.6253864056
  - # 18
    frequency:    31.6253864056
  - # 19
    frequency:    31.8978012186
  - # 20
    frequency:    31.8978012186
  - # 21
    frequency:    34.3756289780
  - # 22
    frequency:    34.3766243916
  - # 23
    frequency:    35.5540568348
  - # 24
    frequency:    35.7383628173

- q-position: [    0.3020833,    0.0104167,    0.0104167 ]
  distance_from_gamma:  0.082199707
  weight: 24   
  band:
  - # 1
    frequency:     9.2014032265
  - # 2
    frequency:     9.2065056470
  - # 3
    frequency:    13.1073867554
  - # 4
    frequency:    19.0384988425
  - # 5
    frequency:    19.0478896068
  - # 6
    frequency:    24.1497915285
  - # 7
    frequency:    24.1497915285
  - # 8
    frequency:    24.4250267418
  - # 9
    frequency:    24.4250267418
  - # 10
    frequency:    26.6224343070
  - # 11
    frequency:    27.2657661804
  - # 12
    frequency:    27.2657661804
  - # 13
    frequency:    27.3422633556
  - # 14
    frequency:    27.3422633556
  - # 15
    frequency:    30.1155808755
  - # 16
    frequency:    30.1189820574
  - # 17
    frequency:    31.4981736186
  - # 18
    frequency:    31.4981736186
  - # 19
    frequency:    31.7610598492
  - # 20
    frequency:    31.7610598492
  - # 21
    frequency:    34.2261023525
  - # 22
    frequency:    34.2271315995
  - # 23
    frequency:    35.6512850547
  - # 24
    frequency:    35.7791261967

- q-position: [    0.3229167,    0.0104167,    0.0104167 ]
  distance_from_gamma:  0.087855636
  weight: 24   
  band:
  - # 1
    frequency:     9.8001160827
  - # 2
    frequency:     9.8055706966
  - # 3
    frequency:    13.9473893606
  - # 4
    frequency:    18.6204822997
  - # 5
    frequency:    18.6297719464
  - # 6
    frequency:    24.3150945928
  - # 7
    frequency:    24.3150945928
  - # 8
    frequency:    24.6061596242
  - # 9
    frequency:    24.6061596242
  - # 10
    frequency:    26.0574971769
  - # 11
    frequency:    27.2294168518
  - # 12
    frequency:    27.2294168518
  - # 13
    frequency:    27.3068532644
  - # 14
    frequency:    27.3068532644
  - # 15
    frequency:    30.3642612616
  - # 16
    frequency:    30.3671294866
  - # 17
    frequency:    31.3739182612
  - # 18
    frequency:    31.3739182612
  - # 19
    frequency:    31.6252306039
  - # 20
    frequency:    31.6252306039
  - # 21
    frequency:    34.0674625773
  - # 22
    frequency:    34.0685267395
  - # 23
    frequency:    35.7362400327
  - # 24
    frequency:    35.8190952156

- q-position: [    0.3437500,    0.0104167,    0.0104167 ]
  distance_from_gamma:  0.093512326
  weight: 24   
  band:
  - # 1
    frequency:    10.3920770034
  - # 2
    frequency:    10.3978706455
  - # 3
    frequency:    14.7757578427
  - # 4
    frequency:    18.1892872451
  - # 5
    frequency:    18.1984649744
  - # 6
    frequency:    24.4796139401
  - # 7
    frequency:    24.4796139401
  - # 8
    frequency:    24.7866791471
  - # 9
    frequency:    24.7866791471
  - # 10
    frequency:    25.4749290518
  - # 11
    frequency:    27.1896957883
  - # 12
    frequency:    27.1896957883
  - # 13
    frequency:    27.2661741220
  - # 14
    frequency:    27.2661741220
  - # 15
    frequency:    30.6127059387
  - # 16
    frequency:    30.6152070119
  - # 17
    frequency:    31.2552674562
  - # 18
    frequency:    31.2552674562
  - # 19
    frequency:    31.4927633396
  - # 20
    frequency:    31.4927633396
  - # 21
    frequency:    33.9000331486
  - # 22
    frequency:    33.9011333609
  - # 23
    frequency:    35.8093707804
  - # 24
    frequency:    35.8576132938

- q-position: [    0.3645833,    0.0104167,    0.0104167 ]
  distance_from_gamma:  0.099169647
  weight: 24   
  band:
  - # 1
    frequency:    10.9768510103
  - # 2
    frequency:    10.9829704400
  - # 3
    frequency:    15.5918903821
  - # 4
    frequency:    17.7453522551
  - # 5
    frequency:    17.7544058678
  - # 6
    frequency:    24.6402748345
  - # 7
    frequency:    24.6402748345
  - # 8
    frequency:    24.8749039713
  - # 9
    frequency:    24.9637915282
  - # 10
    frequency:    24.9637915282
  - # 11
    frequency:    27.1469572870
  - # 12
    frequency:    27.1469572870
  - # 13
    frequency:    27.2201448409
  - # 14
    frequency:    27.2201448409
  - # 15
    frequency:    30.8601816967
  - # 16
    frequency:    30.8624154561
  - # 17
    frequency:    31.1449694708
  - # 18
    frequency:    31.1449694708
  - # 19
    frequency:    31.3663090208
  - # 20
    frequency:    31.3663090208
  - # 21
    frequency:    33.7241581181
  - # 22
    frequency:    33.7252956664
  - # 23
    frequency:    35.8711486749
  - # 24
    frequency:    35.8940118105

- q-position: [    0.3854167,    0.0104167,    0.0104167 ]
  distance_from_gamma:  0.104827496
  weight: 24   
  band:
  - # 1
    frequency:    11.5540129611
  - # 2
    frequency:    11.5604447692
  - # 3
    frequency:    16.3952195052
  - # 4
    frequency:    17.2890685845
  - # 5
    frequency:    17.2979848056
  - # 6
    frequency:    24.2575903333
  - # 7
    frequency:    24.7934472038
  - # 8
    frequency:    24.7934472038
  - # 9
    frequency:    25.1341399777
  - # 10
    frequency:    25.1341399777
  - # 11
    frequency:    27.1020245462
  - # 12
    frequency:    27.1020245462
  - # 13
    frequency:    27.1691881420
  - # 14
    frequency:    27.1691881420
  - # 15
    frequency:    31.0457657357
  - # 16
    frequency:    31.0457657357
  - # 17
    frequency:    31.1060137798
  - # 18
    frequency:    31.1080448832
  - # 19
    frequency:    31.2486961740
  - # 20
    frequency:    31.2486961740
  - # 21
    frequency:    33.5402016313
  - # 22
    frequency:    33.5413780711
  - # 23
    frequency:    35.9220675260
  - # 24
    frequency:    35.9276142955

- q-position: [    0.4062500,    0.0104167,    0.0104167 ]
  distance_from_gamma:  0.110485793
  weight: 24   
  band:
  - # 1
    frequency:    12.1231476538
  - # 2
    frequency:    12.1298782005
  - # 3
    frequency:    16.8207971604
  - # 4
    frequency:    16.8295619219
  - # 5
    frequency:    17.1852115212
  - # 6
    frequency:    23.6231680897
  - # 7
    frequency:    24.9348134969
  - # 8
    frequency:    24.9348134969
  - # 9
    frequency:    25.2935538667
  - # 10
    frequency:    25.2935538667
  - # 11
    frequency:    27.0564121804
  - # 12
    frequency:    27.0564121804
  - # 13
    frequency:    27.1145822652
  - # 14
    frequency:    27.1145822652
  - # 15
    frequency:    30.9602326344
  - # 16
    frequency:    30.9602326344
  - # 17
    frequency:    31.1428981995
  - # 18
    frequency:    31.1428981995
  - # 19
    frequency:    31.3495718874
  - # 20
    frequency:    31.3514444913
  - # 21
    frequency:    33.3485473988
  - # 22
    frequency:    33.3497646981
  - # 23
    frequency:    35.9577404237
  - # 24
    frequency:    35.9626434551

- q-position: [    0.4270833,    0.0104167,    0.0104167 ]
  distance_from_gamma:  0.116144472
  weight: 24   
  band:
  - # 1
    frequency:    12.6838501143
  - # 2
    frequency:    12.6908654915
  - # 3
    frequency:    16.3408812358
  - # 4
    frequency:    16.3494799189
  - # 5
    frequency:    17.9613661497
  - # 6
    frequency:    22.9718367626
  - # 7
    frequency:    25.0592622014
  - # 8
    frequency:    25.0592622014
  - # 9
    frequency:    25.4366878210
  - # 10
    frequency:    25.4366878210
  - # 11
    frequency:    27.0125607278
  - # 12
    frequency:    27.0125607278
  - # 13
    frequency:    27.0589409197
  - # 14
    frequency:    27.0589409197
  - # 15
    frequency:    30.8905653858
  - # 16
    frequency:    30.8905653858
  - # 17
    frequency:    31.0520023242
  - # 18
    frequency:    31.0520023242
  - # 19
    frequency:    31.5902602315
  - # 20
    frequency:    31.5920056942
  - # 21
    frequency:    33.1495981194
  - # 22
    frequency:    33.1508588291
  - # 23
    frequency:    35.9837097781
  - # 24
    frequency:    35.9934145634

- q-position: [    0.4479167,    0.0104167,    0.0104167 ]
  distance_from_gamma:  0.121803479
  weight: 24   
  band:
  - # 1
    frequency:    13.2357259367
  - # 2
    frequency:    13.2430119517
  - # 3
    frequency:    15.8496557147
  - # 4
    frequency:    15.8580733536
  - # 5
    frequency:    18.7232162184
  - # 6
    frequency:    22.3038197759
  - # 7
    frequency:    25.1609222282
  - # 8
    frequency:    25.1609222282
  - # 9
    frequency:    25.5566151070
  - # 10
    frequency:    25.5566151070
  - # 11
    frequency:    26.9739750331
  - # 12
    frequency:    26.9739750331
  - # 13
    frequency:    27.0067336536
  - # 14
    frequency:    27.0067336536
  - # 15
    frequency:    30.8383023814
  - # 16
    frequency:    30.8383023814
  - # 17
    frequency:    30.9791983583
  - # 18
    frequency:    30.9791983583
  - # 19
    frequency:    31.8275106231
  - # 20
    frequency:    31.8291518597
  - # 21
    frequency:    32.9437748792
  - # 22
    frequency:    32.9450823401
  - # 23
    frequency:    36.0048453523
  - # 24
    frequency:    36.0149403666

- q-position: [    0.4687500,    0.0104167,    0.0104167 ]
  distance_from_gamma:  0.127462772
  weight: 24   
  band:
  - # 1
    frequency:    13.7783915591
  - # 2
    frequency:    13.7859337377
  - # 3
    frequency:    15.3474539243
  - # 4
    frequency:    15.3556753767
  - # 5
    frequency:    19.4703273561
  - # 6
    frequency:    21.6193671056
  - # 7
    frequency:    25.2335608249
  - # 8
    frequency:    25.2335608249
  - # 9
    frequency:    25.6447422050
  - # 10
    frequency:    25.6447422050
  - # 11
    frequency:    26.9450530087
  - # 12
    frequency:    26.9450530087
  - # 13
    frequency:    26.9644409619
  - # 14
    frequency:    26.9644409619
  - # 15
    frequency:    30.8040308108
  - # 16
    frequency:    30.8040308108
  - # 17
    frequency:    30.9277762012
  - # 18
    frequency:    30.9277762012
  - # 19
    frequency:    32.0607778084
  - # 20
    frequency:    32.0623319052
  - # 21
    frequency:    32.7315165704
  - # 22
    frequency:    32.7328751659
  - # 23
    frequency:    36.0204767704
  - # 24
    frequency:    36.0278009762

- q-position: [    0.4895833,    0.0104167,    0.0104167 ]
  distance_from_gamma:  0.133122313
  weight: 24   
  band:
  - # 1
    frequency:    14.3114743577
  - # 2
    frequency:    14.3192579658
  - # 3
    frequency:    14.8346124311
  - # 4
    frequency:    14.8426225160
  - # 5
    frequency:    20.2022976272
  - # 6
    frequency:    20.9187570702
  - # 7
    frequency:    25.2715899681
  - # 8
    frequency:    25.2715899681
  - # 9
    frequency:    25.6919767433
  - # 10
    frequency:    25.6919767433
  - # 11
    frequency:    26.9301531825
  - # 12
    frequency:    26.9301531825
  - # 13
    frequency:    26.9395808734
  - # 14
    frequency:    26.9395808734
  - # 15
    frequency:    30.7873052408
  - # 16
    frequency:    30.7873052408
  - # 17
    frequency:    30.9009382842
  - # 18
    frequency:    30.9009382842
  - # 19
    frequency:    32.2895364616
  - # 20
    frequency:    32.2910163304
  - # 21
    frequency:    32.5132793842
  - # 22
    frequency:    32.5146948588
  - # 23
    frequency:    36.0299432088
  - # 24
    frequency:    36.0325960088

- q-position: [    0.0312500,    0.0312500,    0.0104167 ]
  distance_from_gamma:  0.012340515
  weight: 24   
  band:
  - # 1
    frequency:     1.4037479107
  - # 2
    frequency:     1.4137093602
  - # 3
    frequency:     2.0373737245
  - # 4
    frequency:    22.7301221631
  - # 5
    frequency:    22.7301221631
  - # 6
    frequency:    22.7621906237
  - # 7
    frequency:    22.7621906237
  - # 8
    frequency:    22.7666490279
  - # 9
    frequency:    22.8630479046
  - # 10
    frequency:    27.4833269242
  - # 11
    frequency:    27.5096879562
  - # 12
    frequency:    27.5353886383
  - # 13
    frequency:    27.5353886383
  - # 14
    frequency:    27.5442049896
  - # 15
    frequency:    27.5442049896
  - # 16
    frequency:    32.3680237719
  - # 17
    frequency:    32.3680237719
  - # 18
    frequency:    32.6712512568
  - # 19
    frequency:    32.9816510646
  - # 20
    frequency:    33.2802263930
  - # 21
    frequency:    33.2802263930
  - # 22
    frequency:    35.3594466211
  - # 23
    frequency:    35.3630353488
  - # 24
    frequency:    35.3919689614

- q-position: [    0.0520833,    0.0312500,    0.0104167 ]
  distance_from_gamma:  0.016749063
  weight: 48   
  band:
  - # 1
    frequency:     1.9068779489
  - # 2
    frequency:     1.9194836422
  - # 3
    frequency:     2.7599038142
  - # 4
    frequency:    22.6284553645
  - # 5
    frequency:    22.6603064518
  - # 6
    frequency:    22.7526108608
  - # 7
    frequency:    22.7677997499
  - # 8
    frequency:    22.8060389789
  - # 9
    frequency:    22.9279383509
  - # 10
    frequency:    27.4716057571
  - # 11
    frequency:    27.5155884529
  - # 12
    frequency:    27.5294058767
  - # 13
    frequency:    27.5441257042
  - # 14
    frequency:    27.6165093547
  - # 15
    frequency:    27.6254426225
  - # 16
    frequency:    32.0311679244
  - # 17
    frequency:    32.3426373138
  - # 18
    frequency:    32.6378190866
  - # 19
    frequency:    32.9591396745
  - # 20
    frequency:    33.2502320557
  - # 21
    frequency:    33.5516393955
  - # 22
    frequency:    35.3368943321
  - # 23
    frequency:    35.3421708921
  - # 24
    frequency:    35.3994286060

- q-position: [    0.0729167,    0.0312500,    0.0104167 ]
  distance_from_gamma:  0.021746156
  weight: 48   
  band: