       N       E                     dE             d eps       ncg     rms          rms(c)
DAV:   1     0.498429097437E+03    0.49843E+03   -0.11231E+05 13440   0.105E+03
DAV:   2    -0.550081749926E+03   -0.10485E+04   -0.99824E+03 17728   0.225E+02
DAV:   3    -0.592768804402E+03   -0.42687E+02   -0.42418E+02 17888   0.428E+01
DAV:   4    -0.593299784981E+03   -0.53098E+00   -0.53002E+00 18272   0.517E+00
DAV:   5    -0.593309950469E+03   -0.10165E-01   -0.10162E-01 16896   0.685E-01    0.240E+01
DAV:   6    -0.582102454952E+03    0.11207E+02   -0.75739E+00 15872   0.537E+00    0.134E+01
DAV:   7    -0.578307039065E+03    0.37954E+01   -0.89119E+00 16288   0.601E+00    0.187E+00
DAV:   8    -0.578357604900E+03   -0.50566E-01   -0.20715E-01 16928   0.896E-01    0.200E-01
DAV:   9    -0.578359760734E+03   -0.21558E-02   -0.36592E-03 17568   0.142E-01    0.757E-02
DAV:  10    -0.578360225366E+03   -0.46463E-03   -0.45681E-04 16480   0.547E-02    0.772E-03
DAV:  11    -0.578360227794E+03   -0.24276E-05   -0.11769E-05 17600   0.750E-03    0.197E-03
DAV:  12    -0.578360228207E+03   -0.41342E-06   -0.59954E-07 17344   0.180E-03    0.169E-04
DAV:  13    -0.578360228330E+03   -0.12243E-06   -0.10120E-08 13408   0.235E-04    0.436E-05
DAV:  14    -0.578360228333E+03   -0.32724E-08   -0.14935E-09 12128   0.892E-05
   1 F= -.57836023E+03 E0= -.57836023E+03  d E =-.965476E-11
 Linear response reoptimize wavefunctions
DAV:   1    -0.578360228333E+03    0.59299E-09   -0.38049E-10 10592   0.435E-05
DAV:   2    -0.578360228333E+03    0.43656E-10   -0.95879E-11 10080   0.222E-05
 Linear response DOF=           1
 Linear response progress:
  Degree of freedom:   1/  1
       N       E                     dE             d eps       ncg     rms          rms(c)
RMM:   1    -0.139545203894E+00   -0.13955E+00    0.90223E-03111887   0.707E-01
RMM:   2    -0.120511809496E+00    0.19033E-01   -0.70791E-03 68757   0.183E-01    0.157E-01
RMM:   3    -0.120442878199E+00    0.68931E-04   -0.67436E-04 72238   0.435E-02    0.820E-02
RMM:   4    -0.120638157104E+00   -0.19528E-03   -0.17813E-04 72729   0.232E-02    0.256E-02
RMM:   5    -0.120697853494E+00   -0.59696E-04   -0.12636E-05 73422   0.677E-03    0.614E-03
RMM:   6    -0.120680021538E+00    0.17832E-04   -0.10417E-06 74683   0.186E-03    0.130E-03
RMM:   7    -0.120671769289E+00    0.82522E-05   -0.42766E-07 75503   0.629E-04    0.359E-04
RMM:   8    -0.120671374323E+00    0.39497E-06   -0.42113E-07 78089   0.287E-04    0.884E-05
RMM:   9    -0.120671139523E+00    0.23480E-06   -0.42623E-07 81314   0.206E-04    0.389E-05
RMM:  10    -0.120671234641E+00   -0.95117E-07   -0.39523E-07 83788   0.198E-04    0.123E-05
RMM:  11    -0.120671238619E+00   -0.39781E-08   -0.37790E-07 84086   0.195E-04    0.513E-06
 Linear response finished
