# Thermal properties / unit cell (natom)

unit:
  temperature:   K
  free_energy:   kJ/mol
  entropy:       J/K/mol
  heat_capacity: J/K/mol

natom: 8    
cutoff_frequency:    0.000
num_modes: 2654208
num_integrated_modes: 2654208

zero_point_energy:     126.4138459
high_T_entropy:        450.7529284

thermal_properties:
- temperature:         0.0000000
  free_energy:       126.4138459
  entropy:             0.0000000
  heat_capacity:       0.0000000
  energy:            126.4138459

- temperature:         2.0000000
  free_energy:       126.4138459
  entropy:             0.0000000
  heat_capacity:       0.0000000
  energy:            126.4138459

- temperature:         4.0000000
  free_energy:       126.4138459
  entropy:             0.0000118
  heat_capacity:       0.0000709
  energy:            126.4138459

- temperature:         6.0000000
  free_energy:       126.4138458
  entropy:             0.0000898
  heat_capacity:       0.0003775
  energy:            126.4138463

- temperature:         8.0000000
  free_energy:       126.4138455
  entropy:             0.0002712
  heat_capacity:       0.0009630
  energy:            126.4138476

- temperature:        10.0000000
  free_energy:       126.4138446
  entropy:             0.0005798
  heat_capacity:       0.0019057
  energy:            126.4138504

- temperature:        12.0000000
  free_energy:       126.4138430
  entropy:             0.0010432
  heat_capacity:       0.0033031
  energy:            126.4138556

- temperature:        14.0000000
  free_energy:       126.4138403
  entropy:             0.0016911
  heat_capacity:       0.0052530
  energy:            126.4138640

- temperature:        16.0000000
  free_energy:       126.4138361
  entropy:             0.0025544
  heat_capacity:       0.0078517
  energy:            126.4138770

- temperature:        18.0000000
  free_energy:       126.4138300
  entropy:             0.0036645
  heat_capacity:       0.0111959
  energy:            126.4138959

- temperature:        20.0000000
  free_energy:       126.4138213
  entropy:             0.0050530
  heat_capacity:       0.0153831
  energy:            126.4139223

- temperature:        22.0000000
  free_energy:       126.4138095
  entropy:             0.0067518
  heat_capacity:       0.0205123
  energy:            126.4139581

- temperature:        24.0000000
  free_energy:       126.4137940
  entropy:             0.0087933
  heat_capacity:       0.0266843
  energy:            126.4140051

- temperature:        26.0000000
  free_energy:       126.4137741
  entropy:             0.0112102
  heat_capacity:       0.0340022
  energy:            126.4140656

- temperature:        28.0000000
  free_energy:       126.4137489
  entropy:             0.0140356
  heat_capacity:       0.0425711
  energy:            126.4141419

- temperature:        30.0000000
  free_energy:       126.4137177
  entropy:             0.0173031
  heat_capacity:       0.0524993
  energy:            126.4142368

- temperature:        32.0000000
  free_energy:       126.4136794
  entropy:             0.0210470
  heat_capacity:       0.0638978
  energy:            126.4143529

- temperature:        34.0000000
  free_energy:       126.4136331
  entropy:             0.0253020
  heat_capacity:       0.0768815
  energy:            126.4144934

- temperature:        36.0000000
  free_energy:       126.4135778
  entropy:             0.0301038
  heat_capacity:       0.0915694
  energy:            126.4146616

- temperature:        38.0000000
  free_energy:       126.4135123
  entropy:             0.0354887
  heat_capacity:       0.1080854
  energy:            126.4148609

- temperature:        40.0000000
  free_energy:       126.4134355
  entropy:             0.0414938
  heat_capacity:       0.1265587
  energy:            126.4150952

- temperature:        42.0000000
  free_energy:       126.4133459
  entropy:             0.0481575
  heat_capacity:       0.1471254
  energy:            126.4153685

- temperature:        44.0000000
  free_energy:       126.4132424
  entropy:             0.0555191
  heat_capacity:       0.1699287
  energy:            126.4156852

- temperature:        46.0000000
  free_energy:       126.4131234
  entropy:             0.0636193
  heat_capacity:       0.1951205
  energy:            126.4160498

- temperature:        48.0000000
  free_energy:       126.4129874
  entropy:             0.0725004
  heat_capacity:       0.2228618
  energy:            126.4164674

- temperature:        50.0000000
  free_energy:       126.4128328
  entropy:             0.0822060
  heat_capacity:       0.2533244
  energy:            126.4169431

- temperature:        52.0000000
  free_energy:       126.4126580
  entropy:             0.0927818
  heat_capacity:       0.2866909
  energy:            126.4174826

- temperature:        54.0000000
  free_energy:       126.4124611
  entropy:             0.1042754
  heat_capacity:       0.3231557
  energy:            126.4180919

- temperature:        56.0000000
  free_energy:       126.4122402
  entropy:             0.1167362
  heat_capacity:       0.3629255
  energy:            126.4187774

- temperature:        58.0000000
  free_energy:       126.4119934
  entropy:             0.1302163
  heat_capacity:       0.4062191
  energy:            126.4195460

- temperature:        60.0000000
  free_energy:       126.4117186
  entropy:             0.1447698
  heat_capacity:       0.4532671
  energy:            126.4204048

- temperature:        62.0000000
  free_energy:       126.4114136
  entropy:             0.1604534
  heat_capacity:       0.5043117
  energy:            126.4213617

- temperature:        64.0000000
  free_energy:       126.4110760
  entropy:             0.1773261
  heat_capacity:       0.5596058
  energy:            126.4224249

- temperature:        66.0000000
  free_energy:       126.4107035
  entropy:             0.1954497
  heat_capacity:       0.6194119
  energy:            126.4236031

- temperature:        68.0000000
  free_energy:       126.4102934
  entropy:             0.2148880
  heat_capacity:       0.6840006
  energy:            126.4249057

- temperature:        70.0000000
  free_energy:       126.4098430
  entropy:             0.2357075
  heat_capacity:       0.7536497
  energy:            126.4263425

- temperature:        72.0000000
  free_energy:       126.4093496
  entropy:             0.2579770
  heat_capacity:       0.8286420
  energy:            126.4279239

- temperature:        74.0000000
  free_energy:       126.4088101
  entropy:             0.2817672
  heat_capacity:       0.9092639
  energy:            126.4296608

- temperature:        76.0000000
  free_energy:       126.4082214
  entropy:             0.3071510
  heat_capacity:       0.9958038
  energy:            126.4315649

- temperature:        78.0000000
  free_energy:       126.4075804
  entropy:             0.3342031
  heat_capacity:       1.0885501
  energy:            126.4336482

- temperature:        80.0000000
  free_energy:       126.4068835
  entropy:             0.3629997
  heat_capacity:       1.1877896
  energy:            126.4359234

- temperature:        82.0000000
  free_energy:       126.4061271
  entropy:             0.3936187
  heat_capacity:       1.2938060
  energy:            126.4384039

- temperature:        84.0000000
  free_energy:       126.4053077
  entropy:             0.4261387
  heat_capacity:       1.4068783
  energy:            126.4411034

- temperature:        86.0000000
  free_energy:       126.4044213
  entropy:             0.4606396
  heat_capacity:       1.5272792
  energy:            126.4440363

- temperature:        88.0000000
  free_energy:       126.4034638
  entropy:             0.4972018
  heat_capacity:       1.6552741
  energy:            126.4472175

- temperature:        90.0000000
  free_energy:       126.4024310
  entropy:             0.5359063
  heat_capacity:       1.7911201
  energy:            126.4506626

- temperature:        92.0000000
  free_energy:       126.4013187
  entropy:             0.5768342
  heat_capacity:       1.9350643
  energy:            126.4543874

- temperature:        94.0000000
  free_energy:       126.4001222
  entropy:             0.6200666
  heat_capacity:       2.0873436
  energy:            126.4584084

- temperature:        96.0000000
  free_energy:       126.3988368
  entropy:             0.6656842
  heat_capacity:       2.2481839
  energy:            126.4627425

- temperature:        98.0000000
  free_energy:       126.3974578
  entropy:             0.7137676
  heat_capacity:       2.4177992
  energy:            126.4674070

- temperature:       100.0000000
  free_energy:       126.3959800
  entropy:             0.7643964
  heat_capacity:       2.5963914
  energy:            126.4724197

- temperature:       102.0000000
  free_energy:       126.3943984
  entropy:             0.8176494
  heat_capacity:       2.7841497
  energy:            126.4777987

- temperature:       104.0000000
  free_energy:       126.3927077
  entropy:             0.8736044
  heat_capacity:       2.9812508
  energy:            126.4835625

- temperature:       106.0000000
  free_energy:       126.3909022
  entropy:             0.9323382
  heat_capacity:       3.1878582
  energy:            126.4897300

- temperature:       108.0000000
  free_energy:       126.3889764
  entropy:             0.9939258
  heat_capacity:       3.4041226
  energy:            126.4963204

- temperature:       110.0000000
  free_energy:       126.3869245
  entropy:             1.0584411
  heat_capacity:       3.6301815
  energy:            126.5033530

- temperature:       112.0000000
  free_energy:       126.3847406
  entropy:             1.1259562
  heat_capacity:       3.8661596
  energy:            126.5108477

- temperature:       114.0000000
  free_energy:       126.3824187
  entropy:             1.1965414
  heat_capacity:       4.1121686
  energy:            126.5188244

- temperature:       116.0000000
  free_energy:       126.3799524
  entropy:             1.2702653
  heat_capacity:       4.3683078
  energy:            126.5273032

- temperature:       118.0000000
  free_energy:       126.3773355
  entropy:             1.3471946
  heat_capacity:       4.6346637
  energy:            126.5363044

- temperature:       120.0000000
  free_energy:       126.3745614
  entropy:             1.4273938
  heat_capacity:       4.9113106
  energy:            126.5458487

- temperature:       122.0000000
  free_energy:       126.3716237
  entropy:             1.5109254
  heat_capacity:       5.1983109
  energy:            126.5559566

- temperature:       124.0000000
  free_energy:       126.3685155
  entropy:             1.5978500
  heat_capacity:       5.4957152
  energy:            126.5666488

- temperature:       126.0000000
  free_energy:       126.3652300
  entropy:             1.6882256
  heat_capacity:       5.8035624
  energy:            126.5779464

- temperature:       128.0000000
  free_energy:       126.3617602
  entropy:             1.7821083
  heat_capacity:       6.1218804
  energy:            126.5898701

- temperature:       130.0000000
  free_energy:       126.3580991
  entropy:             1.8795519
  heat_capacity:       6.4506860
  energy:            126.6024409

- temperature:       132.0000000
  free_energy:       126.3542396
  entropy:             1.9806077
  heat_capacity:       6.7899854
  energy:            126.6156798

- temperature:       134.0000000
  free_energy:       126.3501743
  entropy:             2.0853250
  heat_capacity:       7.1397744
  energy:            126.6296078

- temperature:       136.0000000
  free_energy:       126.3458958
  entropy:             2.1937506
  heat_capacity:       7.5000388
  energy:            126.6442459

- temperature:       138.0000000
  free_energy:       126.3413968
  entropy:             2.3059288
  heat_capacity:       7.8707545
  energy:            126.6596150

- temperature:       140.0000000
  free_energy:       126.3366696
  entropy:             2.4219020
  heat_capacity:       8.2518880
  energy:            126.6757359

- temperature:       142.0000000
  free_energy:       126.3317066
  entropy:             2.5417100
  heat_capacity:       8.6433966
  energy:            126.6926294

- temperature:       144.0000000
  free_energy:       126.3265002
  entropy:             2.6653901
  heat_capacity:       9.0452286
  energy:            126.7103163

- temperature:       146.0000000
  free_energy:       126.3210424
  entropy:             2.7929776
  heat_capacity:       9.4573237
  energy:            126.7288172

- temperature:       148.0000000
  free_energy:       126.3153256
  entropy:             2.9245054
  heat_capacity:       9.8796131
  energy:            126.7481524

- temperature:       150.0000000
  free_energy:       126.3093418
  entropy:             3.0600040
  heat_capacity:      10.3120203
  energy:            126.7683424

- temperature:       152.0000000
  free_energy:       126.3030829
  entropy:             3.1995017
  heat_capacity:      10.7544606
  energy:            126.7894072

- temperature:       154.0000000
  free_energy:       126.2965411
  entropy:             3.3430244
  heat_capacity:      11.2068421
  energy:            126.8113668

- temperature:       156.0000000
  free_energy:       126.2897081
  entropy:             3.4905960
  heat_capacity:      11.6690655
  energy:            126.8342411

- temperature:       158.0000000
  free_energy:       126.2825760
  entropy:             3.6422381
  heat_capacity:      12.1410246
  energy:            126.8580496

- temperature:       160.0000000
  free_energy:       126.2751365
  entropy:             3.7979698
  heat_capacity:      12.6226065
  energy:            126.8828116

- temperature:       162.0000000
  free_energy:       126.2673814
  entropy:             3.9578086
  heat_capacity:      13.1136920
  energy:            126.9085464

- temperature:       164.0000000
  free_energy:       126.2593025
  entropy:             4.1217694
  heat_capacity:      13.6141557
  energy:            126.9352727

- temperature:       166.0000000
  free_energy:       126.2508915
  entropy:             4.2898652
  heat_capacity:      14.1238664
  energy:            126.9630091

- temperature:       168.0000000
  free_energy:       126.2421403
  entropy:             4.4621068
  heat_capacity:      14.6426874
  energy:            126.9917742

- temperature:       170.0000000
  free_energy:       126.2330403
  entropy:             4.6385032
  heat_capacity:      15.1704767
  energy:            127.0215859

- temperature:       172.0000000
  free_energy:       126.2235835
  entropy:             4.8190611
  heat_capacity:      15.7070872
  energy:            127.0524620

- temperature:       174.0000000
  free_energy:       126.2137613
  entropy:             5.0037856
  heat_capacity:      16.2523673
  energy:            127.0844200

- temperature:       176.0000000
  free_energy:       126.2035655
  entropy:             5.1926795
  heat_capacity:      16.8061607
  energy:            127.1174771

- temperature:       178.0000000
  free_energy:       126.1929878
  entropy:             5.3857438
  heat_capacity:      17.3683071
  energy:            127.1516502

- temperature:       180.0000000
  free_energy:       126.1820198
  entropy:             5.5829779
  heat_capacity:      17.9386422
  energy:            127.1869558

- temperature:       182.0000000
  free_energy:       126.1706531
  entropy:             5.7843792
  heat_capacity:      18.5169983
  energy:            127.2234101

- temperature:       184.0000000
  free_energy:       126.1588795
  entropy:             5.9899432
  heat_capacity:      19.1032041
  energy:            127.2610290

- temperature:       186.0000000
  free_energy:       126.1466906
  entropy:             6.1996639
  heat_capacity:      19.6970853
  energy:            127.2998281

- temperature:       188.0000000
  free_energy:       126.1340781
  entropy:             6.4135335
  heat_capacity:      20.2984647
  energy:            127.3398224

- temperature:       190.0000000
  free_energy:       126.1210337
  entropy:             6.6315427
  heat_capacity:      20.9071627
  energy:            127.3810268

- temperature:       192.0000000
  free_energy:       126.1075492
  entropy:             6.8536804
  heat_capacity:      21.5229972
  energy:            127.4234558

- temperature:       194.0000000
  free_energy:       126.0936162
  entropy:             7.0799341
  heat_capacity:      22.1457841
  energy:            127.4671234

- temperature:       196.0000000
  free_energy:       126.0792267
  entropy:             7.3102896
  heat_capacity:      22.7753377
  energy:            127.5120434

- temperature:       198.0000000
  free_energy:       126.0643723
  entropy:             7.5447314
  heat_capacity:      23.4114703
  energy:            127.5582292

- temperature:       200.0000000
  free_energy:       126.0490450
  entropy:             7.7832427
  heat_capacity:      24.0539932
  energy:            127.6056936

- temperature:       202.0000000
  free_energy:       126.0332367
  entropy:             8.0258050
  heat_capacity:      24.7027166
  energy:            127.6544493

- temperature:       204.0000000
  free_energy:       126.0169391
  entropy:             8.2723986
  heat_capacity:      25.3574495
  energy:            127.7045085

- temperature:       206.0000000
  free_energy:       126.0001444
  entropy:             8.5230027
  heat_capacity:      26.0180007
  energy:            127.7558829

- temperature:       208.0000000
  free_energy:       125.9828445
  entropy:             8.7775949
  heat_capacity:      26.6841781
  energy:            127.8085842

- temperature:       210.0000000
  free_energy:       125.9650314
  entropy:             9.0361519
  heat_capacity:      27.3557897
  energy:            127.8626233

- temperature:       212.0000000
  free_energy:       125.9466972
  entropy:             9.2986492
  heat_capacity:      28.0326434
  energy:            127.9180109

- temperature:       214.0000000
  free_energy:       125.9278342
  entropy:             9.5650610
  heat_capacity:      28.7145471
  energy:            127.9747572

- temperature:       216.0000000
  free_energy:       125.9084344
  entropy:             9.8353606
  heat_capacity:      29.4013091
  energy:            128.0328723

- temperature:       218.0000000
  free_energy:       125.8884902
  entropy:            10.1095203
  heat_capacity:      30.0927384
  energy:            128.0923656

- temperature:       220.0000000
  free_energy:       125.8679938
  entropy:            10.3875112
  heat_capacity:      30.7886445
  energy:            128.1532462

- temperature:       222.0000000
  free_energy:       125.8469376
  entropy:            10.6693038
  heat_capacity:      31.4888379
  energy:            128.2155230

- temperature:       224.0000000
  free_energy:       125.8253140
  entropy:            10.9548673
  heat_capacity:      32.1931299
  energy:            128.2792043

- temperature:       226.0000000
  free_energy:       125.8031156
  entropy:            11.2441705
  heat_capacity:      32.9013333
  energy:            128.3442981

- temperature:       228.0000000
  free_energy:       125.7803349
  entropy:            11.5371809
  heat_capacity:      33.6132620
  energy:            128.4108121

- temperature:       230.0000000
  free_energy:       125.7569644
  entropy:            11.8338657
  heat_capacity:      34.3287314
  energy:            128.4787535

- temperature:       232.0000000
  free_energy:       125.7329970
  entropy:            12.1341910
  heat_capacity:      35.0475585
  energy:            128.5481293

- temperature:       234.0000000
  free_energy:       125.7084253
  entropy:            12.4381223
  heat_capacity:      35.7695620
  energy:            128.6189459

- temperature:       236.0000000
  free_energy:       125.6832421
  entropy:            12.7456247
  heat_capacity:      36.4945624
  energy:            128.6912095

- temperature:       238.0000000
  free_energy:       125.6574404
  entropy:            13.0566622
  heat_capacity:      37.2223822
  energy:            128.7649260

- temperature:       240.0000000
  free_energy:       125.6310131
  entropy:            13.3711987
  heat_capacity:      37.9528459
  energy:            128.8401008

- temperature:       242.0000000
  free_energy:       125.6039533
  entropy:            13.6891973
  heat_capacity:      38.6857801
  energy:            128.9167391

- temperature:       244.0000000
  free_energy:       125.5762541
  entropy:            14.0106206
  heat_capacity:      39.4210137
  energy:            128.9948455

- temperature:       246.0000000
  free_energy:       125.5479086
  entropy:            14.3354307
  heat_capacity:      40.1583778
  energy:            129.0744245

- temperature:       248.0000000
  free_energy:       125.5189101
  entropy:            14.6635895
  heat_capacity:      40.8977059
  energy:            129.1554803

- temperature:       250.0000000
  free_energy:       125.4892520
  entropy:            14.9950582
  heat_capacity:      41.6388342
  energy:            129.2380166

- temperature:       252.0000000
  free_energy:       125.4589277
  entropy:            15.3297978
  heat_capacity:      42.3816010
  energy:            129.3220367

- temperature:       254.0000000
  free_energy:       125.4279307
  entropy:            15.6677688
  heat_capacity:      43.1258475
  energy:            129.4075439

- temperature:       256.0000000
  free_energy:       125.3962545
  entropy:            16.0089317
  heat_capacity:      43.8714173
  energy:            129.4945410

- temperature:       258.0000000
  free_energy:       125.3638928
  entropy:            16.3532463
  heat_capacity:      44.6181569
  energy:            129.5830304

- temperature:       260.0000000
  free_energy:       125.3308394
  entropy:            16.7006726
  heat_capacity:      45.3659154
  energy:            129.6730143

- temperature:       262.0000000
  free_energy:       125.2970881
  entropy:            17.0511700
  heat_capacity:      46.1145445
  energy:            129.7644946

- temperature:       264.0000000
  free_energy:       125.2626327
  entropy:            17.4046979
  heat_capacity:      46.8638990
  energy:            129.8574730

- temperature:       266.0000000
  free_energy:       125.2274673
  entropy:            17.7612154
  heat_capacity:      47.6138363
  energy:            129.9519506

- temperature:       268.0000000
  free_energy:       125.1915859
  entropy:            18.1206817
  heat_capacity:      48.3642167
  energy:            130.0479286

- temperature:       270.0000000
  free_energy:       125.1549826
  entropy:            18.4830557
  heat_capacity:      49.1149033
  energy:            130.1454077

- temperature:       272.0000000
  free_energy:       125.1176518
  entropy:            18.8482962
  heat_capacity:      49.8657622
  energy:            130.2443883

- temperature:       274.0000000
  free_energy:       125.0795876
  entropy:            19.2163620
  heat_capacity:      50.6166622
  energy:            130.3448708

- temperature:       276.0000000
  free_energy:       125.0407845
  entropy:            19.5872118
  heat_capacity:      51.3674752
  energy:            130.4468549

- temperature:       278.0000000
  free_energy:       125.0012369
  entropy:            19.9608044
  heat_capacity:      52.1180758
  energy:            130.5503405

- temperature:       280.0000000
  free_energy:       124.9609394
  entropy:            20.3370984
  heat_capacity:      52.8683415
  energy:            130.6553270

- temperature:       282.0000000
  free_energy:       124.9198867
  entropy:            20.7160527
  heat_capacity:      53.6181530
  energy:            130.7618136

- temperature:       284.0000000
  free_energy:       124.8780735
  entropy:            21.0976259
  heat_capacity:      54.3673934
  energy:            130.8697992

- temperature:       286.0000000
  free_energy:       124.8354945
  entropy:            21.4817769
  heat_capacity:      55.1159490
  energy:            130.9792827

- temperature:       288.0000000
  free_energy:       124.7921447
  entropy:            21.8684646
  heat_capacity:      55.8637088
  energy:            131.0902625

- temperature:       290.0000000
  free_energy:       124.7480190
  entropy:            22.2576481
  heat_capacity:      56.6105648
  energy:            131.2027369

- temperature:       292.0000000
  free_energy:       124.7031125
  entropy:            22.6492864
  heat_capacity:      57.3564117
  energy:            131.3167041

- temperature:       294.0000000
  free_energy:       124.6574202
  entropy:            23.0433388
  heat_capacity:      58.1011471
  energy:            131.4321618

- temperature:       296.0000000
  free_energy:       124.6109375
  entropy:            23.4397647
  heat_capacity:      58.8446712
  energy:            131.5491079

- temperature:       298.0000000
  free_energy:       124.5636596
  entropy:            23.8385236
  heat_capacity:      59.5868871
  energy:            131.6675397

- temperature:       300.0000000
  free_energy:       124.5155819
  entropy:            24.2395753
  heat_capacity:      60.3277008
  energy:            131.7874545

- temperature:       302.0000000
  free_energy:       124.4666998
  entropy:            24.6428796
  heat_capacity:      61.0670206
  energy:            131.9088495

- temperature:       304.0000000
  free_energy:       124.4170089
  entropy:            25.0483967
  heat_capacity:      61.8047579
  energy:            132.0317215

- temperature:       306.0000000
  free_energy:       124.3665048
  entropy:            25.4560869
  heat_capacity:      62.5408264
  energy:            132.1560674

- temperature:       308.0000000
  free_energy:       124.3151831
  entropy:            25.8659108
  heat_capacity:      63.2751427
  energy:            132.2818837

- temperature:       310.0000000
  free_energy:       124.2630397
  entropy:            26.2778290
  heat_capacity:      64.0076259
  energy:            132.4091667

- temperature:       312.0000000
  free_energy:       124.2100705
  entropy:            26.6918027
  heat_capacity:      64.7381974
  energy:            132.5379129

- temperature:       314.0000000
  free_energy:       124.1562712
  entropy:            27.1077930
  heat_capacity:      65.4667815
  energy:            132.6681182

- temperature:       316.0000000
  free_energy:       124.1016380
  entropy:            27.5257616
  heat_capacity:      66.1933048
  energy:            132.7997786

- temperature:       318.0000000
  free_energy:       124.0461669
  entropy:            27.9456703
  heat_capacity:      66.9176963
  energy:            132.9328900

- temperature:       320.0000000
  free_energy:       123.9898540
  entropy:            28.3674811
  heat_capacity:      67.6398875
  energy:            133.0674480

- temperature:       322.0000000
  free_energy:       123.9326957
  entropy:            28.7911564
  heat_capacity:      68.3598121
  energy:            133.2034480

- temperature:       324.0000000
  free_energy:       123.8746882
  entropy:            29.2166589
  heat_capacity:      69.0774064
  energy:            133.3408856

- temperature:       326.0000000
  free_energy:       123.8158279
  entropy:            29.6439516
  heat_capacity:      69.7926086
  energy:            133.4797561

- temperature:       328.0000000
  free_energy:       123.7561112
  entropy:            30.0729977
  heat_capacity:      70.5053597
  energy:            133.6200544

- temperature:       330.0000000
  free_energy:       123.6955347
  entropy:            30.5037609
  heat_capacity:      71.2156023
  energy:            133.7617758

- temperature:       332.0000000
  free_energy:       123.6340950
  entropy:            30.9362052
  heat_capacity:      71.9232815
  energy:            133.9049151

- temperature:       334.0000000
  free_energy:       123.5717888
  entropy:            31.3702946
  heat_capacity:      72.6283446
  energy:            134.0494672

- temperature:       336.0000000
  free_energy:       123.5086128
  entropy:            31.8059940
  heat_capacity:      73.3307408
  energy:            134.1954267

- temperature:       338.0000000
  free_energy:       123.4445638
  entropy:            32.2432680
  heat_capacity:      74.0304213
  energy:            134.3427884

- temperature:       340.0000000
  free_energy:       123.3796387
  entropy:            32.6820821
  heat_capacity:      74.7273396
  energy:            134.4915466

- temperature:       342.0000000
  free_energy:       123.3138344
  entropy:            33.1224018
  heat_capacity:      75.4214508
  energy:            134.6416959

- temperature:       344.0000000
  free_energy:       123.2471481
  entropy:            33.5641930
  heat_capacity:      76.1127121
  energy:            134.7932305

- temperature:       346.0000000
  free_energy:       123.1795767
  entropy:            34.0074221
  heat_capacity:      76.8010827
  energy:            134.9461448

- temperature:       348.0000000
  free_energy:       123.1111175
  entropy:            34.4520558
  heat_capacity:      77.4865235
  energy:            135.1004329

- temperature:       350.0000000
  free_energy:       123.0417676
  entropy:            34.8980609
  heat_capacity:      78.1689970
  energy:            135.2560889

- temperature:       352.0000000
  free_energy:       122.9715243
  entropy:            35.3454049
  heat_capacity:      78.8484679
  energy:            135.4131069

- temperature:       354.0000000
  free_energy:       122.9003851
  entropy:            35.7940555
  heat_capacity:      79.5249023
  energy:            135.5714807

- temperature:       356.0000000
  free_energy:       122.8283473
  entropy:            36.2439808