<?xml version="1.0" encoding="ISO-8859-1"?>
<modeling>
 <generator>
  <i name="program" type="string">vasp </i>
  <i name="version" type="string">5.4.4.18Apr17-6-g9f103f2a35  </i>
  <i name="subversion" type="string">(build Mar 12 2022 03:36:41) complex            parallel </i>
  <i name="platform" type="string">IFC19.0.3.199_CrayMPICH7.7.19 </i>
  <i name="date" type="string">2022 12 01 </i>
  <i name="time" type="string">07:44:28 </i>
 </generator>
 <incar>
  <i type="string" name="PREC">accurate</i>
  <i type="int" name="IALGO">    38</i>
  <i type="logical" name="ADDGRID"> T  </i>
  <i type="int" name="IBRION">     8</i>
  <i name="EDIFF">      0.00000001</i>
  <i type="logical" name="LREAL"> F  </i>
  <i type="int" name="ISMEAR">     0</i>
  <i name="SIGMA">      0.06000000</i>
  <i type="logical" name="LWAVE"> F  </i>
  <i type="logical" name="LCHARG"> F  </i>
  <v type="int" name="KPOINT_BSE">    -1     0     0     0</v>
 </incar>
 <structure name="primitive_cell" >
  <crystal>
   <varray name="basis" >
    <v>       1.83968000       1.83968000      -0.00000000 </v>
    <v>       1.83968000       0.00000000      -1.83968000 </v>
    <v>       0.00000000       1.83968000      -1.83968000 </v>
   </varray>
   <i name="volume">     12.45250878 </i>
   <varray name="rec_basis" >
    <v>       0.27178640       0.27178640       0.27178640 </v>
    <v>       0.27178640      -0.27178640      -0.27178640 </v>
    <v>      -0.27178640       0.27178640      -0.27178640 </v>
   </varray>
  </crystal>
  <varray name="positions" >
   <v>       0.25000000       0.25000000       0.25000000 </v>
   <v>      -0.50000000      -0.50000000      -0.50000000 </v>
  </varray>
 </structure>
 <varray name="primitive_index" >
  <v type="int" >        1 </v>
  <v type="int" >       11 </v>
 </varray>
 <kpoints>
  <generation param="Gamma">
   <v type="int" name="divisions">       8        8        8 </v>
   <v name="usershift">      0.00000000       0.00000000       0.00000000 </v>
   <v name="genvec1">      0.12500000       0.00000000       0.00000000 </v>
   <v name="genvec2">      0.00000000       0.12500000       0.00000000 </v>
   <v name="genvec3">      0.00000000       0.00000000       0.12500000 </v>
   <v name="shift">      0.00000000       0.00000000       0.00000000 </v>
  </generation>
  <varray name="kpointlist" >
   <v>       0.00000000       0.00000000       0.00000000 </v>
   <v>       0.12500000       0.00000000       0.00000000 </v>
   <v>       0.25000000       0.00000000       0.00000000 </v>
   <v>       0.37500000       0.00000000       0.00000000 </v>
   <v>       0.50000000       0.00000000       0.00000000 </v>
   <v>       0.12500000       0.12500000       0.00000000 </v>
   <v>       0.25000000       0.12500000       0.00000000 </v>
   <v>       0.37500000       0.12500000       0.00000000 </v>
   <v>       0.50000000       0.12500000       0.00000000 </v>
   <v>       0.25000000       0.25000000       0.00000000 </v>
   <v>       0.37500000       0.25000000       0.00000000 </v>
   <v>       0.50000000       0.25000000       0.00000000 </v>
   <v>       0.37500000       0.37500000       0.00000000 </v>
   <v>       0.50000000       0.37500000       0.00000000 </v>
   <v>       0.50000000       0.50000000       0.00000000 </v>
   <v>       0.12500000       0.12500000       0.12500000 </v>
   <v>       0.25000000       0.12500000       0.12500000 </v>
   <v>       0.37500000       0.12500000       0.12500000 </v>
   <v>       0.50000000       0.12500000       0.12500000 </v>
   <v>       0.25000000       0.25000000       0.12500000 </v>
   <v>       0.37500000       0.25000000       0.12500000 </v>
   <v>       0.50000000       0.25000000       0.12500000 </v>
   <v>       0.37500000       0.37500000       0.12500000 </v>
   <v>       0.50000000       0.37500000       0.12500000 </v>
   <v>       0.50000000       0.50000000       0.12500000 </v>
   <v>       0.25000000       0.25000000       0.25000000 </v>
   <v>       0.37500000       0.25000000       0.25000000 </v>
   <v>       0.50000000       0.25000000       0.25000000 </v>
   <v>       0.37500000       0.37500000       0.25000000 </v>
   <v>       0.50000000       0.37500000       0.25000000 </v>
   <v>       0.50000000       0.50000000       0.25000000 </v>
   <v>       0.37500000       0.37500000       0.37500000 </v>
   <v>       0.50000000       0.37500000       0.37500000 </v>
   <v>       0.50000000       0.50000000       0.37500000 </v>
   <v>       0.50000000       0.50000000       0.50000000 </v>
  </varray>
  <varray name="weights" >
   <v>       0.00195312 </v>
   <v>       0.01171875 </v>
   <v>       0.01171875 </v>
   <v>       0.01171875 </v>
   <v>       0.00585938 </v>
   <v>       0.02343750 </v>
   <v>       0.04687500 </v>
   <v>       0.04687500 </v>
   <v>       0.02343750 </v>
   <v>       0.02343750 </v>
   <v>       0.04687500 </v>
   <v>       0.02343750 </v>
   <v>       0.02343750 </v>
   <v>       0.02343750 </v>
   <v>       0.00585938 </v>
   <v>       0.01562500 </v>
   <v>       0.04687500 </v>
   <v>       0.04687500 </v>
   <v>       0.02343750 </v>
   <v>       0.04687500 </v>
   <v>       0.09375000 </v>
   <v>       0.04687500 </v>
   <v>       0.04687500 </v>
   <v>       0.04687500 </v>
   <v>       0.01171875 </v>
   <v>       0.01562500 </v>
   <v>       0.04687500 </v>
   <v>       0.02343750 </v>
   <v>       0.04687500 </v>
   <v>       0.04687500 </v>
   <v>       0.01171875 </v>
   <v>       0.01562500 </v>
   <v>       0.02343750 </v>
   <v>       0.01171875 </v>
   <v>       0.00195312 </v>
  </varray>
 </kpoints>
 <parameters>
  <separator name="general" >
   <i type="string" name="SYSTEM">unknown system</i>
   <i type="logical" name="LCOMPAT"> F  </i>
  </separator>
  <separator name="electronic" >
   <i type="string" name="PREC">accura</i>
   <i name="ENMAX">    400.00000000</i>
   <i name="ENAUG">    644.87300000</i>
   <i name="EDIFF">      0.00000001</i>
   <i type="int" name="IALGO">    38</i>
   <i type="int" name="IWAVPR">    11</i>
   <i type="int" name="NBANDS">   192</i>
   <i name="NELECT">    256.00000000</i>
   <i type="int" name="TURBO">     0</i>
   <i type="int" name="IRESTART">     0</i>
   <i type="int" name="NREBOOT">     0</i>
   <i type="int" name="NMIN">     0</i>
   <i name="EREF">      0.00000000</i>
   <separator name="electronic smearing" >
    <i type="int" name="ISMEAR">     0</i>
    <i name="SIGMA">      0.06000000</i>
    <i name="KSPACING">      0.50000000</i>
    <i type="logical" name="KGAMMA"> T  </i>
   </separator>
   <separator name="electronic projectors" >
    <i type="logical" name="LREAL"> F  </i>
    <v name="ROPT">      0.00000000</v>
    <i type="int" name="LMAXPAW">  -100</i>
    <i type="int" name="LMAXMIX">     2</i>
    <i type="logical" name="NLSPLINE"> F  </i>
   </separator>
   <separator name="electronic startup" >
    <i type="int" name="ISTART">     0</i>
    <i type="int" name="ICHARG">     2</i>
    <i type="int" name="INIWAV">     1</i>
   </separator>
   <separator name="electronic spin" >
    <i type="int" name="ISPIN">     1</i>
    <i type="logical" name="LNONCOLLINEAR"> F  </i>
    <v name="MAGMOM">      1.00000000      1.00000000      1.00000000      1.00000000      1.00000000      1.00000000      1.00000000      1.00000000      1.00000000      1.00000000      1.00000000      1.00000000      1.00000000      1.00000000      1.00000000      1.00000000      1.00000000      1.00000000      1.00000000      1.00000000
      1.00000000      1.00000000      1.00000000      1.00000000      1.00000000      1.00000000      1.00000000      1.00000000      1.00000000      1.00000000      1.00000000      1.00000000      1.00000000      1.00000000      1.00000000      1.00000000      1.00000000      1.00000000      1.00000000      1.00000000
      1.00000000      1.00000000      1.00000000      1.00000000      1.00000000      1.00000000      1.00000000      1.00000000      1.00000000      1.00000000      1.00000000      1.00000000      1.00000000      1.00000000      1.00000000      1.00000000      1.00000000      1.00000000      1.00000000      1.00000000
      1.00000000      1.00000000      1.00000000      1.00000000</v>
    <i name="NUPDOWN">     -1.00000000</i>
    <i type="logical" name="LSORBIT"> F  </i>
    <v name="SAXIS">      0.00000000      0.00000000      1.00000000</v>
    <i type="logical" name="LSPIRAL"> F  </i>
    <v name="QSPIRAL">      0.00000000      0.00000000      0.00000000</v>
    <i type="logical" name="LZEROZ"> F  </i>
   </separator>
   <separator name="electronic exchange-correlation" >
    <i type="logical" name="LASPH"> F  </i>
    <i type="logical" name="LMETAGGA"> F  </i>
   </separator>
   <separator name="electronic convergence" >
    <i type="int" name="NELM">    60</i>
    <i type="int" name="NELMDL">    -5</i>
    <i type="int" name="NELMIN">     2</i>
    <i name="ENINI">    400.00000000</i>
    <separator name="electronic convergence detail" >
     <i type="logical" name="LDIAG"> T  </i>
     <i type="logical" name="LSUBROT"> F  </i>
     <i name="WEIMIN">      0.00100000</i>
     <i name="EBREAK">      0.00000000</i>
     <i name="DEPER">      0.30000000</i>
     <i type="int" name="NRMM">     4</i>
     <i name="TIME">      0.40000000</i>
    </separator>
   </separator>
   <separator name="electronic mixer" >
    <i name="AMIX">      0.40000000</i>
    <i name="BMIX">      1.00000000</i>
    <i name="AMIN">      0.10000000</i>
    <i name="AMIX_MAG">      1.60000000</i>
    <i name="BMIX_MAG">      1.00000000</i>
    <separator name="electronic mixer details" >
     <i type="int" name="IMIX">     4</i>
     <i type="logical" name="MIXFIRST"> F  </i>
     <i type="int" name="MAXMIX">   -45</i>
     <i name="WC">    100.00000000</i>
     <i type="int" name="INIMIX">     1</i>
     <i type="int" name="MIXPRE">     1</i>
     <i type="int" name="MREMOVE">     5</i>
    </separator>
   </separator>
   <separator name="electronic dipolcorrection" >
    <i type="logical" name="LDIPOL"> F  </i>
    <i type="logical" name="LMONO"> F  </i>
    <i type="int" name="IDIPOL">     0</i>
    <i name="EPSILON">      1.00000000</i>
    <v name="DIPOL">   -100.00000000   -100.00000000   -100.00000000</v>
    <i name="EFIELD">      0.00000000</i>
   </separator>
  </separator>
  <separator name="grids" >
   <i type="int" name="NGX">    48</i>
   <i type="int" name="NGY">    48</i>
   <i type="int" name="NGZ">    48</i>
   <i type="int" name="NGXF">    96</i>
   <i type="int" name="NGYF">    96</i>
   <i type="int" name="NGZF">    96</i>
   <i type="logical" name="ADDGRID"> T  </i>
  </separator>
  <separator name="ionic" >
   <i type="int" name="NSW">     1</i>
   <i type="int" name="IBRION">     8</i>
   <i type="int" name="MDALGO">     0</i>
   <i type="int" name="ISIF">     2</i>
   <i name="PSTRESS">      0.00000000</i>
   <i name="EDIFFG">      0.00000010</i>
   <i type="int" name="NFREE">     0</i>
   <i name="POTIM">      0.50000000</i>
   <i name="SMASS">     -3.00000000</i>
   <i name="SCALEE">      1.00000000</i>
  </separator>
  <separator name="ionic md" >
   <i name="TEBEG">      0.00010000</i>
   <i name="TEEND">      0.00010000</i>
   <i type="int" name="NBLOCK">     1</i>
   <i type="int" name="KBLOCK">     1</i>
   <i type="int" name="NPACO">   256</i>
   <i name="APACO">     16.00000000</i>
  </separator>
  <separator name="symmetry" >
   <i type="int" name="ISYM">     2</i>
   <i name="SYMPREC">      0.00001000</i>
  </separator>
  <separator name="dos" >
   <i type="int" name="LORBIT">     0</i>
   <v name="RWIGS">     -1.00000000</v>
   <i type="int" name="NEDOS">   301</i>
   <i name="EMIN">     10.00000000</i>
   <i name="EMAX">    -10.00000000</i>
   <i name="EFERMI">      0.00000000</i>
  </separator>
  <separator name="writing" >
   <i type="int" name="NWRITE">     2</i>
   <i type="logical" name="LWAVE"> F  </i>
   <i type="logical" name="LDOWNSAMPLE"> F  </i>
   <i type="logical" name="LCHARG"> F  </i>
   <i type="logical" name="LPARD"> F  </i>
   <i type="logical" name="LVTOT"> F  </i>
   <i type="logical" name="LVHAR"> F  </i>
   <i type="logical" name="LELF"> F  </i>
   <i type="logical" name="LOPTICS"> F  </i>
   <v name="STM">      0.00000000      0.00000000      0.00000000      0.00000000      0.00000000      0.00000000      0.00000000</v>
  </separator>
  <separator name="performance" >
   <i type="int" name="NPAR">    32</i>
   <i type="int" name="NSIM">     4</i>
   <i type="int" name="NBLK">    -1</i>
   <i type="logical" name="LPLANE"> T  </i>
   <i type="logical" name="LSCALAPACK"> T  </i>
   <i type="logical" name="LSCAAWARE"> F  </i>
   <i type="logical" name="LSCALU"> F  </i>
   <i type="logical" name="LASYNC"> F  </i>
   <i type="logical" name="LORBITALREAL"> F  </i>
  </separator>
  <separator name="miscellaneous" >
   <i type="int" name="IDIOT">     3</i>
   <i type="int" name="ISPECIAL">     0</i>
   <i type="logical" name="LMUSIC"> F  </i>
   <v name="POMASS">     12.01100000</v>
   <v name="DARWINR">      0.00000000</v>
   <v name="DARWINV">      1.00000000</v>
   <i type="logical" name="LCORR"> T  </i>
  </separator>
  <i type="logical" name="GGA_COMPAT"> T  </i>
  <i type="logical" name="LBERRY"> F  </i>
  <i type="int" name="ICORELEVEL">     0</i>
  <i type="logical" name="LDAU"> F  </i>
  <i type="int" name="I_CONSTRAINED_M">     0</i>
  <separator name="electronic exchange-correlation" >
   <i type="string" name="GGA">--</i>
   <i type="int" name="VOSKOWN">     0</i>
   <i type="logical" name="LHFCALC"> F  </i>
   <i type="string" name="PRECFOCK"></i>
   <i type="logical" name="LSYMGRAD"> F  </i>
   <i type="logical" name="LHFONE"> F  </i>
   <i type="logical" name="LRHFCALC"> F  </i>
   <i type="logical" name="LTHOMAS"> F  </i>
   <i type="logical" name="LMODELHF"> F  </i>
   <i name="ENCUT4O">     -1.00000000</i>
   <i type="int" name="EXXOEP">     0</i>
   <i type="int" name="FOURORBIT">     0</i>
   <i name="AEXX">      0.00000000</i>
   <i name="HFALPHA">      0.00000000</i>
   <i name="MCALPHA">      0.00000000</i>
   <i name="ALDAX">      1.00000000</i>
   <i name="AGGAX">      1.00000000</i>
   <i name="ALDAC">      1.00000000</i>
   <i name="AGGAC">      1.00000000</i>
   <i type="int" name="NKREDX">     1</i>
   <i type="int" name="NKREDY">     1</i>
   <i type="int" name="NKREDZ">     1</i>
   <i type="logical" name="SHIFTRED"> F  </i>
   <i type="logical" name="ODDONLY"> F  </i>
   <i type="logical" name="EVENONLY"> F  </i>
   <i type="int" name="LMAXFOCK">     0</i>
   <i type="int" name="NMAXFOCKAE">     0</i>
   <i type="logical" name="LFOCKAEDFT"> F  </i>
   <i name="HFSCREEN">      0.00000000</i>
   <i name="HFSCREENC">      0.00000000</i>
   <i type="int" name="NBANDSGWLOW">     0</i>
  </separator>
  <separator name="vdW DFT" >
   <i type="logical" name="LUSE_VDW"> F  </i>
   <i name="Zab_VDW">     -0.84910000</i>
   <i name="PARAM1">      0.12340000</i>
   <i name="PARAM2">      1.00000000</i>
   <i name="PARAM3">      0.00000000</i>
  </separator>
  <separator name="model GW" >
   <i type="int" name="MODEL_GW">     0</i>
   <i name="MODEL_EPS0">      3.73575263</i>
   <i name="MODEL_ALPHA">      1.00000000</i>
  </separator>
  <separator name="linear response parameters" >
   <i type="logical" name="LEPSILON"> F  </i>
   <i type="logical" name="LRPA"> F  </i>
   <i type="logical" name="LNABLA"> F  </i>
   <i type="logical" name="LVEL"> F  </i>
   <i type="int" name="KINTER">     0</i>
   <i name="CSHIFT">      0.10000000</i>
   <i name="OMEGAMAX">     -1.00000000</i>
   <i name="DEG_THRESHOLD">      0.00200000</i>
   <i name="RTIME">     -0.10000000</i>
   <i name="WPLASMAI">      0.00000000</i>
   <v name="DFIELD">      0.00000000      0.00000000      0.00000000</v>
   <v name="WPLASMA">      0.00000000      0.00000000      0.00000000      0.00000000      0.00000000      0.00000000      0.00000000      0.00000000      0.00000000</v>
  </separator>
  <separator name="orbital magnetization" >
   <i type="logical" name="NUCIND"> F  </i>
   <v name="MAGPOS">      0.00000000      0.00000000      0.00000000</v>
   <i type="logical" name="LNICSALL"> T  </i>
   <i type="logical" name="ORBITALMAG"> F  </i>
   <i type="logical" name="LMAGBLOCH"> F  </i>
   <i type="logical" name="LCHIMAG"> F  </i>
   <i type="logical" name="LGAUGE"> T  </i>
   <i type="int" name="MAGATOM">     0</i>
   <v name="MAGDIPOL">      0.00000000      0.00000000      0.00000000</v>
   <v name="AVECCONST">      0.00000000      0.00000000      0.00000000</v>
  </separator>
  <separator name="response functions" >
   <i type="logical" name="LADDER"> F  </i>
   <i type="logical" name="LRPAFORCE"> F  </i>
   <i type="logical" name="LFXC"> F  </i>
   <i type="logical" name="LHARTREE"> T  </i>
   <i type="int" name="IBSE">     0</i>
   <v type="int" name="KPOINT">    -1     0     0     0</v>
   <i type="logical" name="LTCTE"> F  </i>
   <i type="logical" name="LTETE"> F  </i>
   <i type="logical" name="LTRIPLET"> F  </i>
   <i type="logical" name="LFXCEPS"> F  </i>
   <i type="logical" name="LFXHEG"> F  </i>
   <i type="int" name="NATURALO">     2</i>
   <i type="logical" name="L2ORDER"> F  </i>
   <i type="logical" name="LMP2LT"> F  </i>
   <i type="logical" name="LUSEW"> F  </i>
   <i name="ENCUTGW">     -2.00000000</i>
   <i name="ENCUTGWSOFT">     -2.00000000</i>
   <i name="ENCUTLF">     -1.00000000</i>
   <i type="int" name="LMAXMP2">    -1</i>
   <i name="SCISSOR">      0.00000000</i>
   <i type="int" name="NOMEGA">     0</i>
   <i type="int" name="NOMEGAR">     0</i>
   <i type="int" name="NBANDSGW">    -1</i>
   <i type="int" name="NBANDSO">    -1</i>
   <i type="int" name="NBANDSV">    -1</i>
   <i type="int" name="NELM">     1</i>
   <i type="int" name="NELMHF">     1</i>
   <i type="int" name="DIM">     3</i>
   <i type="int" name="ANTIRES">     0</i>
   <i name="OMEGAMAX">    -30.00000000</i>
   <i name="OMEGAMIN">    -30.00000000</i>
   <i name="OMEGATL">   -200.00000000</i>
   <i type="int" name="OMEGAGRID">   140</i>
   <i name="CSHIFT">     -0.10000000</i>
   <i type="logical" name="SELFENERGY"> F  </i>
   <i type="logical" name="LSPECTRAL"> F  </i>
   <i type="logical" name="LSPECTRALGW"> F  </i>
   <i type="logical" name="LSINGLES"> F  </i>
   <i type="logical" name="LFERMIGW"> F  </i>
   <i type="logical" name="ODDONLYGW"> F  </i>
   <i type="logical" name="EVENONLYGW"> F  </i>
   <i type="int" name="NKREDLFX">     1</i>
   <i type="int" name="NKREDLFY">     1</i>
   <i type="int" name="NKREDLFZ">     1</i>
   <i type="int" name="MAXMEM">  2800</i>
   <i type="int" name="TELESCOPE">     0</i>
   <i type="int" name="TAUPAR">     1</i>
   <i type="int" name="OMEGAPAR">    -1</i>
   <i name="LAMBDA">      1.00000000</i>
  </separator>
  <separator name="External order field" >
   <i name="OFIELD_KAPPA">      0.00000000</i>
   <v name="OFIELD_K">      0.00000000      0.00000000      0.00000000</v>
   <i name="OFIELD_Q6_NEAR">      0.00000000</i>
   <i name="OFIELD_Q6_FAR">      0.00000000</i>
   <i name="OFIELD_A">      0.00000000</i>
  </separator>
 </parameters>
 <atominfo>
  <atoms>      64 </atoms>
  <types>       1 </types>
  <array name="atoms" >
   <dimension dim="1">ion</dimension>
   <field type="string">element</field>
   <field type="int">atomtype</field>
   <set>
    <rc><c>C </c><c>   1</c></rc>
    <rc><c>C </c><c>   1</c></rc>
    <rc><c>C </c><c>   1</c></rc>
    <rc><c>C </c><c>   1</c></rc>
    <rc><c>C </c><c>   1</c></rc>
    <rc><c>C </c><c>   1</c></rc>
    <rc><c>C </c><c>   1</c></rc>
    <rc><c>C </c><c>   1</c></rc>
    <rc><c>C </c><c>   1</c></rc>
    <rc><c>C </c><c>   1</c></rc>
    <rc><c>C </c><c>   1</c></rc>
    <rc><c>C </c><c>   1</c></rc>
    <rc><c>C </c><c>   1</c></rc>
    <rc><c>C </c><c>   1</c></rc>
    <rc><c>C </c><c>   1</c></rc>
    <rc><c>C </c><c>   1</c></rc>
    <rc><c>C </c><c>   1</c></rc>
    <rc><c>C </c><c>   1</c></rc>
    <rc><c>C </c><c>   1</c></rc>
    <rc><c>C </c><c>   1</c></rc>
    <rc><c>C </c><c>   1</c></rc>
    <rc><c>C </c><c>   1</c></rc>
    <rc><c>C </c><c>   1</c></rc>
    <rc><c>C </c><c>   1</c></rc>
    <rc><c>C </c><c>   1</c></rc>
    <rc><c>C </c><c>   1</c></rc>
    <rc><c>C </c><c>   1</c></rc>
    <rc><c>C </c><c>   1</c></rc>
    <rc><c>C </c><c>   1</c></rc>
    <rc><c>C </c><c>   1</c></rc>
    <rc><c>C </c><c>   1</c></rc>
    <rc><c>C </c><c>   1</c></rc>
    <rc><c>C </c><c>   1</c></rc>
    <rc><c>C </c><c>   1</c></rc>
    <rc><c>C </c><c>   1</c></rc>
    <rc><c>C </c><c>   1</c></rc>
    <rc><c>C </c><c>   1</c></rc>
    <rc><c>C </c><c>   1</c></rc>
    <rc><c>C </c><c>   1</c></rc>
    <rc><c>C </c><c>   1</c></rc>
    <rc><c>C </c><c>   1</c></rc>
    <rc><c>C </c><c>   1</c></rc>
    <rc><c>C </c><c>   1</c></rc>
    <rc><c>C </c><c>   1</c></rc>
    <rc><c>C </c><c>   1</c></rc>
    <rc><c>C </c><c>   1</c></rc>
    <rc><c>C </c><c>   1</c></rc>
    <rc><c>C </c><c>   1</c></rc>
    <rc><c>C </c><c>   1</c></rc>
    <rc><c>C </c><c>   1</c></rc>
    <rc><c>C </c><c>   1</c></rc>
    <rc><c>C </c><c>   1</c></rc>
    <rc><c>C </c><c>   1</c></rc>
    <rc><c>C </c><c>   1</c></rc>
    <rc><c>C </c><c>   1</c></rc>
    <rc><c>C </c><c>   1</c></rc>
    <rc><c>C </c><c>   1</c></rc>
    <rc><c>C </c><c>   1</c></rc>
    <rc><c>C </c><c>   1</c></rc>
    <rc><c>C </c><c>   1</c></rc>
    <rc><c>C </c><c>   1</c></rc>
    <rc><c>C </c><c>   1</c></rc>
    <rc><c>C </c><c>   1</c></rc>
    <rc><c>C </c><c>   1</c></rc>
   </set>
  </array>
  <array name="atomtypes" >
   <dimension dim="1">type</dimension>
   <field type="int">atomspertype</field>
   <field type="string">element</field>
   <field>mass</field>
   <field>valence</field>
   <field type="string">pseudopotential</field>
   <set>
    <rc><c>  64</c><c>C </c><c>     12.01100000</c><c>      4.00000000</c><c> PAW_PBE C 08Apr2002                    </c></rc>
   </set>
  </array>
 </atominfo>
 <structure name="initialpos" >
  <crystal>
   <varray name="basis" >
    <v>       7.35872000       0.00000000       0.00000000 </v>
    <v>       0.00000000       7.35872000       0.00000000 </v>
    <v>       0.00000000       0.00000000       7.35872000 </v>
   </varray>
   <i name="volume">    398.48028091 </i>
   <varray name="rec_basis" >
    <v>       0.13589320       0.00000000       0.00000000 </v>
    <v>       0.00000000       0.13589320       0.00000000 </v>
    <v>       0.00000000       0.00000000       0.13589320 </v>
   </varray>
  </crystal>
  <varray name="positions" >
   <v>       0.12500000       0.37500000       0.12500000 </v>
   <v>       0.62500000       0.37500000       0.12500000 </v>
   <v>       0.12500000       0.87500000       0.12500000 </v>
   <v>       0.62500000       0.87500000       0.12500000 </v>
   <v>       0.12500000       0.37500000       0.62500000 </v>
   <v>       0.62500000       0.37500000       0.62500000 </v>
   <v>       0.12500000       0.87500000       0.62500000 </v>
   <v>       0.62500000       0.87500000       0.62500000 </v>
   <v>       0.00000000       0.00000000       0.25000000 </v>
   <v>       0.50000000       0.00000000       0.25000000 </v>
   <v>       0.00000000       0.50000000       0.25000000 </v>
   <v>       0.50000000       0.50000000       0.25000000 </v>
   <v>       0.00000000       0.00000000       0.75000000 </v>
   <v>       0.50000000       0.00000000       0.75000000 </v>
   <v>       0.00000000       0.50000000       0.75000000 </v>
   <v>       0.50000000       0.50000000       0.75000000 </v>
   <v>       0.12500000       0.12500000       0.37500000 </v>
   <v>       0.62500000       0.12500000       0.37500000 </v>
   <v>       0.12500000       0.62500000       0.37500000 </v>
   <v>       0.62500000       0.62500000       0.37500000 </v>
   <v>       0.12500000       0.12500000       0.87500000 </v>
   <v>       0.62500000       0.12500000       0.87500000 </v>
   <v>       0.12500000       0.62500000       0.87500000 </v>
   <v>       0.62500000       0.62500000       0.87500000 </v>
   <v>       0.00000000       0.25000000       0.00000000 </v>
   <v>       0.50000000       0.25000000       0.00000000 </v>
   <v>       0.00000000       0.75000000       0.00000000 </v>
   <v>       0.50000000       0.75000000       0.00000000 </v>
   <v>       0.00000000       0.25000000       0.50000000 </v>
   <v>       0.50000000       0.25000000       0.50000000 </v>
   <v>       0.00000000       0.75000000       0.50000000 </v>
   <v>       0.50000000       0.75000000       0.50000000 </v>
   <v>       0.37500000       0.37500000       0.37500000 </v>
   <v>       0.87500000       0.37500000       0.37500000 </v>
   <v>       0.37500000       0.87500000       0.37500000 </v>
   <v>       0.87500000       0.87500000       0.37500000 </v>
   <v>       0.37500000       0.37500000       0.87500000 </v>
   <v>       0.87500000       0.37500000       0.87500000 </v>
   <v>       0.37500000       0.87500000       0.87500000 </v>
   <v>       0.87500000       0.87500000       0.87500000 </v>
   <v>       0.25000000       0.00000000       0.00000000 </v>
   <v>       0.75000000       0.00000000       0.00000000 </v>
   <v>       0.25000000       0.50000000       0.00000000 </v>
   <v>       0.75000000       0.50000000       0.00000000 </v>
   <v>       0.25000000       0.00000000       0.50000000 </v>
   <v>       0.75000000       0.00000000       0.50000000 </v>
   <v>       0.25000000       0.50000000       0.50000000 </v>
   <v>       0.75000000       0.50000000       0.50000000 </v>
   <v>       0.37500000       0.12500000       0.12500000 </v>
   <v>       0.87500000       0.12500000       0.12500000 </v>
   <v>       0.37500000       0.62500000       0.12500000 </v>
   <v>       0.87500000       0.62500000       0.12500000 </v>
   <v>       0.37500000       0.12500000       0.62500000 </v>
   <v>       0.87500000       0.12500000       0.62500000 </v>
   <v>       0.37500000       0.62500000       0.62500000 </v>
   <v>       0.87500000       0.62500000       0.62500000 </v>
   <v>       0.25000000       0.25000000       0.25000000 </v>
   <v>       0.75000000       0.25000000       0.25000000 </v>
   <v>       0.25000000       0.75000000       0.25000000 </v>
   <v>       0.75000000       0.75000000       0.25000000 </v>
   <v>       0.25000000       0.25000000       0.75000000 </v>
   <v>       0.75000000       0.25000000       0.75000000 </v>
   <v>       0.25000000       0.75000000       0.75000000 </v>
   <v>       0.75000000       0.75000000       0.75000000 </v>
  </varray>
 </structure>
 <calculation>
  <scstep>
   <time name="dav">   25.06   25.07</time>
   <time name="total">   25.19   25.25</time>
   <energy>
    <i name="alphaZ">    837.53893915 </i>
    <i name="ewald"> -10794.05241092 </i>
    <i name="hartreedc">   -631.10828658 </i>
    <i name="XCdc">    896.68594405 </i>
    <i name="pawpsdc">   2421.21235816 </i>
    <i name="pawaedc">  -2494.84305711 </i>
    <i name="eentropy">     -0.01537189 </i>
    <i name="bandstr">    846.86865480 </i>
    <i name="atom">   9416.14232778 </i>
    <i name="e_fr_energy">    498.42909744 </i>
    <i name="e_wo_entrp">    498.44446932 </i>
    <i name="e_0_energy">    498.43678338 </i>
   </energy>
  </scstep>
  <scstep>
   <time name="dav">   31.32   31.33</time>
   <time name="total">   31.33   31.33</time>
   <energy>
    <i name="e_fr_energy">   -550.08174993 </i>
    <i name="e_wo_entrp">   -550.08174993 </i>
    <i name="e_0_energy">   -550.08174993 </i>
   </energy>
  </scstep>
  <scstep>
   <time name="dav">   31.45   31.46</time>
   <time name="total">   31.46   31.46</time>
   <energy>
    <i name="e_fr_energy">   -592.76880440 </i>
    <i name="e_wo_entrp">   -592.76880440 </i>
    <i name="e_0_energy">   -592.76880440 </i>
   </energy>
  </scstep>
  <scstep>
   <time name="dav">   32.13   32.13</time>
   <time name="total">   32.14   32.14</time>
   <energy>
    <i name="e_fr_energy">   -593.29978498 </i>
    <i name="e_wo_entrp">   -593.29978498 </i>
    <i name="e_0_energy">   -593.29978498 </i>
   </energy>
  </scstep>
  <scstep>
   <time name="dav">   30.27   30.27</time>
   <time name="total">   31.00   31.01</time>
   <energy>
    <i name="e_fr_energy">   -593.30995047 </i>
    <i name="e_wo_entrp">   -593.30995047 </i>
    <i name="e_0_energy">   -593.30995047 </i>
   </energy>
  </scstep>
  <scstep>
   <time name="dav">   28.63   28.64</time>
   <time name="total">   29.47   29.47</time>
   <energy>
    <i name="e_fr_energy">   -582.10245495 </i>
    <i name="e_wo_entrp">   -582.10245495 </i>
    <i name="e_0_energy">   -582.10245495 </i>
   </energy>
  </scstep>
  <scstep>
   <time name="dav">   29.33   29.33</time>
   <time name="total">   30.18   30.18</time>
   <energy>
    <i name="e_fr_energy">   -578.30703907 </i>
    <i name="e_wo_entrp">   -578.30703907 </i>
    <i name="e_0_energy">   -578.30703907 </i>
   </energy>
  </scstep>
  <scstep>
   <time name="dav">   29.47   29.47</time>
   <time name="total">   30.31   30.31</time>
   <energy>
    <i name="e_fr_energy">   -578.35760490 </i>
    <i name="e_wo_entrp">   -578.35760490 </i>
    <i name="e_0_energy">   -578.35760490 </i>
   </energy>
  </scstep>
  <scstep>
   <time name="dav">   31.57   31.57</time>
   <time name="total">   32.44   32.44</time>
   <energy>
    <i name="e_fr_energy">   -578.35976073 </i>
    <i name="e_wo_entrp">   -578.35976073 </i>
    <i name="e_0_energy">   -578.35976073 </i>
   </energy>
  </scstep>
  <scstep>
   <time name="dav">   29.15   29.15</time>
   <time name="total">   29.99   30.00</time>
   <energy>
    <i name="e_fr_energy">   -578.36022537 </i>
    <i name="e_wo_entrp">   -578.36022537 </i>
    <i name="e_0_energy">   -578.36022537 </i>
   </energy>
  </scstep>
  <scstep>
   <time name="dav">   31.66   31.66</time>
   <time name="total">   32.49   32.49</time>
   <energy>
    <i name="e_fr_energy">   -578.36022779 </i>
    <i name="e_wo_entrp">   -578.36022779 </i>
    <i name="e_0_energy">   -578.36022779 </i>
   </energy>
  </scstep>
  <scstep>
   <time name="dav">   31.08   31.08</time>
   <time name="total">   31.92   31.92</time>
   <energy>
    <i name="e_fr_energy">   -578.36022821 </i>
    <i name="e_wo_entrp">   -578.36022821 </i>
    <i name="e_0_energy">   -578.36022821 </i>
   </energy>
  </scstep>
  <scstep>
   <time name="dav">   26.69   26.69</time>
   <time name="total">   27.52   27.52</time>
   <energy>
    <i name="e_fr_energy">   -578.36022833 </i>
    <i name="e_wo_entrp">   -578.36022833 </i>
    <i name="e_0_energy">   -578.36022833 </i>
   </energy>
  </scstep>
  <scstep>
   <time name="dav">   25.16   25.17</time>
   <time name="total">   25.27   25.27</time>
   <energy>
    <i name="alphaZ">    837.53893915 </i>
    <i name="ewald"> -10794.05241092 </i>
    <i name="hartreedc">   -886.93434674 </i>
    <i name="XCdc">    920.62655832 </i>
    <i name="pawpsdc">   3856.68738507 </i>
    <i name="pawaedc">  -3935.86559373 </i>
    <i name="eentropy">     -0.00000000 </i>
    <i name="bandstr">      7.49691275 </i>
    <i name="atom">   9416.14232778 </i>
    <i name="e_fr_energy">   -578.36022833 </i>
    <i name="e_wo_entrp">   -578.36022833 </i>
    <i name="e_0_energy">   -578.36022833 </i>
   </energy>
  </scstep>
  <structure>
   <crystal>
    <varray name="basis" >
     <v>       7.35872000       0.00000000       0.00000000 </v>
     <v>       0.00000000       7.35872000       0.00000000 </v>
     <v>       0.00000000       0.00000000       7.35872000 </v>
    </varray>
    <i name="volume">    398.48028091 </i>
    <varray name="rec_basis" >
     <v>       0.13589320       0.00000000       0.00000000 </v>
     <v>       0.00000000       0.13589320       0.00000000 </v>
     <v>       0.00000000       0.00000000       0.13589320 </v>
    </varray>
   </crystal>
   <varray name="positions" >
    <v>       0.12500000       0.37500000       0.12500000 </v>
    <v>       0.62500000       0.37500000       0.12500000 </v>
    <v>       0.12500000       0.87500000       0.12500000 </v>
    <v>       0.62500000       0.87500000       0.12500000 </v>
    <v>       0.12500000       0.37500000       0.62500000 </v>
    <v>       0.62500000       0.37500000       0.62500000 </v>
    <v>       0.12500000       0.87500000       0.62500000 </v>
    <v>       0.62500000       0.87500000       0.62500000 </v>
    <v>       0.00000000       0.00000000       0.25000000 </v>
    <v>       0.50000000       0.00000000       0.25000000 </v>
    <v>       0.00000000       0.50000000       0.25000000 </v>
    <v>       0.50000000       0.50000000       0.25000000 </v>
    <v>       0.00000000       0.00000000       0.75000000 </v>
    <v>       0.50000000       0.00000000       0.75000000 </v>
    <v>       0.00000000       0.50000000       0.75000000 </v>
    <v>       0.50000000       0.50000000       0.75000000 </v>
    <v>       0.12500000       0.12500000       0.37500000 </v>
    <v>       0.62500000       0.12500000       0.37500000 </v>
    <v>       0.12500000       0.62500000       0.37500000 </v>
    <v>       0.62500000       0.62500000       0.37500000 </v>
    <v>       0.12500000       0.12500000       0.87500000 </v>
    <v>       0.62500000       0.12500000       0.87500000 </v>
    <v>       0.12500000       0.62500000       0.87500000 </v>
    <v>       0.62500000       0.62500000       0.87500000 </v>
    <v>       0.00000000       0.25000000       0.00000000 </v>
    <v>       0.50000000       0.25000000       0.00000000 </v>
    <v>       0.00000000       0.75000000       0.00000000 </v>
    <v>       0.50000000       0.75000000       0.00000000 </v>
    <v>       0.00000000       0.25000000       0.50000000 </v>
    <v>       0.50000000       0.25000000       0.50000000 </v>
    <v>       0.00000000       0.75000000       0.50000000 </v>
    <v>       0.50000000       0.75000000       0.50000000 </v>
    <v>       0.37500000       0.37500000       0.37500000 </v>
    <v>       0.87500000       0.37500000       0.37500000 </v>
    <v>       0.37500000       0.87500000       0.37500000 </v>
    <v>       0.87500000       0.87500000       0.37500000 </v>
    <v>       0.37500000       0.37500000       0.87500000 </v>
    <v>       0.87500000       0.37500000       0.87500000 </v>
    <v>       0.37500000       0.87500000       0.87500000 </v>
    <v>       0.87500000       0.87500000       0.87500000 </v>
    <v>       0.25000000       0.00000000       0.00000000 </v>
    <v>       0.75000000       0.00000000       0.00000000 </v>
    <v>       0.25000000       0.50000000       0.00000000 </v>
    <v>       0.75000000       0.50000000       0.00000000 </v>
    <v>       0.25000000       0.00000000       0.50000000 </v>
    <v>       0.75000000       0.00000000       0.50000000 </v>
    <v>       0.25000000       0.50000000       0.50000000 </v>
    <v>       0.75000000       0.50000000       0.50000000 </v>
    <v>       0.37500000       0.12500000       0.12500000 </v>
    <v>       0.87500000       0.12500000       0.12500000 </v>
    <v>       0.37500000       0.62500000       0.12500000 </v>
    <v>       0.87500000       0.62500000       0.12500000 </v>
    <v>       0.37500000       0.12500000       0.62500000 </v>
    <v>       0.87500000       0.12500000       0.62500000 </v>
    <v>       0.37500000       0.62500000       0.62500000 </v>
    <v>       0.87500000       0.62500000       0.62500000 </v>
    <v>       0.25000000       0.25000000       0.25000000 </v>
    <v>       0.75000000       0.25000000       0.25000000 </v>
    <v>       0.25000000       0.75000000       0.25000000 </v>
    <v>       0.75000000       0.75000000       0.25000000 </v>
    <v>       0.25000000       0.25000000       0.75000000 </v>
    <v>       0.75000000       0.25000000       0.75000000 </v>
    <v>       0.25000000       0.75000000       0.75000000 </v>
    <v>       0.75000000       0.75000000       0.75000000 </v>
   </varray>
  </structure>
  <varray name="forces" >
   <v>      -0.00000000      -0.00000000      -0.00000000 </v>
   <v>      -0.00000000       0.00000000      -0.00000000 </v>
   <v>      -0.00000000       0.00000000      -0.00000000 </v>
   <v>      -0.00000000       0.00000000      -0.00000000 </v>
   <v>      -0.00000000      -0.00000000      -0.00000000 </v>
   <v>       0.00000000      -0.00000000      -0.00000000 </v>
   <v>       0.00000000      -0.00000000      -0.00000000 </v>
   <v>      -0.00000000      -0.00000000       0.00000000 </v>
   <v>       0.00000000      -0.00000000      -0.00000000 </v>
   <v>      -0.00000000       0.00000000       0.00000000 </v>
   <v>       0.00000000       0.00000000       0.00000000 </v>
   <v>       0.00000000      -0.00000000       0.00000000 </v>
   <v>       0.00000000       0.00000000       0.00000000 </v>
   <v>       0.00000000      -0.00000000       0.00000000 </v>
   <v>       0.00000000      -0.00000000      -0.00000000 </v>
   <v>       0.00000000       0.00000000       0.00000000 </v>
   <v>      -0.00000000       0.00000000      -0.00000000 </v>
   <v>       0.00000000      -0.00000000      -0.00000000 </v>
   <v>       0.00000000      -0.00000000      -0.00000000 </v>
   <v>      -0.00000000       0.00000000       0.00000000 </v>
   <v>      -0.00000000      -0.00000000      -0.00000000 </v>
   <v>      -0.00000000       0.00000000       0.00000000 </v>
   <v>      -0.00000000       0.00000000      -0.00000000 </v>
   <v>       0.00000000      -0.00000000       0.00000000 </v>
   <v>       0.00000000       0.00000000       0.00000000 </v>
   <v>       0.00000000      -0.00000000      -0.00000000 </v>
   <v>       0.00000000      -0.00000000       0.00000000 </v>
   <v>       0.00000000      -0.00000000       0.00000000 </v>
   <v>       0.00000000       0.00000000       0.00000000 </v>
   <v>       0.00000000      -0.00000000       0.00000000 </v>
   <v>       0.00000000       0.00000000       0.00000000 </v>
   <v>       0.00000000      -0.00000000       0.00000000 </v>
   <v>      -0.00000000       0.00000000       0.00000000 </v>
   <v>       0.00000000      -0.00000000      -0.00000000 </v>
   <v>      -0.00000000      -0.00000000      -0.00000000 </v>
   <v>      -0.00000000       0.00000000       0.00000000 </v>
   <v>       0.00000000      -0.00000000      -0.00000000 </v>
   <v>      -0.00000000       0.00000000      -0.00000000 </v>
   <v>      -0.00000000       0.00000000      -0.00000000 </v>
   <v>      -0.00000000      -0.00000000      -0.00000000 </v>
   <v>       0.00000000      -0.00000000      -0.00000000 </v>
   <v>       0.00000000      -0.00000000       0.00000000 </v>
   <v>       0.00000000       0.00000000       0.00000000 </v>
   <v>       0.00000000      -0.00000000      -0.00000000 </v>
   <v>       0.00000000       0.00000000       0.00000000 </v>
   <v>       0.00000000       0.00000000       0.00000000 </v>
   <v>       0.00000000       0.00000000      -0.00000000 </v>
   <v>       0.00000000       0.00000000       0.00000000 </v>
   <v>      -0.00000000       0.00000000      -0.00000000 </v>
   <v>      -0.00000000      -0.00000000      -0.00000000 </v>
   <v>      -0.00000000       0.00000000       0.00000000 </v>
   <v>      -0.00000000       0.00000000       0.00000000 </v>
   <v>       0.00000000      -0.00000000      -0.00000000 </v>
   <v>      -0.00000000       0.00000000       0.00000000 </v>
   <v>      -0.00000000      -0.00000000      -0.00000000 </v>
   <v>       0.00000000      -0.00000000       0.00000000 </v>
   <v>       0.00000000      -0.00000000      -0.00000000 </v>
   <v>       0.00000000       0.00000000       0.00000000 </v>
   <v>      -0.00000000       0.00000000       0.00000000 </v>
   <v>       0.00000000      -0.00000000       0.00000000 </v>
   <v>      -0.00000000      -0.00000000       0.00000000 </v>
   <v>       0.00000000       0.00000000       0.00000000 </v>
   <v>       0.00000000      -0.00000000       0.00000000 </v>
   <v>       0.00000000       0.00000000       0.00000000 </v>
  </varray>
  <varray name="stress" >
   <v>    -363.92242605      -0.00000000      -0.00000000 </v>
   <v>       0.00000000    -363.92242605      -0.00000000 </v>
   <v>       0.00000000       0.00000000    -363.92242605 </v>
  </varray>
  <energy>
   <i name="e_fr_energy">   -578.36022833 </i>
   <i name="e_wo_entrp">   -578.36022833 </i>
   <i name="e_0_energy">     -0.00000000 </i>
  </energy>
  <kpoints>
   <generation param="Gamma">
    <v type="int" name="divisions">       8        8        8 </v>
    <v name="usershift">      0.00000000       0.00000000       0.00000000 </v>
    <v name="genvec1">      0.12500000       0.00000000       0.00000000 </v>
    <v name="genvec2">      0.00000000       0.12500000       0.00000000 </v>
    <v name="genvec3">      0.00000000       0.00000000       0.12500000 </v>
    <v name="shift">      0.00000000       0.00000000       0.00000000 </v>
   </generation>
   <varray name="kpointlist" >
    <v>       0.00000000       0.00000000       0.00000000 </v>
    <v>       0.12500000       0.00000000       0.00000000 </v>
    <v>       0.25000000       0.00000000       0.00000000 </v>
    <v>       0.37500000       0.00000000       0.00000000 </v>
    <v>       0.50000000       0.00000000       0.00000000 </v>
    <v>       0.00000000       0.12500000       0.00000000 </v>
    <v>       0.12500000       0.12500000       0.00000000 </v>
    <v>       0.25000000       0.12500000       0.00000000 </v>
    <v>       0.37500000       0.12500000       0.00000000 </v>
    <v>       0.50000000       0.12500000       0.00000000 </v>
    <v>       0.00000000       0.25000000       0.00000000 </v>
    <v>       0.12500000       0.25000000       0.00000000 </v>
    <v>       0.25000000       0.25000000       0.00000000 </v>
    <v>       0.37500000       0.25000000       0.00000000 </v>
    <v>       0.50000000       0.25000000       0.00000000 </v>
    <v>       0.00000000       0.37500000       0.00000000 </v>
    <v>       0.12500000       0.37500000       0.00000000 </v>
    <v>       0.25000000       0.37500000       0.00000000 </v>
    <v>       0.37500000       0.37500000       0.00000000 </v>
    <v>       0.50000000       0.37500000       0.00000000 </v>
    <v>       0.00000000       0.50000000       0.00000000 </v>
    <v>       0.12500000       0.50000000       0.00000000 </v>
    <v>       0.25000000       0.50000000       0.00000000 </v>
    <v>       0.37500000       0.50000000       0.00000000 </v>
    <v>       0.50000000       0.50000000       0.00000000 </v>
    <v>       0.00000000       0.12500000       0.12500000 </v>
    <v>       0.12500000       0.12500000       0.12500000 </v>
    <v>       0.25000000       0.12500000       0.12500000 </v>
    <v>       0.37500000       0.12500000       0.12500000 </v>
    <v>       0.50000000       0.12500000       0.12500000 </v>
    <v>       0.00000000       0.25000000       0.12500000 </v>
    <v>       0.12500000       0.25000000       0.12500000 </v>
    <v>       0.25000000       0.25000000       0.12500000 </v>
    <v>       0.37500000       0.25000000       0.12500000 </v>
    <v>       0.50000000       0.25000000       0.12500000 </v>
    <v>       0.00000000       0.37500000       0.12500000 </v>
    <v>       0.12500000       0.37500000       0.12500000 </v>
    <v>       0.25000000       0.37500000       0.12500000 </v>
    <v>       0.37500000       0.37500000       0.12500000 </v>
    <v>       0.50000000       0.37500000       0.12500000 </v>
    <v>       0.00000000       0.50000000       0.12500000 </v>
    <v>       0.12500000       0.50000000       0.12500000 </v>
    <v>       0.25000000       0.50000000       0.12500000 </v>
    <v>       0.37500000       0.50000000       0.12500000 </v>
    <v>       0.50000000       0.50000000       0.12500000 </v>
    <v>       0.00000000      -0.37500000       0.12500000 </v>
    <v>       0.12500000      -0.37500000       0.12500000 </v>
    <v>       0.25000000      -0.37500000       0.12500000 </v>
    <v>       0.37500000      -0.37500000       0.12500000 </v>
    <v>       0.50000000      -0.37500000       0.12500000 </v>
    <v>       0.00000000      -0.25000000       0.12500000 </v>
    <v>       0.12500000      -0.25000000       0.12500000 </v>
    <v>       0.25000000      -0.25000000       0.12500000 </v>
    <v>       0.37500000      -0.25000000       0.12500000 </v>
    <v>       0.50000000      -0.25000000       0.12500000 </v>
    <v>       0.00000000      -0.12500000       0.12500000 </v>
    <v>       0.12500000      -0.12500000       0.12500000 </v>
    <v>       0.25000000      -0.12500000       0.12500000 </v>
    <v>       0.37500000      -0.12500000       0.12500000 </v>
    <v>       0.50000000      -0.12500000       0.12500000 </v>
    <v>       0.00000000       0.25000000       0.25000000 </v>
    <v>       0.12500000       0.25000000       0.25000000 </v>
    <v>       0.25000000       0.25000000       0.25000000 </v>
    <v>       0.37500000       0.25000000       0.25000000 </v>
    <v>       0.50000000       0.25000000       0.25000000 </v>
    <v>       0.00000000       0.37500000       0.25000000 </v>
    <v>       0.12500000       0.37500000       0.25000000 </v>
    <v>       0.25000000       0.37500000       0.25000000 </v>
    <v>       0.37500000       0.37500000       0.25000000 </v>
    <v>       0.50000000       0.37500000       0.25000000 </v>
    <v>       0.00000000       0.50000000       0.25000000 </v>
    <v>       0.12500000       0.50000000       0.25000000 </v>
    <v>       0.25000000       0.50000000       0.25000000 </v>
    <v>       0.37500000       0.50000000       0.25000000 </v>
    <v>       0.50000000       0.50000000       0.25000000 </v>
    <v>       0.00000000      -0.37500000       0.25000000 </v>
    <v>       0.12500000      -0.37500000       0.25000000 </v>
    <v>       0.25000000      -0.37500000       0.25000000 </v>
    <v>       0.37500000      -0.37500000       0.25000000 </v>
    <v>       0.50000000      -0.37500000       0.25000000 </v>
    <v>       0.00000000      -0.25000000       0.25000000 </v>
    <v>       0.12500000      -0.25000000       0.25000000 </v>
    <v>       0.25000000      -0.25000000       0.25000000 </v>
    <v>       0.37500000      -0.25000000       0.25000000 </v>
    <v>       0.50000000      -0.25000000       0.25000000 </v>
    <v>       0.00000000       0.37500000       0.37500000 </v>
    <v>       0.12500000       0.37500000       0.37500000 </v>
    <v>       0.25000000       0.37500000       0.37500000 </v>
    <v>       0.37500000       0.37500000       0.37500000 </v>
    <v>       0.50000000       0.37500000       0.37500000 </v>
    <v>       0.00000000       0.50000000       0.37500000 </v>
    <v>       0.12500000       0.50000000       0.37500000 </v>
    <v>       0.25000000       0.50000000       0.37500000 </v>
    <v>       0.37500000       0.50000000       0.37500000 </v>
    <v>       0.50000000       0.50000000       0.37500000 </v>
    <v>       0.00000000      -0.37500000       0.37500000 </v>
    <v>       0.12500000      -0.37500000       0.37500000 </v>
    <v>       0.25000000      -0.37500000       0.37500000 </v>
    <v>       0.37500000      -0.37500000       0.37500000 </v>
    <v>       0.50000000      -0.37500000       0.37500000 </v>
    <v>       0.00000000       0.50000000       0.50000000 </v>
    <v>       0.12500000       0.50000000       0.50000000 </v>
    <v>       0.25000000       0.50000000       0.50000000 </v>
    <v>       0.37500000       0.50000000       0.50000000 </v>
    <v>       0.50000000       0.50000000       0.50000000 </v>
   </varray>
   <varray name="weights" >
    <v>       0.00195312 </v>
    <v>       0.00390625 </v>
    <v>       0.00390625 </v>
    <v>       0.00390625 </v>
    <v>       0.00195312 </v>
    <v>       0.00781250 </v>
    <v>       0.01562500 </v>
    <v>       0.01562500 </v>
    <v>       0.01562500 </v>
    <v>       0.00781250 </v>
    <v>       0.00781250 </v>
    <v>       0.01562500 </v>
    <v>       0.01562500 </v>
    <v>       0.01562500 </v>
    <v>       0.00781250 </v>
    <v>       0.00781250 </v>
    <v>       0.01562500 </v>
    <v>       0.01562500 </v>
    <v>       0.01562500 </v>
    <v>       0.00781250 </v>
    <v>       0.00390625 </v>
    <v>       0.00781250 </v>
    <v>       0.00781250 </v>
    <v>       0.00781250 </v>
    <v>       0.00390625 </v>
    <v>       0.00390625 </v>
    <v>       0.00781250 </v>
    <v>       0.00781250 </v>
    <v>       0.00781250 </v>
    <v>       0.00390625 </v>
    <v>       0.00781250 </v>
    <v>       0.01562500 </v>
    <v>       0.01562500 </v>
    <v>       0.01562500 </v>
    <v>       0.00781250 </v>
    <v>       0.00781250 </v>
    <v>       0.01562500 </v>
    <v>       0.01562500 </v>
    <v>       0.01562500 </v>
    <v>       0.00781250 </v>
    <v>       0.00781250 </v>
    <v>       0.01562500 </v>
    <v>       0.01562500 </v>
    <v>       0.01562500 </v>
    <v>       0.00781250 </v>
    <v>       0.00781250 </v>
    <v>       0.01562500 </v>
    <v>       0.01562500 </v>
    <v>       0.01562500 </v>
    <v>       0.00781250 </v>
    <v>       0.00781250 </v>
    <v>       0.01562500 </v>
    <v>       0.01562500 </v>
    <v>       0.01562500 </v>
    <v>       0.00781250 </v>
    <v>       0.00390625 </v>
    <v>       0.00781250 </v>
    <v>       0.00781250 </v>
    <v>       0.00781250 </v>
    <v>       0.00390625 </v>
    <v>       0.00390625 </v>
    <v>       0.00781250 </v>
    <v>       0.00781250 </v>
    <v>       0.00781250 </v>
    <v>       0.00390625 </v>
    <v>       0.00781250 </v>
    <v>       0.01562500 </v>
    <v>       0.01562500 </v>
    <v>       0.01562500 </v>
    <v>       0.00781250 </v>
    <v>       0.00781250 </v>
    <v>       0.01562500 </v>
    <v>       0.01562500 </v>
    <v>       0.01562500 </v>
    <v>       0.00781250 </v>
    <v>       0.00781250 </v>
    <v>       0.01562500 </v>
    <v>       0.01562500 </v>
    <v>       0.01562500 </v>
    <v>       0.00781250 </v>
    <v>       0.00390625 </v>
    <v>       0.00781250 </v>
    <v>       0.00781250 </v>
    <v>       0.00781250 </v>
    <v>       0.00390625 </v>
    <v>       0.00390625 </v>
    <v>       0.00781250 </v>
    <v>       0.00781250 </v>
    <v>       0.00781250 </v>
    <v>       0.00390625 </v>
    <v>       0.00781250 </v>
    <v>       0.01562500 </v>
    <v>       0.01562500 </v>
    <v>       0.01562500 </v>
    <v>       0.00781250 </v>
    <v>       0.00390625 </v>
    <v>       0.00781250 </v>
    <v>       0.00781250 </v>
    <v>       0.00781250 </v>
    <v>       0.00390625 </v>
    <v>       0.00195312 </v>
    <v>       0.00390625 </v>
    <v>       0.00390625 </v>
    <v>       0.00390625 </v>
    <v>       0.00195312 </v>
   </varray>
  </kpoints>
  <scstep>
   <time name="total">   94.07   94.07</time>
   <energy>
    <i name="e_fr_energy">   -348.86300974 </i>
    <i name="e_wo_entrp">   -348.86300974 </i>
    <i name="e_0_energy">   -348.86300974 </i>
   </energy>
  </scstep>
  <scstep>
   <time name="total">   69.75   69.75</time>
   <energy>
    <i name="e_fr_energy">   -301.27952374 </i>
    <i name="e_wo_entrp">   -301.27952374 </i>
    <i name="e_0_energy">   -301.27952374 </i>
   </energy>
  </scstep>
  <scstep>
   <time name="total">   72.14   72.14</time>
   <energy>
    <i name="e_fr_energy">   -301.10719550 </i>
    <i name="e_wo_entrp">   -301.10719550 </i>
    <i name="e_0_energy">   -301.10719550 </i>
   </energy>
  </scstep>
  <scstep>
   <time name="total">   72.97   72.97</time>
   <energy>
    <i name="e_fr_energy">   -301.59539276 </i>
    <i name="e_wo_entrp">   -301.59539276 </i>
    <i name="e_0_energy">   -301.59539276 </i>
   </energy>
  </scstep>
  <scstep>
   <time name="total">   72.57   72.57</time>
   <energy>
    <i name="e_fr_energy">   -301.74463373 </i>
    <i name="e_wo_entrp">   -301.74463373 </i>
    <i name="e_0_energy">   -301.74463373 </i>
   </energy>
  </scstep>
  <scstep>
   <time name="total">   72.97   72.97</time>
   <energy>
    <i name="e_fr_energy">   -301.70005384 </i>
    <i name="e_wo_entrp">   -301.70005384 </i>
    <i name="e_0_energy">   -301.70005384 </i>
   </energy>
  </scstep>
  <scstep>
   <time name="total">   74.45   74.46</time>
   <energy>
    <i name="e_fr_energy">   -301.67942322 </i>
    <i name="e_wo_entrp">   -301.67942322 </i>
    <i name="e_0_energy">   -301.67942322 </i>
   </energy>
  </scstep>
  <scstep>
   <time name="total">   76.27   76.27</time>
   <energy>
    <i name="e_fr_energy">   -301.67843581 </i>
    <i name="e_wo_entrp">   -301.67843581 </i>
    <i name="e_0_energy">   -301.67843581 </i>
   </energy>
  </scstep>
  <scstep>
   <time name="total">   77.83   77.84</time>
   <energy>
    <i name="e_fr_energy">   -301.67784881 </i>
    <i name="e_wo_entrp">   -301.67784881 </i>
    <i name="e_0_energy">   -301.67784881 </i>
   </energy>
  </scstep>
  <scstep>
   <time name="total">   77.67   77.68</time>
   <energy>
    <i name="e_fr_energy">   -301.67808660 </i>
    <i name="e_wo_entrp">   -301.67808660 </i>
    <i name="e_0_energy">   -301.67808660 </i>
   </energy>
  </scstep>
  <scstep>
   <time name="total">   79.60   79.61</time>
   <energy>
    <i name="e_fr_energy">   -301.67809655 </i>
    <i name="e_wo_entrp">   -301.67809655 </i>
    <i name="e_0_energy">   -301.67809655 </i>
   </energy>
  </scstep>
  <kpoints>
   <generation param="Gamma">
    <v type="int" name="divisions">       8        8        8 </v>
    <v name="usershift">      0.00000000       0.00000000       0.00000000 </v>
    <v name="genvec1">      0.12500000       0.00000000       0.00000000 </v>
    <v name="genvec2">      0.00000000       0.12500000       0.00000000 </v>
    <v name="genvec3">      0.00000000       0.00000000       0.12500000 </v>
    <v name="shift">      0.00000000       0.00000000       0.00000000 </v>
   </generation>
   <varray name="kpointlist" >
    <v>       0.00000000       0.00000000       0.00000000 </v>
    <v>       0.12500000       0.00000000       0.00000000 </v>
    <v>       0.25000000       0.00000000       0.00000000 </v>
    <v>       0.37500000       0.00000000       0.00000000 </v>
    <v>       0.50000000       0.00000000       0.00000000 </v>
    <v>       0.12500000       0.12500000       0.00000000 </v>
    <v>       0.25000000       0.12500000       0.00000000 </v>
    <v>       0.37500000       0.12500000       0.00000000 </v>
    <v>       0.50000000       0.12500000       0.00000000 </v>
    <v>       0.25000000       0.25000000       0.00000000 </v>
    <v>       0.37500000       0.25000000       0.00000000 </v>
    <v>       0.50000000       0.25000000       0.00000000 </v>
    <v>       0.37500000       0.37500000       0.00000000 </v>
    <v>       0.50000000       0.37500000       0.00000000 </v>
    <v>       0.50000000       0.50000000       0.00000000 </v>
    <v>       0.12500000       0.12500000       0.12500000 </v>
    <v>       0.25000000       0.12500000       0.12500000 </v>
    <v>       0.37500000       0.12500000       0.12500000 </v>
    <v>       0.50000000       0.12500000       0.12500000 </v>
    <v>       0.25000000       0.25000000       0.12500000 </v>
    <v>       0.37500000       0.25000000       0.12500000 </v>
    <v>       0.50000000       0.25000000       0.12500000 </v>
    <v>       0.37500000       0.37500000       0.12500000 </v>
    <v>       0.50000000       0.37500000       0.12500000 </v>
    <v>       0.50000000       0.50000000       0.12500000 </v>
    <v>       0.25000000       0.25000000       0.25000000 </v>
    <v>       0.37500000       0.25000000       0.25000000 </v>
    <v>       0.50000000       0.25000000       0.25000000 </v>
    <v>       0.37500000       0.37500000       0.25000000 </v>
    <v>       0.50000000       0.37500000       0.25000000 </v>
    <v>       0.50000000       0.50000000       0.25000000 </v>
    <v>       0.37500000       0.37500000       0.37500000 </v>
    <v>       0.50000000       0.37500000       0.37500000 </v>
    <v>       0.50000000       0.50000000       0.37500000 </v>
    <v>       0.50000000       0.50000000       0.50000000 </v>
   </varray>
   <varray name="weights" >
    <v>       0.00195312 </v>
    <v>       0.01171875 </v>
    <v>       0.01171875 </v>
    <v>       0.01171875 </v>
    <v>       0.00585938 </v>
    <v>       0.02343750 </v>
    <v>       0.04687500 </v>
    <v>       0.04687500 </v>
    <v>       0.02343750 </v>
    <v>       0.02343750 </v>
    <v>       0.04687500 </v>
    <v>       0.02343750 </v>
    <v>       0.02343750 </v>
    <v>       0.02343750 </v>
    <v>       0.00585938 </v>
    <v>       0.01562500 </v>
    <v>       0.04687500 </v>
    <v>       0.04687500 </v>
    <v>       0.02343750 </v>
    <v>       0.04687500 </v>
    <v>       0.09375000 </v>
    <v>       0.04687500 </v>
    <v>       0.04687500 </v>
    <v>       0.04687500 </v>
    <v>       0.01171875 </v>
    <v>       0.01562500 </v>
    <v>       0.04687500 </v>
    <v>       0.02343750 </v>
    <v>       0.04687500 </v>
    <v>       0.04687500 </v>
    <v>       0.01171875 </v>
    <v>       0.01562500 </v>
    <v>       0.02343750 </v>
    <v>       0.01171875 </v>
    <v>       0.00195312 </v>
   </varray>
  </kpoints>
  <dynmat>
   <varray name="hessian" >
    <v>      -3.04913022      -0.00000000      -0.00000000       0.01158329       0.00000000      -0.00000000       0.00748890       0.00000000      -0.00000000       0.00774209      -0.00000000       0.00000000       0.00748890      -0.00000000       0.00000000       0.00774209       0.00000000       0.00000000      -0.04594927       0.00000000      -0.00000000       0.00388887       0.00000000       0.00000000      -0.01216936      -0.00733631       0.00059779       0.00562624      -0.00689981      -0.01577706       0.63359270      -0.06601994      -0.06601994      -0.00515277      -0.00733631      -0.00733631       0.02766397      -0.01577706      -0.01577706      -0.00261382      -0.00258097      -0.00258097      -0.01216936       0.00059779      -0.00733631       0.00562624      -0.01577706      -0.00689981      -0.10636950       0.05225665      -0.05225665      -0.00379946       0.00270896      -0.00270896      -0.10636950       0.05225665       0.05225665      -0.00379946       0.00270896       0.00270896      -0.10636950      -0.05225665      -0.05225665      -0.00379946      -0.00270896      -0.00270896      -0.10636950      -0.05225665       0.05225665      -0.00379946      -0.00270896       0.00270896       0.63359270       0.06601994       0.06601994      -0.00515277       0.00733631       0.00733631      -0.01216936       0.00733631      -0.00059779       0.00562624       0.00689981       0.01577706      -0.01216936      -0.00059779       0.00733631       0.00562624       0.01577706       0.00689981       0.02766397       0.01577706       0.01577706      -0.00261382       0.00258097       0.00258097       0.10965846      -0.05225665       0.11336965       0.10965846      -0.05225665      -0.11336965       0.00636726      -0.00270896      -0.00653362       0.00636726      -0.00270896       0.00653362       0.10965846       0.05225665      -0.11336965       0.10965846       0.05225665       0.11336965       0.00636726       0.00270896       0.00653362       0.00636726       0.00270896      -0.00653362      -0.01216936       0.00733631       0.00059779       0.00562624       0.00689981      -0.01577706       0.63359270       0.06601994      -0.06601994      -0.00515277       0.00733631      -0.00733631       0.02766397       0.01577706      -0.01577706      -0.00261382       0.00258097      -0.00258097      -0.01216936      -0.00059779      -0.00733631       0.00562624       0.01577706      -0.00689981       0.10965846      -0.11336965       0.05225665       0.10965846       0.11336965       0.05225665       0.10965846       0.11336965      -0.05225665       0.10965846      -0.11336965      -0.05225665       0.00636726       0.00653362       0.00270896       0.00636726      -0.00653362       0.00270896       0.00636726      -0.00653362      -0.00270896       0.00636726       0.00653362      -0.00270896       0.63359270      -0.06601994       0.06601994      -0.00515277      -0.00733631       0.00733631      -0.01216936      -0.00733631      -0.00059779       0.00562624      -0.00689981       0.01577706      -0.01216936       0.00059779       0.00733631       0.00562624      -0.01577706       0.00689981       0.02766397      -0.01577706       0.01577706      -0.00261382      -0.00258097       0.00258097 </v>
    <v>      -0.00000000      -3.04913022      -0.00000000       0.00000000       0.00748890      -0.00000000       0.00000000       0.01158329      -0.00000000      -0.00000000       0.00774209       0.00000000      -0.00000000       0.00748890       0.00000000       0.00000000      -0.04594927      -0.00000000       0.00000000       0.00774209      -0.00000000       0.00000000       0.00388887       0.00000000      -0.00733631      -0.00515277       0.00733631      -0.00689981       0.00562624       0.01577706      -0.06601994       0.63359270       0.06601994      -0.00733631      -0.01216936      -0.00059779      -0.01577706       0.00562624       0.00689981      -0.00258097      -0.00261382       0.00258097       0.00059779      -0.01216936       0.00733631      -0.01577706       0.02766397       0.01577706      -0.05225665       0.10965846      -0.11336965      -0.00270896       0.00636726       0.00653362      -0.05225665       0.10965846       0.11336965      -0.00270896       0.00636726      -0.00653362       0.05225665       0.10965846       0.11336965       0.00270896       0.00636726      -0.00653362       0.05225665       0.10965846      -0.11336965       0.00270896       0.00636726       0.00653362       0.06601994       0.63359270       0.06601994       0.00733631      -0.01216936      -0.00059779       0.00733631      -0.00515277       0.00733631       0.00689981       0.00562624       0.01577706      -0.00059779      -0.01216936       0.00733631       0.01577706       0.02766397       0.01577706       0.01577706       0.00562624       0.00689981       0.00258097      -0.00261382       0.00258097       0.05225665      -0.10636950       0.05225665       0.05225665      -0.10636950      -0.05225665       0.00270896      -0.00379946       0.00270896       0.00270896      -0.00379946      -0.00270896      -0.05225665      -0.10636950       0.05225665      -0.05225665      -0.10636950      -0.05225665      -0.00270896      -0.00379946       0.00270896      -0.00270896      -0.00379946      -0.00270896       0.00733631      -0.00515277      -0.00733631       0.00689981       0.00562624      -0.01577706       0.06601994       0.63359270      -0.06601994       0.00733631      -0.01216936       0.00059779       0.01577706       0.00562624      -0.00689981       0.00258097      -0.00261382      -0.00258097      -0.00059779      -0.01216936      -0.00733631       0.01577706       0.02766397      -0.01577706      -0.11336965       0.10965846      -0.05225665       0.11336965       0.10965846       0.05225665       0.11336965       0.10965846      -0.05225665      -0.11336965       0.10965846       0.05225665       0.00653362       0.00636726      -0.00270896      -0.00653362       0.00636726       0.00270896      -0.00653362       0.00636726      -0.00270896       0.00653362       0.00636726       0.00270896      -0.06601994       0.63359270      -0.06601994      -0.00733631      -0.01216936       0.00059779      -0.00733631      -0.00515277      -0.00733631      -0.00689981       0.00562624      -0.01577706       0.00059779      -0.01216936      -0.00733631      -0.01577706       0.02766397      -0.01577706      -0.01577706       0.00562624      -0.00689981      -0.00258097      -0.00261382      -0.00258097 </v>
    <v>      -0.00000000      -0.00000000      -3.04913022      -0.00000000      -0.00000000       0.00748890      -0.00000000      -0.00000000       0.00748890       0.00000000       0.00000000      -0.04594927       0.00000000       0.00000000       0.01158329       0.00000000      -0.00000000       0.00774209      -0.00000000      -0.00000000       0.00774209       0.00000000       0.00000000       0.00388887       0.00059779       0.00733631      -0.01216936      -0.01577706       0.01577706       0.02766397      -0.06601994       0.06601994       0.63359270      -0.00733631      -0.00059779      -0.01216936      -0.01577706       0.00689981       0.00562624      -0.00258097       0.00258097      -0.00261382      -0.00733631       0.00733631      -0.00515277      -0.00689981       0.01577706       0.00562624       0.05225665      -0.11336965       0.10965846       0.00270896       0.00653362       0.00636726      -0.05225665       0.11336965       0.10965846      -0.00270896      -0.00653362       0.00636726       0.05225665       0.11336965       0.10965846       0.00270896      -0.00653362       0.00636726      -0.05225665      -0.11336965       0.10965846      -0.00270896       0.00653362       0.00636726       0.06601994       0.06601994       0.63359270       0.00733631      -0.00059779      -0.01216936      -0.00059779       0.00733631      -0.01216936       0.01577706       0.01577706       0.02766397       0.00733631       0.00733631      -0.00515277       0.00689981       0.01577706       0.00562624       0.01577706       0.00689981       0.00562624       0.00258097       0.00258097      -0.00261382       0.11336965      -0.05225665       0.10965846      -0.11336965       0.05225665       0.10965846      -0.00653362      -0.00270896       0.00636726       0.00653362       0.00270896       0.00636726      -0.11336965      -0.05225665       0.10965846       0.11336965       0.05225665       0.10965846       0.00653362      -0.00270896       0.00636726      -0.00653362       0.00270896       0.00636726       0.00059779      -0.00733631      -0.01216936      -0.01577706      -0.01577706       0.02766397      -0.06601994      -0.06601994       0.63359270      -0.00733631       0.00059779      -0.01216936      -0.01577706      -0.00689981       0.00562624      -0.00258097      -0.00258097      -0.00261382      -0.00733631      -0.00733631      -0.00515277      -0.00689981      -0.01577706       0.00562624      -0.05225665       0.05225665      -0.10636950      -0.05225665      -0.05225665      -0.10636950       0.05225665       0.05225665      -0.10636950       0.05225665      -0.05225665      -0.10636950      -0.00270896       0.00270896      -0.00379946      -0.00270896      -0.00270896      -0.00379946       0.00270896       0.00270896      -0.00379946       0.00270896      -0.00270896      -0.00379946       0.06601994      -0.06601994       0.63359270       0.00733631       0.00059779      -0.01216936      -0.00059779      -0.00733631      -0.01216936       0.01577706      -0.01577706       0.02766397       0.00733631      -0.00733631      -0.00515277       0.00689981      -0.01577706       0.00562624       0.01577706      -0.00689981       0.00562624       0.00258097      -0.00258097      -0.00261382 </v>
    <v>       0.01158329       0.00000000      -0.00000000      -3.04913022      -0.00000000      -0.00000000       0.00774209      -0.00000000       0.00000000       0.00748890       0.00000000      -0.00000000       0.00774209       0.00000000       0.00000000       0.00748890      -0.00000000       0.00000000       0.00388887       0.00000000       0.00000000      -0.04594927       0.00000000      -0.00000000       0.00562624      -0.00689981      -0.01577706      -0.01216936      -0.00733631       0.00059779      -0.00515277      -0.00733631      -0.00733631       0.63359270      -0.06601994      -0.06601994      -0.00261382      -0.00258097      -0.00258097       0.02766397      -0.01577706      -0.01577706       0.00562624      -0.01577706      -0.00689981      -0.01216936       0.00059779      -0.00733631      -0.00379946       0.00270896      -0.00270896      -0.10636950       0.05225665      -0.05225665      -0.00379946       0.00270896       0.00270896      -0.10636950       0.05225665       0.05225665      -0.00379946      -0.00270896      -0.00270896      -0.10636950      -0.05225665      -0.05225665      -0.00379946      -0.00270896       0.00270896      -0.10636950      -0.05225665       0.05225665      -0.00515277       0.00733631       0.00733631       0.63359270       0.06601994       0.06601994       0.00562624       0.00689981       0.01577706      -0.01216936       0.00733631      -0.00059779       0.00562624       0.01577706       0.00689981      -0.01216936      -0.00059779       0.00733631      -0.00261382       0.00258097       0.00258097       0.02766397       0.01577706       0.01577706       0.10965846      -0.05225665      -0.11336965       0.10965846      -0.05225665       0.11336965       0.00636726      -0.00270896       0.00653362       0.00636726      -0.00270896      -0.00653362       0.10965846       0.05225665       0.11336965       0.10965846       0.05225665      -0.11336965       0.00636726       0.00270896      -0.00653362       0.00636726       0.00270896       0.00653362       0.00562624       0.00689981      -0.01577706      -0.01216936       0.00733631       0.00059779      -0.00515277       0.00733631      -0.00733631       0.63359270       0.06601994      -0.06601994      -0.00261382       0.00258097      -0.00258097       0.02766397       0.01577706      -0.01577706       0.00562624       0.01577706      -0.00689981      -0.01216936      -0.00059779      -0.00733631       0.10965846       0.11336965       0.05225665       0.10965846      -0.11336965       0.05225665       0.10965846      -0.11336965      -0.05225665       0.10965846       0.11336965      -0.05225665       0.00636726      -0.00653362       0.00270896       0.00636726       0.00653362       0.00270896       0.00636726       0.00653362      -0.00270896       0.00636726      -0.00653362      -0.00270896      -0.00515277      -0.00733631       0.00733631       0.63359270      -0.06601994       0.06601994       0.00562624      -0.00689981       0.01577706      -0.01216936      -0.00733631      -0.00059779       0.00562624      -0.01577706       0.00689981      -0.01216936       0.00059779       0.00733631      -0.00261382      -0.00258097       0.00258097       0.02766397      -0.01577706       0.01577706 </v>
    <v>       0.00000000       0.00748890      -0.00000000      -0.00000000      -3.04913022      -0.00000000      -0.00000000       0.00774209       0.00000000       0.00000000       0.01158329      -0.00000000       0.00000000      -0.04594927      -0.00000000      -0.00000000       0.00748890       0.00000000       0.00000000       0.00388887       0.00000000       0.00000000       0.00774209      -0.00000000      -0.00689981       0.00562624       0.01577706      -0.00733631      -0.00515277       0.00733631      -0.00733631      -0.01216936      -0.00059779      -0.06601994       0.63359270       0.06601994      -0.00258097      -0.00261382       0.00258097      -0.01577706       0.00562624       0.00689981      -0.01577706       0.02766397       0.01577706       0.00059779      -0.01216936       0.00733631      -0.00270896       0.00636726       0.00653362      -0.05225665       0.10965846      -0.11336965      -0.00270896       0.00636726      -0.00653362      -0.05225665       0.10965846       0.11336965       0.00270896       0.00636726      -0.00653362       0.05225665       0.10965846       0.11336965       0.00270896       0.00636726       0.00653362       0.05225665       0.10965846      -0.11336965       0.00733631      -0.01216936      -0.00059779       0.06601994       0.63359270       0.06601994       0.00689981       0.00562624       0.01577706       0.00733631      -0.00515277       0.00733631       0.01577706       0.02766397       0.01577706      -0.00059779      -0.01216936       0.00733631       0.00258097      -0.00261382       0.00258097       0.01577706       0.00562624       0.00689981       0.05225665      -0.10636950      -0.05225665       0.05225665      -0.10636950       0.05225665       0.00270896      -0.00379946      -0.00270896       0.00270896      -0.00379946       0.00270896      -0.05225665      -0.10636950      -0.05225665      -0.05225665      -0.10636950       0.05225665      -0.00270896      -0.00379946      -0.00270896      -0.00270896      -0.00379946       0.00270896       0.00689981       0.00562624      -0.01577706       0.00733631      -0.00515277      -0.00733631       0.00733631      -0.01216936       0.00059779       0.06601994       0.63359270      -0.06601994       0.00258097      -0.00261382      -0.00258097       0.01577706       0.00562624      -0.00689981       0.01577706       0.02766397      -0.01577706      -0.00059779      -0.01216936      -0.00733631       0.11336965       0.10965846       0.05225665      -0.11336965       0.10965846      -0.05225665      -0.11336965       0.10965846       0.05225665       0.11336965       0.10965846      -0.05225665      -0.00653362       0.00636726       0.00270896       0.00653362       0.00636726      -0.00270896       0.00653362       0.00636726       0.00270896      -0.00653362       0.00636726      -0.00270896      -0.00733631      -0.01216936       0.00059779      -0.06601994       0.63359270      -0.06601994      -0.00689981       0.00562624      -0.01577706      -0.00733631      -0.00515277      -0.00733631      -0.01577706       0.02766397      -0.01577706       0.00059779      -0.01216936      -0.00733631      -0.00258097      -0.00261382      -0.00258097      -0.01577706       0.00562624      -0.00689981 </v>
    <v>      -0.00000000      -0.00000000       0.00748890      -0.00000000      -0.00000000      -3.04913022       0.00000000       0.00000000      -0.04594927      -0.00000000      -0.00000000       0.00748890       0.00000000      -0.00000000       0.00774209       0.00000000       0.00000000       0.01158329       0.00000000       0.00000000       0.00388887      -0.00000000      -0.00000000       0.00774209      -0.01577706       0.01577706       0.02766397       0.00059779       0.00733631      -0.01216936      -0.00733631      -0.00059779      -0.01216936      -0.06601994       0.06601994       0.63359270      -0.00258097       0.00258097      -0.00261382      -0.01577706       0.00689981       0.00562624      -0.00689981       0.01577706       0.00562624      -0.00733631       0.00733631      -0.00515277       0.00270896       0.00653362       0.00636726       0.05225665      -0.11336965       0.10965846      -0.00270896      -0.00653362       0.00636726      -0.05225665       0.11336965       0.10965846       0.00270896      -0.00653362       0.00636726       0.05225665       0.11336965       0.10965846      -0.00270896       0.00653362       0.00636726      -0.05225665      -0.11336965       0.10965846       0.00733631      -0.00059779      -0.01216936       0.06601994       0.06601994       0.63359270       0.01577706       0.01577706       0.02766397      -0.00059779       0.00733631      -0.01216936       0.00689981       0.01577706       0.00562624       0.00733631       0.00733631      -0.00515277       0.00258097       0.00258097      -0.00261382       0.01577706       0.00689981       0.00562624      -0.11336965       0.05225665       0.10965846       0.11336965      -0.05225665       0.10965846       0.00653362       0.00270896       0.00636726      -0.00653362      -0.00270896       0.00636726       0.11336965       0.05225665       0.10965846      -0.11336965      -0.05225665       0.10965846      -0.00653362       0.00270896       0.00636726       0.00653362      -0.00270896       0.00636726      -0.01577706      -0.01577706       0.02766397       0.00059779      -0.00733631      -0.01216936      -0.00733631       0.00059779      -0.01216936      -0.06601994      -0.06601994       0.63359270      -0.00258097      -0.00258097      -0.00261382      -0.01577706      -0.00689981       0.00562624      -0.00689981      -0.01577706       0.00562624      -0.00733631      -0.00733631      -0.00515277      -0.05225665      -0.05225665      -0.10636950      -0.05225665       0.05225665      -0.10636950       0.05225665      -0.05225665      -0.10636950       0.05225665       0.05225665      -0.10636950      -0.00270896      -0.00270896      -0.00379946      -0.00270896       0.00270896      -0.00379946       0.00270896      -0.00270896      -0.00379946       0.00270896       0.00270896      -0.00379946       0.00733631       0.00059779      -0.01216936       0.06601994      -0.06601994       0.63359270       0.01577706      -0.01577706       0.02766397      -0.00059779      -0.00733631      -0.01216936       0.00689981      -0.01577706       0.00562624       0.00733631      -0.00733631      -0.00515277       0.00258097      -0.00258097      -0.00261382       0.01577706      -0.00689981       0.00562624 </v>
[...]
      </set>
     </set>
    </set>
   </array>
  </eigenvalues>
  <separator name="orbital magnetization" >
   <v name="MAGDIPOLOUT">      0.00000000      0.00000000      0.00000000</v>
  </separator>
  <dos>
   <i name="efermi">      8.79175267 </i>
   <total>
    <array>
     <dimension dim="1">gridpoints</dimension>
     <dimension dim="2">spin</dimension>
     <field>energy</field>
     <field>total</field>
     <field>integrated</field>
     <set>
      <set comment="spin 1">
       <r>   -13.3726     0.0000     0.0000 </r>
       <r>   -13.2583     0.0000     0.0000 </r>
       <r>   -13.1441     0.0000     0.0000 </r>
       <r>   -13.0299     0.0000     0.0000 </r>
       <r>   -12.9157     0.0000     0.0000 </r>
       <r>   -12.8015     0.0000     0.0000 </r>
       <r>   -12.6873     0.0000     0.0000 </r>
       <r>   -12.5731     0.0000     0.0000 </r>
       <r>   -12.4589     0.0000     0.0000 </r>
       <r>   -12.3446     0.0000     0.0000 </r>
       <r>   -12.2304     0.0000     0.0000 </r>
       <r>   -12.1162     0.0000     0.0000 </r>
       <r>   -12.0020     0.0000     0.0000 </r>
       <r>   -11.8878     0.0029     0.0003 </r>
       <r>   -11.7736     0.2792     0.0322 </r>
       <r>   -11.6594     1.1685     0.1657 </r>
       <r>   -11.5452     1.7412     0.3645 </r>
       <r>   -11.4309     2.4007     0.6387 </r>
       <r>   -11.3167     2.5879     0.9343 </r>
       <r>   -11.2025     2.9347     1.2695 </r>
       <r>   -11.0883     3.5310     1.6728 </r>
       <r>   -10.9741     2.8590     1.9993 </r>
       <r>   -10.8599     4.4139     2.5034 </r>
       <r>   -10.7457     3.7694     2.9339 </r>
       <r>   -10.6315     4.3112     3.4263 </r>
       <r>   -10.5172     4.3460     3.9227 </r>
       <r>   -10.4030     5.2277     4.5198 </r>
       <r>   -10.2888     4.9239     5.0821 </r>
       <r>   -10.1746     3.8362     5.5203 </r>
       <r>   -10.0604     6.2145     6.2300 </r>
       <r>    -9.9462     6.0757     6.9239 </r>
       <r>    -9.8320     4.8799     7.4813 </r>
       <r>    -9.7178     5.7440     8.1373 </r>
       <r>    -9.6036     6.2881     8.8555 </r>
       <r>    -9.4893     6.8709     9.6402 </r>
       <r>    -9.3751     5.3800    10.2547 </r>
       <r>    -9.2609     7.7352    11.1381 </r>
       <r>    -9.1467     5.1556    11.7270 </r>
       <r>    -9.0325     7.1859    12.5477 </r>
       <r>    -8.9183     7.3779    13.3903 </r>
       <r>    -8.8041     9.0775    14.4271 </r>
       <r>    -8.6899     5.8268    15.0926 </r>
       <r>    -8.5756     6.3100    15.8133 </r>
       <r>    -8.4614     9.1764    16.8613 </r>
       <r>    -8.3472     7.7112    17.7420 </r>
       <r>    -8.2330     8.8352    18.7511 </r>
       <r>    -8.1188     7.2838    19.5830 </r>
       <r>    -8.0046     8.9802    20.6087 </r>
       <r>    -7.8904     8.1860    21.5436 </r>
       <r>    -7.7762     8.3396    22.4961 </r>
       <r>    -7.6619     9.2859    23.5567 </r>
       <r>    -7.5477    10.0113    24.7001 </r>
       <r>    -7.4335    10.3977    25.8876 </r>
       <r>    -7.3193     8.8352    26.8967 </r>
       <r>    -7.2051     8.8153    27.9035 </r>
       <r>    -7.0909     8.8802    28.9178 </r>
       <r>    -6.9767    13.0128    30.4040 </r>
       <r>    -6.8625    11.0587    31.6670 </r>
       <r>    -6.7482    11.0534    32.9295 </r>
       <r>    -6.6340    11.0330    34.1896 </r>
       <r>    -6.5198    14.0873    35.7985 </r>
       <r>    -6.4056    11.5556    37.1183 </r>
       <r>    -6.2914    14.4006    38.7630 </r>
       <r>    -6.1772    11.0675    40.0271 </r>
       <r>    -6.0630    13.3789    41.5551 </r>
       <r>    -5.9488    15.2119    43.2925 </r>
       <r>    -5.8345    10.9874    44.5474 </r>
       <r>    -5.7203     9.2778    45.6070 </r>
       <r>    -5.6061    12.2124    47.0018 </r>
       <r>    -5.4919     9.9550    48.1388 </r>
       <r>    -5.3777    10.3574    49.3218 </r>
       <r>    -5.2635    13.7737    50.8949 </r>
       <r>    -5.1493     7.3547    51.7349 </r>
       <r>    -5.0351    11.6790    53.0688 </r>
       <r>    -4.9209     8.1371    53.9981 </r>
       <r>    -4.8066     9.4122    55.0731 </r>
       <r>    -4.6924     8.7384    56.0711 </r>
       <r>    -4.5782     7.1771    56.8909 </r>
       <r>    -4.4640     7.0712    57.6985 </r>
       <r>    -4.3498     9.0124    58.7278 </r>
       <r>    -4.2356     8.7929    59.7320 </r>
       <r>    -4.1214     8.5250    60.7057 </r>
       <r>    -4.0072     6.5271    61.4512 </r>
       <r>    -3.8929     3.7869    61.8837 </r>
       <r>    -3.7787     4.9728    62.4517 </r>
       <r>    -3.6645     8.3235    63.4023 </r>
       <r>    -3.5503     8.7389    64.4004 </r>
       <r>    -3.4361     9.6840    65.5064 </r>
       <r>    -3.3219     6.9427    66.2993 </r>
       <r>    -3.2077     8.2725    67.2442 </r>
       <r>    -3.0935     7.7492    68.1292 </r>
       <r>    -2.9792     8.7318    69.1265 </r>
       <r>    -2.8650    11.1744    70.4028 </r>
       <r>    -2.7508     7.8699    71.3016 </r>
       <r>    -2.6366    17.6342    73.3156 </r>
       <r>    -2.5224    24.6295    76.1286 </r>
       <r>    -2.4082    29.4198    79.4887 </r>
       <r>    -2.2940    18.1001    81.5560 </r>
       <r>    -2.1798    14.3544    83.1954 </r>
       <r>    -2.0655    15.0644    84.9160 </r>
       <r>    -1.9513    15.4180    86.6769 </r>
       <r>    -1.8371    13.7386    88.2460 </r>
       <r>    -1.7229    22.4179    90.8064 </r>
       <r>    -1.6087    11.4441    92.1135 </r>
       <r>    -1.4945     9.7071    93.2221 </r>
       <r>    -1.3803    10.9989    94.4784 </r>
       <r>    -1.2661     9.1285    95.5210 </r>
       <r>    -1.1518     9.5729    96.6143 </r>
       <r>    -1.0376    11.2545    97.8997 </r>
       <r>    -0.9234     9.6861    99.0060 </r>
       <r>    -0.8092    10.6019   100.2168 </r>
       <r>    -0.6950    11.5927   101.5409 </r>
       <r>    -0.5808    10.2595   102.7126 </r>
       <r>    -0.4666     4.0077   103.1704 </r>
       <r>    -0.3524     5.5059   103.7992 </r>
       <r>    -0.2382     9.4968   104.8838 </r>
       <r>    -0.1239    11.3022   106.1747 </r>
       <r>    -0.0097     8.4773   107.1429 </r>
       <r>     0.1045     9.5924   108.2385 </r>
       <r>     0.2187    15.5852   110.0185 </r>
       <r>     0.3329    18.1801   112.0949 </r>
       <r>     0.4471    13.8250   113.6739 </r>
       <r>     0.5613    13.5171   115.2177 </r>
       <r>     0.6755    17.5371   117.2206 </r>
       <r>     0.7898    24.5478   120.0243 </r>
       <r>     0.9040    18.9860   122.1927 </r>
       <r>     1.0182    13.5139   123.7362 </r>
       <r>     1.1324    16.7929   125.6541 </r>
       <r>     1.2466    17.1414   127.6119 </r>
       <r>     1.3608    21.7063   130.0910 </r>
       <r>     1.4750    18.1985   132.1695 </r>
       <r>     1.5892    14.9231   133.8739 </r>
       <r>     1.7035    18.9111   136.0338 </r>
       <r>     1.8177    17.6687   138.0518 </r>
       <r>     1.9319    22.4542   140.6163 </r>
       <r>     2.0461    17.7578   142.6445 </r>
       <r>     2.1603    23.1106   145.2840 </r>
       <r>     2.2745    15.6668   147.0733 </r>
       <r>     2.3887    22.7255   149.6688 </r>
       <r>     2.5029    28.3878   152.9111 </r>
       <r>     2.6172    18.9641   155.0770 </r>
       <r>     2.7314    25.7445   158.0173 </r>
       <r>     2.8456    26.0277   160.9900 </r>
       <r>     2.9598    26.1822   163.9803 </r>
       <r>     3.0740    33.2220   167.7747 </r>
       <r>     3.1882    25.3304   170.6677 </r>
       <r>     3.3024    27.8024   173.8431 </r>
       <r>     3.4166    19.3415   176.0521 </r>
       <r>     3.5309    28.8390   179.3459 </r>
       <r>     3.6451    23.8398   182.0687 </r>
       <r>     3.7593    30.6375   185.5679 </r>
       <r>     3.8735    27.6535   188.7262 </r>
       <r>     3.9877    21.5681   191.1896 </r>
       <r>     4.1019    18.5385   193.3069 </r>
       <r>     4.2161    27.1904   196.4124 </r>
       <r>     4.3303    32.4642   200.1202 </r>
       <r>     4.4446    23.0336   202.7509 </r>
       <r>     4.5588    17.7870   204.7824 </r>
       <r>     4.6730    23.4134   207.4565 </r>
       <r>     4.7872    23.8136   210.1763 </r>
       <r>     4.9014    29.8785   213.5888 </r>
       <r>     5.0156    21.8949   216.0895 </r>
       <r>     5.1298    17.7692   218.1189 </r>
       <r>     5.2440    22.7861   220.7214 </r>
       <r>     5.3582    23.1232   223.3623 </r>
       <r>     5.4725    27.0544   226.4523 </r>
       <r>     5.5867    22.4166   229.0125 </r>
       <r>     5.7009    16.9931   230.9533 </r>
       <r>     5.8151    18.9898   233.1222 </r>
       <r>     5.9293    27.4550   236.2579 </r>
       <r>     6.0435    18.5878   238.3809 </r>
       <r>     6.1577    10.4124   239.5701 </r>
       <r>     6.2719    16.0898   241.4077 </r>
       <r>     6.3862    13.4484   242.9437 </r>
       <r>     6.5004    12.9430   244.4219 </r>
       <r>     6.6146    11.4829   245.7334 </r>
       <r>     6.7288     8.1246   246.6614 </r>
       <r>     6.8430    10.4308   247.8527 </r>
       <r>     6.9572    10.0266   248.9978 </r>
       <r>     7.0714     8.2573   249.9409 </r>
       <r>     7.1856     5.9875   250.6248 </r>
       <r>     7.2999     7.3996   251.4699 </r>
       <r>     7.4141     6.6676   252.2314 </r>
       <r>     7.5283     6.7746   253.0052 </r>
       <r>     7.6425     3.8771   253.4480 </r>
       <r>     7.7567     5.1001   254.0305 </r>
       <r>     7.8709     4.4163   254.5349 </r>
       <r>     7.9851     3.8777   254.9778 </r>
       <r>     8.0993     3.1671   255.3395 </r>
       <r>     8.2136     2.1780   255.5882 </r>
       <r>     8.3278     2.4339   255.8662 </r>
       <r>     8.4420     0.9705   255.9771 </r>
       <r>     8.5562     0.2001   255.9999 </r>
       <r>     8.6704     0.0009   256.0000 </r>
       <r>     8.7846     0.0000   256.0000 </r>
       <r>     8.8988     0.0000   256.0000 </r>
       <r>     9.0130     0.0000   256.0000 </r>
       <r>     9.1273     0.0000   256.0000 </r>
       <r>     9.2415     0.0000   256.0000 </r>
       <r>     9.3557     0.0000   256.0000 </r>
       <r>     9.4699     0.0000   256.0000 </r>
       <r>     9.5841     0.0000   256.0000 </r>
       <r>     9.6983     0.0000   256.0000 </r>
       <r>     9.8125     0.0000   256.0000 </r>
       <r>     9.9267     0.0000   256.0000 </r>
       <r>    10.0409     0.0000   256.0000 </r>
       <r>    10.1552     0.0000   256.0000 </r>
       <r>    10.2694     0.0000   256.0000 </r>
       <r>    10.3836     0.0000   256.0000 </r>
       <r>    10.4978     0.0000   256.0000 </r>
       <r>    10.6120     0.0000   256.0000 </r>
       <r>    10.7262     0.0000   256.0000 </r>
       <r>    10.8404     0.0000   256.0000 </r>
       <r>    10.9546     0.0000   256.0000 </r>
       <r>    11.0689     0.0000   256.0000 </r>
       <r>    11.1831     0.0000   256.0000 </r>
       <r>    11.2973     0.0000   256.0000 </r>
       <r>    11.4115     0.0000   256.0000 </r>
       <r>    11.5257     0.0000   256.0000 </r>
       <r>    11.6399     0.0000   256.0000 </r>
       <r>    11.7541     0.0000   256.0000 </r>
       <r>    11.8683     0.0000   256.0000 </r>
       <r>    11.9826     0.0000   256.0000 </r>
       <r>    12.0968     0.0000   256.0000 </r>
       <r>    12.2110     0.0000   256.0000 </r>
       <r>    12.3252     0.0296   256.0034 </r>
       <r>    12.4394     0.5504   256.0662 </r>
       <r>    12.5536     1.8800   256.2810 </r>
       <r>    12.6678     3.6698   256.7001 </r>
       <r>    12.7820     4.0583   257.1636 </r>
       <r>    12.8963     2.9361   257.4989 </r>
       <r>    13.0105     6.4539   258.2361 </r>
       <r>    13.1247     9.2246   259.2896 </r>
       <r>    13.2389     9.7053   260.3981 </r>
       <r>    13.3531     6.8073   261.1756 </r>
       <r>    13.4673     5.4107   261.7935 </r>
       <r>    13.5815    14.1259   263.4069 </r>
       <r>    13.6957    16.7907   265.3246 </r>
       <r>    13.8100    12.7383   266.7794 </r>
       <r>    13.9242    13.7402   268.3487 </r>
       <r>    14.0384    14.9296   270.0539 </r>
       <r>    14.1526    13.7144   271.6202 </r>
       <r>    14.2668    14.4205   273.2673 </r>
       <r>    14.3810    19.7307   275.5207 </r>
       <r>    14.4952    23.5874   278.2147 </r>
       <r>    14.6094    17.9082   280.2600 </r>
       <r>    14.7236    14.3534   281.8994 </r>
       <r>    14.8379    21.5649   284.3623 </r>
       <r>    14.9521    18.9806   286.5301 </r>
       <r>    15.0663    21.6571   289.0037 </r>
       <r>    15.1805    21.8366   291.4977 </r>
       <r>    15.2947    27.6535   294.6560 </r>
       <r>    15.4089    21.1128   297.0674 </r>
       <r>    15.5231    22.7918   299.6705 </r>
       <r>    15.6373    27.5294   302.8146 </r>
       <r>    15.7516    30.6669   306.3172 </r>
       <r>    15.8658    32.7572   310.0585 </r>
       <r>    15.9800    26.8744   313.1278 </r>
       <r>    16.0942    30.6269   316.6258 </r>
       <r>    16.2084    41.7847   321.3981 </r>
       <r>    16.3226    43.1499   326.3264 </r>
       <r>    16.4368    43.3480   331.2772 </r>
       <r>    16.5510    45.5418   336.4787 </r>
       <r>    16.6653    40.7580   341.1337 </r>
       <r>    16.7795    31.5948   344.7423 </r>
       <r>    16.8937    28.3524   347.9804 </r>
       <r>    17.0079    25.0966   350.8468 </r>
       <r>    17.1221    29.0736   354.1674 </r>
       <r>    17.2363    38.0408   358.5121 </r>
       <r>    17.3505    24.6061   361.3224 </r>
       <r>    17.4647    29.7901   364.7248 </r>
       <r>    17.5790    27.4495   367.8599 </r>
       <r>    17.6932    26.7141   370.9109 </r>
       <r>    17.8074    25.1322   373.7813 </r>
       <r>    17.9216    21.2757   376.2113 </r>
       <r>    18.0358    15.0995   377.9358 </r>
       <r>    18.1500    13.0594   379.4274 </r>
       <r>    18.2642    13.0783   380.9211 </r>
       <r>    18.3784     9.1712   381.9685 </r>
       <r>    18.4927     3.4721   382.3651 </r>
       <r>    18.6069     2.1630   382.6122 </r>
       <r>    18.7211     4.0737   383.0774 </r>
       <r>    18.8353     0.9405   383.1848 </r>
       <r>    18.9495     3.0413   383.5322 </r>
       <r>    19.0637     1.9359   383.7533 </r>
       <r>    19.1779     1.0055   383.8681 </r>
       <r>    19.2921     0.5076   383.9261 </r>
       <r>    19.4064     0.6223   383.9972 </r>
       <r>    19.5206     0.0247   384.0000 </r>
       <r>    19.6348     0.0000   384.0000 </r>
       <r>    19.7490     0.0000   384.0000 </r>
       <r>    19.8632     0.0000   384.0000 </r>
       <r>    19.9774     0.0000   384.0000 </r>
       <r>    20.0916     0.0000   384.0000 </r>
       <r>    20.2058     0.0000   384.0000 </r>
       <r>    20.3200     0.0000   384.0000 </r>
       <r>    20.4343     0.0000   384.0000 </r>
       <r>    20.5485     0.0000   384.0000 </r>
       <r>    20.6627     0.0000   384.0000 </r>
       <r>    20.7769     0.0000   384.0000 </r>
       <r>    20.8911     0.0000   384.0000 </r>
      </set>
     </set>
    </array>
   </total>
  </dos>
 </calculation>
 <structure name="finalpos" >
  <crystal>
   <varray name="basis" >
    <v>       7.35872000       0.00000000       0.00000000 </v>
    <v>       0.00000000       7.35872000       0.00000000 </v>
    <v>       0.00000000       0.00000000       7.35872000 </v>
   </varray>
   <i name="volume">    398.48028091 </i>
   <varray name="rec_basis" >
    <v>       0.13589320       0.00000000       0.00000000 </v>
    <v>       0.00000000       0.13589320       0.00000000 </v>
    <v>       0.00000000       0.00000000       0.13589320 </v>
   </varray>
  </crystal>
  <varray name="positions" >
   <v>       0.12500000       0.37500000       0.12500000 </v>
   <v>       0.62500000       0.37500000       0.12500000 </v>
   <v>       0.12500000       0.87500000       0.12500000 </v>
   <v>       0.62500000       0.87500000       0.12500000 </v>
   <v>       0.12500000       0.37500000       0.62500000 </v>
   <v>       0.62500000       0.37500000       0.62500000 </v>
   <v>       0.12500000       0.87500000       0.62500000 </v>
   <v>       0.62500000       0.87500000       0.62500000 </v>
   <v>       0.00000000       0.00000000       0.25000000 </v>
   <v>       0.50000000       0.00000000       0.25000000 </v>
   <v>       0.00000000       0.50000000       0.25000000 </v>
   <v>       0.50000000       0.50000000       0.25000000 </v>
   <v>       0.00000000       0.00000000       0.75000000 </v>
   <v>       0.50000000       0.00000000       0.75000000 </v>
   <v>       0.00000000       0.50000000       0.75000000 </v>
   <v>       0.50000000       0.50000000       0.75000000 </v>
   <v>       0.12500000       0.12500000       0.37500000 </v>
   <v>       0.62500000       0.12500000       0.37500000 </v>
   <v>       0.12500000       0.62500000       0.37500000 </v>
   <v>       0.62500000       0.62500000       0.37500000 </v>
   <v>       0.12500000       0.12500000       0.87500000 </v>
   <v>       0.62500000       0.12500000       0.87500000 </v>
   <v>       0.12500000       0.62500000       0.87500000 </v>
   <v>       0.62500000       0.62500000       0.87500000 </v>
   <v>       0.00000000       0.25000000       0.00000000 </v>
   <v>       0.50000000       0.25000000       0.00000000 </v>
   <v>       0.00000000       0.75000000       0.00000000 </v>
   <v>       0.50000000       0.75000000       0.00000000 </v>
   <v>       0.00000000       0.25000000       0.50000000 </v>
   <v>       0.50000000       0.25000000       0.50000000 </v>
   <v>       0.00000000       0.75000000       0.50000000 </v>
   <v>       0.50000000       0.75000000       0.50000000 </v>
   <v>       0.37500000       0.37500000       0.37500000 </v>
   <v>       0.87500000       0.37500000       0.37500000 </v>
   <v>       0.37500000       0.87500000       0.37500000 </v>
   <v>       0.87500000       0.87500000       0.37500000 </v>
   <v>       0.37500000       0.37500000       0.87500000 </v>
   <v>       0.87500000       0.37500000       0.87500000 </v>
   <v>       0.37500000       0.87500000       0.87500000 </v>
   <v>       0.87500000       0.87500000       0.87500000 </v>
   <v>       0.25000000       0.00000000       0.00000000 </v>
   <v>       0.75000000       0.00000000       0.00000000 </v>
   <v>       0.25000000       0.50000000       0.00000000 </v>
   <v>       0.75000000       0.50000000       0.00000000 </v>
   <v>       0.25000000       0.00000000       0.50000000 </v>
   <v>       0.75000000       0.00000000       0.50000000 </v>
   <v>       0.25000000       0.50000000       0.50000000 </v>
   <v>       0.75000000       0.50000000       0.50000000 </v>
   <v>       0.37500000       0.12500000       0.12500000 </v>
   <v>       0.87500000       0.12500000       0.12500000 </v>
   <v>       0.37500000       0.62500000       0.12500000 </v>
   <v>       0.87500000       0.62500000       0.12500000 </v>
   <v>       0.37500000       0.12500000       0.62500000 </v>
   <v>       0.87500000       0.12500000       0.62500000 </v>
   <v>       0.37500000       0.62500000       0.62500000 </v>
   <v>       0.87500000       0.62500000       0.62500000 </v>
   <v>       0.25000000       0.25000000       0.25000000 </v>
   <v>       0.75000000       0.25000000       0.25000000 </v>
   <v>       0.25000000       0.75000000       0.25000000 </v>
   <v>       0.75000000       0.75000000       0.25000000 </v>
   <v>       0.25000000       0.25000000       0.75000000 </v>
   <v>       0.75000000       0.25000000       0.75000000 </v>
   <v>       0.25000000       0.75000000       0.75000000 </v>
   <v>       0.75000000       0.75000000       0.75000000 </v>
  </varray>
 </structure>
</modeling>
