   8   8   0   0
  0.5684442E+01  0.3573710E-09  0.3573710E-09  0.3573710E-09  0.2000000E-16
  1.000000000000000E-004
  CAR 
 unknown system                          
     23.51591327    -13.42922085  301      9.86160745      1.00000000
    -13.429  0.0000E+00  0.0000E+00
    -13.306  0.0000E+00  0.0000E+00
    -13.183  0.0000E+00  0.0000E+00
    -13.060  0.0000E+00  0.0000E+00
    -12.937  0.0000E+00  0.0000E+00
    -12.813  0.0000E+00  0.0000E+00
    -12.690  0.0000E+00  0.0000E+00
    -12.567  0.0000E+00  0.0000E+00
    -12.444  0.0000E+00  0.0000E+00
    -12.321  0.0000E+00  0.0000E+00
    -12.198  0.0000E+00  0.0000E+00
    -12.075  0.0000E+00  0.0000E+00
    -11.951  0.0000E+00  0.0000E+00
    -11.828  0.0000E+00  0.0000E+00
    -11.705  0.3843E-01  0.5737E-03
    -11.582  0.1577E+00  0.1546E-01
    -11.459  0.2417E+00  0.4019E-01
    -11.336  0.2757E+00  0.7175E-01
    -11.213  0.3246E+00  0.1087E+00
    -11.089  0.3624E+00  0.1514E+00
    -10.966  0.3923E+00  0.1978E+00
    -10.843  0.4256E+00  0.2482E+00
    -10.720  0.4632E+00  0.3029E+00
    -10.597  0.4856E+00  0.3613E+00
    -10.474  0.5102E+00  0.4226E+00
    -10.350  0.5366E+00  0.4870E+00
    -10.227  0.5650E+00  0.5548E+00
    -10.104  0.5909E+00  0.6262E+00
     -9.981  0.6114E+00  0.7002E+00
     -9.858  0.6361E+00  0.7770E+00
     -9.735  0.6662E+00  0.8571E+00
     -9.612  0.7026E+00  0.9413E+00
     -9.488  0.7443E+00  0.1030E+01
     -9.365  0.7280E+00  0.1121E+01
     -9.242  0.7376E+00  0.1211E+01
     -9.119  0.7508E+00  0.1303E+01
     -8.996  0.7687E+00  0.1396E+01
     -8.873  0.7972E+00  0.1493E+01
     -8.750  0.8184E+00  0.1592E+01
     -8.626  0.8331E+00  0.1694E+01
     -8.503  0.8585E+00  0.1798E+01
     -8.380  0.8877E+00  0.1905E+01
     -8.257  0.9180E+00  0.2016E+01
     -8.134  0.9375E+00  0.2131E+01
     -8.011  0.9438E+00  0.2247E+01
     -7.887  0.9780E+00  0.2364E+01
     -7.764  0.1043E+01  0.2489E+01
     -7.641  0.1158E+01  0.2626E+01
     -7.518  0.1129E+01  0.2767E+01
     -7.395  0.1018E+01  0.2897E+01
     -7.272  0.1057E+01  0.3026E+01
     -7.149  0.1047E+01  0.3156E+01
     -7.025  0.9973E+00  0.3282E+01
     -6.902  0.1230E+01  0.3419E+01
     -6.779  0.1178E+01  0.3564E+01
     -6.656  0.1255E+01  0.3713E+01
     -6.533  0.1347E+01  0.3874E+01
     -6.410  0.1235E+01  0.4035E+01
     -6.286  0.1208E+01  0.4184E+01
     -6.163  0.1389E+01  0.4341E+01
     -6.040  0.1332E+01  0.4510E+01
     -5.917  0.1302E+01  0.4671E+01
     -5.794  0.1354E+01  0.4834E+01
     -5.671  0.1435E+01  0.5006E+01
     -5.548  0.1558E+01  0.5187E+01
     -5.424  0.1466E+01  0.5368E+01
     -5.301  0.1400E+01  0.5546E+01
     -5.178  0.1348E+01  0.5716E+01
     -5.055  0.1307E+01  0.5881E+01
     -4.932  0.1228E+01  0.6037E+01
     -4.809  0.1202E+01  0.6186E+01
     -4.686  0.1187E+01  0.6333E+01
     -4.562  0.1163E+01  0.6478E+01
     -4.439  0.1137E+01  0.6619E+01
     -4.316  0.1159E+01  0.6767E+01
     -4.193  0.1076E+01  0.6905E+01
     -4.070  0.9969E+00  0.7032E+01
     -3.947  0.9580E+00  0.7152E+01
     -3.823  0.9382E+00  0.7269E+01
     -3.700  0.9250E+00  0.7383E+01
     -3.577  0.9737E+00  0.7499E+01
     -3.454  0.1045E+01  0.7624E+01
     -3.331  0.9818E+00  0.7749E+01
     -3.208  0.1011E+01  0.7881E+01
     -3.085  0.9167E+00  0.8000E+01
     -2.961  0.8720E+00  0.8110E+01
     -2.838  0.8870E+00  0.8220E+01
     -2.715  0.9811E+00  0.8335E+01
     -2.592  0.8422E+00  0.8444E+01
     -2.469  0.9638E+00  0.8554E+01
     -2.346  0.1162E+01  0.8685E+01
     -2.223  0.1377E+01  0.8842E+01
     -2.099  0.1803E+01  0.9036E+01
     -1.976  0.2045E+01  0.9274E+01
     -1.853  0.2735E+01  0.9567E+01
     -1.730  0.2180E+01  0.9866E+01
     -1.607  0.1988E+01  0.1012E+02
     -1.484  0.1903E+01  0.1036E+02
     -1.360  0.1879E+01  0.1059E+02
     -1.237  0.1895E+01  0.1083E+02
     -1.114  0.1750E+01  0.1105E+02
     -0.991  0.1755E+01  0.1127E+02
     -0.868  0.1539E+01  0.1147E+02
     -0.745  0.1439E+01  0.1165E+02
     -0.622  0.1371E+01  0.1182E+02
     -0.498  0.1340E+01  0.1199E+02
     -0.375  0.1314E+01  0.1215E+02
     -0.252  0.1230E+01  0.1231E+02
     -0.129  0.1218E+01  0.1246E+02
     -0.006  0.1165E+01  0.1261E+02
      0.117  0.1125E+01  0.1275E+02
      0.240  0.1144E+01  0.1289E+02
      0.364  0.1024E+01  0.1302E+02
      0.487  0.1012E+01  0.1315E+02
      0.610  0.1330E+01  0.1329E+02
      0.733  0.1876E+01  0.1348E+02
      0.856  0.2038E+01  0.1373E+02
      0.979  0.2115E+01  0.1398E+02
      1.103  0.2146E+01  0.1425E+02
      1.226  0.2174E+01  0.1452E+02
      1.349  0.2199E+01  0.1479E+02
      1.472  0.2174E+01  0.1506E+02
      1.595  0.1878E+01  0.1532E+02
      1.718  0.1463E+01  0.1553E+02
      1.841  0.1423E+01  0.1570E+02
      1.965  0.1655E+01  0.1589E+02
      2.088  0.2133E+01  0.1612E+02
      2.211  0.2558E+01  0.1641E+02
      2.334  0.2526E+01  0.1673E+02
      2.457  0.2291E+01  0.1702E+02
      2.580  0.2227E+01  0.1730E+02
      2.703  0.2237E+01  0.1757E+02
      2.827  0.2552E+01  0.1786E+02
      2.950  0.2573E+01  0.1819E+02
      3.073  0.2596E+01  0.1850E+02
      3.196  0.2956E+01  0.1884E+02
      3.319  0.2718E+01  0.1919E+02
      3.442  0.2738E+01  0.1953E+02
      3.566  0.2757E+01  0.1987E+02
      3.689  0.2815E+01  0.2022E+02
      3.812  0.2957E+01  0.2056E+02
      3.935  0.3257E+01  0.2094E+02
      4.058  0.3266E+01  0.2135E+02
      4.181  0.3146E+01  0.2173E+02
      4.304  0.3053E+01  0.2211E+02
      4.428  0.3171E+01  0.2250E+02
      4.551  0.2947E+01  0.2287E+02
      4.674  0.2899E+01  0.2323E+02
      4.797  0.2682E+01  0.2358E+02
      4.920  0.2653E+01  0.2390E+02
      5.043  0.2892E+01  0.2424E+02
      5.166  0.3033E+01  0.2462E+02
      5.290  0.3021E+01  0.2500E+02
      5.413  0.2872E+01  0.2536E+02
      5.536  0.2684E+01  0.2571E+02
      5.659  0.2533E+01  0.2603E+02
      5.782  0.2558E+01  0.2634E+02
      5.905  0.2563E+01  0.2666E+02
      6.029  0.2600E+01  0.2697E+02
      6.152  0.2856E+01  0.2732E+02
      6.275  0.2823E+01  0.2767E+02
      6.398  0.2705E+01  0.2801E+02
      6.521  0.2676E+01  0.2834E+02
      6.644  0.2502E+01  0.2866E+02
      6.767  0.2574E+01  0.2897E+02
      6.891  0.2227E+01  0.2927E+02
      7.014  0.1635E+01  0.2949E+02
      7.137  0.1770E+01  0.2970E+02
      7.260  0.1861E+01  0.2992E+02
      7.383  0.1885E+01  0.3016E+02
      7.506  0.1594E+01  0.3037E+02
      7.630  0.1452E+01  0.3056E+02
      7.753  0.1318E+01  0.3073E+02
      7.876  0.1174E+01  0.3088E+02
      7.999  0.1062E+01  0.3102E+02
      8.122  0.9844E+00  0.3114E+02
      8.245  0.9127E+00  0.3126E+02
      8.368  0.8803E+00  0.3137E+02
      8.492  0.7796E+00  0.3147E+02
      8.615  0.6894E+00  0.3156E+02
      8.738  0.6245E+00  0.3165E+02
      8.861  0.6057E+00  0.3172E+02
      8.984  0.5008E+00  0.3179E+02
      9.107  0.4014E+00  0.3185E+02
      9.230  0.3800E+00  0.3189E+02
      9.354  0.2838E+00  0.3194E+02
      9.477  0.1992E+00  0.3197E+02
      9.600  0.1716E+00  0.3199E+02
      9.723  0.2564E-01  0.3200E+02
      9.846  0.0000E+00  0.3200E+02
      9.969  0.0000E+00  0.3200E+02
     10.093  0.0000E+00  0.3200E+02
     10.216  0.0000E+00  0.3200E+02
     10.339  0.0000E+00  0.3200E+02
     10.462  0.0000E+00  0.3200E+02
     10.585  0.0000E+00  0.3200E+02
     10.708  0.0000E+00  0.3200E+02
     10.831  0.0000E+00  0.3200E+02
     10.955  0.0000E+00  0.3200E+02
     11.078  0.0000E+00  0.3200E+02
     11.201  0.0000E+00  0.3200E+02
     11.324  0.0000E+00  0.3200E+02
     11.447  0.0000E+00  0.3200E+02
     11.570  0.0000E+00  0.3200E+02
     11.693  0.0000E+00  0.3200E+02
     11.817  0.0000E+00  0.3200E+02
     11.940  0.0000E+00  0.3200E+02
     12.063  0.0000E+00  0.3200E+02
     12.186  0.0000E+00  0.3200E+02
     12.309  0.0000E+00  0.3200E+02
     12.432  0.0000E+00  0.3200E+02
     12.556  0.0000E+00  0.3200E+02
     12.679  0.0000E+00  0.3200E+02
     12.802  0.0000E+00  0.3200E+02
     12.925  0.0000E+00  0.3200E+02
     13.048  0.0000E+00  0.3200E+02
     13.171  0.0000E+00  0.3200E+02
     13.294  0.0000E+00  0.3200E+02
     13.418  0.0000E+00  0.3200E+02
     13.541  0.0000E+00  0.3200E+02
     13.664  0.1688E+00  0.3201E+02
     13.787  0.4015E+00  0.3204E+02
     13.910  0.5648E+00  0.3211E+02
     14.033  0.6955E+00  0.3218E+02
     14.156  0.8200E+00  0.3227E+02
     14.280  0.8662E+00  0.3238E+02
     14.403  0.9507E+00  0.3249E+02
     14.526  0.1368E+01  0.3263E+02
     14.649  0.1262E+01  0.3279E+02
     14.772  0.1281E+01  0.3295E+02
     14.895  0.1292E+01  0.3310E+02
     15.019  0.1296E+01  0.3326E+02
     15.142  0.1307E+01  0.3342E+02
     15.265  0.1447E+01  0.3359E+02
     15.388  0.1545E+01  0.3378E+02
     15.511  0.1586E+01  0.3397E+02
     15.634  0.1660E+01  0.3417E+02
     15.757  0.1753E+01  0.3438E+02
     15.881  0.1789E+01  0.3460E+02
     16.004  0.1898E+01  0.3482E+02
     16.127  0.2116E+01  0.3507E+02
     16.250  0.2320E+01  0.3534E+02
     16.373  0.2482E+01  0.3563E+02
     16.496  0.2679E+01  0.3595E+02
     16.619  0.2925E+01  0.3629E+02
     16.743  0.3256E+01  0.3669E+02
     16.866  0.3494E+01  0.3711E+02
     16.989  0.3256E+01  0.3754E+02
     17.112  0.2747E+01  0.3791E+02
     17.235  0.2586E+01  0.3824E+02
     17.358  0.2473E+01  0.3855E+02
     17.482  0.2142E+01  0.3883E+02
     17.605  0.2260E+01  0.3910E+02
     17.728  0.2453E+01  0.3939E+02
     17.851  0.2497E+01  0.3970E+02
     17.974  0.2664E+01  0.4002E+02
     18.097  0.2797E+01  0.4035E+02
     18.220  0.3050E+01  0.4071E+02
     18.344  0.3210E+01  0.4108E+02
     18.467  0.3724E+01  0.4151E+02
     18.590  0.4401E+01  0.4202E+02
     18.713  0.4100E+01  0.4256E+02
     18.836  0.4331E+01  0.4311E+02
     18.959  0.3683E+01  0.4360E+02
     19.082  0.3389E+01  0.4404E+02
     19.206  0.3547E+01  0.4446E+02
     19.329  0.3297E+01  0.4489E+02
     19.452  0.3004E+01  0.4528E+02
     19.575  0.2703E+01  0.4563E+02
     19.698  0.2554E+01  0.4595E+02
     19.821  0.2528E+01  0.4626E+02
     19.945  0.2551E+01  0.4657E+02
     20.068  0.2525E+01  0.4690E+02
     20.191  0.2106E+01  0.4718E+02
     20.314  0.1654E+01  0.4742E+02
     20.437  0.1357E+01  0.4760E+02
     20.560  0.9278E+00  0.4774E+02
     20.683  0.5048E+00  0.4783E+02
     20.807  0.3158E+00  0.4788E+02
     20.930  0.2502E+00  0.4791E+02
     21.053  0.1771E+00  0.4794E+02
     21.176  0.1333E+00  0.4796E+02
     21.299  0.1000E+00  0.4797E+02
     21.422  0.7669E-01  0.4798E+02
     21.546  0.6024E-01  0.4799E+02
     21.669  0.3635E-01  0.4800E+02
     21.792  0.2585E-02  0.4800E+02
     21.915  0.0000E+00  0.4800E+02
     22.038  0.0000E+00  0.4800E+02
     22.161  0.0000E+00  0.4800E+02
     22.284  0.0000E+00  0.4800E+02
     22.408  0.0000E+00  0.4800E+02
     22.531  0.0000E+00  0.4800E+02
     22.654  0.0000E+00  0.4800E+02
     22.777  0.0000E+00  0.4800E+02
     22.900  0.0000E+00  0.4800E+02
     23.023  0.0000E+00  0.4800E+02
     23.146  0.0000E+00  0.4800E+02
     23.270  0.0000E+00  0.4800E+02
     23.393  0.0000E+00  0.4800E+02
     23.516  0.0000E+00  0.4800E+02
