       N       E                     dE             d eps       ncg     rms          rms(c)
DAV:   1     0.584049153499E+02    0.58405E+02   -0.14334E+04  9080   0.105E+03
DAV:   2    -0.704884834759E+02   -0.12889E+03   -0.12177E+03 12560   0.222E+02
DAV:   3    -0.747572632516E+02   -0.42688E+01   -0.42469E+01 11864   0.378E+01
DAV:   4    -0.747997925726E+02   -0.42529E-01   -0.42497E-01 11224   0.419E+00
DAV:   5    -0.748006560940E+02   -0.86352E-03   -0.86303E-03 11888   0.533E-01    0.959E+00
DAV:   6    -0.728411926857E+02    0.19595E+01   -0.13182E+00 10400   0.663E+00    0.525E+00
DAV:   7    -0.721840924647E+02    0.65710E+00   -0.15096E+00 10848   0.729E+00    0.712E-01
DAV:   8    -0.721922471982E+02   -0.81547E-02   -0.38859E-02 11208   0.117E+00    0.757E-02
DAV:   9    -0.721924876902E+02   -0.24049E-03   -0.46137E-04 11320   0.147E-01    0.341E-02
DAV:  10    -0.721925501571E+02   -0.62467E-04   -0.44982E-05 11352   0.500E-02    0.349E-03
DAV:  11    -0.721925518408E+02   -0.16836E-05   -0.14153E-06  8648   0.899E-03    0.102E-03
DAV:  12    -0.721925518359E+02    0.48583E-08   -0.13930E-07  8104   0.273E-03
   1 F= -.72192552E+02 E0= -.72192552E+02  d E =0.000000E+00
