 vasp.5.4.4.18Apr17-6-g9f103f2a35 (build Mar 12 2022 03:36:41) complex          
  
 executed on IFC19.0.3.199_CrayMP date 2022.11.30  12:57:05
 running on   16 total cores
 distrk:  each k-point on   16 cores,    1 groups
 distr:  one band on NCORES_PER_BAND=   4 cores,    4 groups


--------------------------------------------------------------------------------------------------------


 INCAR:
 POTCAR:   PAW_PBE C 08Apr2002                    
 POTCAR:   PAW_PBE C 08Apr2002                    
   VRHFIN =C: s2p2                                                              
   LEXCH  = PE                                                                  
   EATOM  =   147.1560 eV,   10.8157 Ry                                         
                                                                                
   TITEL  = PAW_PBE C 08Apr2002                                                 
   LULTRA =        F    use ultrasoft PP ?                                      
   IUNSCR =        0    unscreen: 0-lin 1-nonlin 2-no                           
   RPACOR =     .000    partial core radius                                     
   POMASS =   12.011; ZVAL   =    4.000    mass and valenz                      
   RCORE  =    1.500    outmost cutoff radius                                   
   RWIGS  =    1.630; RWIGS  =     .863    wigner-seitz radius (au A)           
   ENMAX  =  400.000; ENMIN  =  300.000 eV                                      
   ICORE  =        2    local potential                                         
   LCOR   =        T    correct aug charges                                     
   LPAW   =        T    paw PP                                                  
   EAUG   =  644.873                                                            
   DEXC   =     .000                                                            
   RMAX   =    2.266    core radius for proj-oper                               
   RAUG   =    1.300    factor for augmentation sphere                          
   RDEP   =    1.501    radius for radial grids                                 
   RDEPT  =    1.300    core radius for aug-charge                              
   QCUT   =   -5.516; QGAM   =   11.032    optimization parameters              
                                                                                
   Description                                                                  
     l     E      TYP  RCUT    TYP  RCUT                                        
     0   .000     23  1.200                                                     
     0   .000     23  1.200                                                     
     1   .000     23  1.500                                                     
     1  2.500     23  1.500                                                     
     2   .000      7  1.500                                                     
  local pseudopotential read in
  atomic valenz-charges read in
  non local Contribution for L=           0  read in
    real space projection operators read in
  non local Contribution for L=           0  read in
    real space projection operators read in
  non local Contribution for L=           1  read in
    real space projection operators read in
  non local Contribution for L=           1  read in
    real space projection operators read in
    PAW grid and wavefunctions read in
 
   number of l-projection  operators is LMAX  =           4
   number of lm-projection operators is LMMAX =           8
 
 PAW_PBE C 08Apr2002                    :
 energy of atom  1       EATOM= -147.1560
 kinetic energy error for atom=    0.0288 (will be added to EATOM!!)
 
 
 POSCAR: C8                                      
  positions in direct lattice
  No initial velocities read in
 exchange correlation table for  LEXCH =        8
   RHO(1)=    0.500       N(1)  =     2000
   RHO(2)=  100.500       N(2)  =     4000
 


--------------------------------------------------------------------------------------------------------


 ion  position               nearest neighbor table
   1  0.250  0.750  0.250-   6 1.52   8 1.52   2 1.52   4 1.62
   2  0.000  0.000  0.500-   5 1.52   7 1.52   1 1.52   3 1.62
   3  0.250  0.250  0.750-   6 1.52   8 1.52   4 1.52   2 1.62
   4  0.000  0.500  0.000-   5 1.52   7 1.52   3 1.52   1 1.62
   5  0.750  0.750  0.750-   2 1.52   4 1.52   6 1.52   8 1.62
   6  0.500  0.000  0.000-   1 1.52   3 1.52   5 1.52   7 1.62
   7  0.750  0.250  0.250-   2 1.52   4 1.52   8 1.52   6 1.62
   8  0.500  0.500  0.500-   1 1.52   3 1.52   7 1.52   5 1.62
 
  LATTYP: Found a trigonal (rhomboedric) cell.
 ALAT       =     3.5737099080
 COS(alpha) =     0.0499998614
  
  Lattice vectors:
  
 A1 = (   3.5737100000,   0.0000000000,   0.0000000000)
 A2 = (   0.1786850000,   3.5692400000,   0.0000000000)
 A3 = (   0.1786850000,   0.1699640000,   3.5651910000)


Analysis of symmetry for initial positions (statically):
=====================================================================
 Subroutine PRICEL returns following result:
 
  LATTYP: Found a trigonal (rhomboedric) cell.
 ALAT       =     2.5893989040
 COS(alpha) =     0.5476189500
  
  Lattice vectors:
  
 A1 = (  -0.1786850000,  -1.8696020000,  -1.7825955000)
 A2 = (  -1.8761975000,  -1.7846200000,  -0.0000000000)
 A3 = (  -1.8761975000,  -0.0849820000,  -1.7825955000)
 
   4 primitive cells build up your supercell.
 

 Routine SETGRP: Setting up the symmetry group for a 
 trigonal (rhombohedral) supercell.


 Subroutine GETGRP returns: Found 12 space group operations
 (whereof  6 operations were pure point group operations)
 out of a pool of 12 trial point group operations.


The static configuration has the point symmetry C_3v.
 The point group associated with its full space group is D_3d.


Analysis of symmetry for dynamics (positions and initial velocities):
=====================================================================
 Subroutine PRICEL returns following result:
 
  LATTYP: Found a trigonal (rhomboedric) cell.
 ALAT       =     2.5893989040
 COS(alpha) =     0.5476189500
  
  Lattice vectors:
  
 A1 = (  -0.1786850000,  -1.8696020000,  -1.7825955000)
 A2 = (  -1.8761975000,  -1.7846200000,  -0.0000000000)
 A3 = (  -1.8761975000,  -0.0849820000,  -1.7825955000)
 
   4 primitive cells build up your supercell.
 

 Routine SETGRP: Setting up the symmetry group for a 
 trigonal (rhombohedral) supercell.


 Subroutine GETGRP returns: Found 12 space group operations
 (whereof  6 operations were pure point group operations)
 out of a pool of 12 trial point group operations.


The dynamic configuration has the point symmetry C_3v.
 The point group associated with its full space group is D_3d.


 Subroutine INISYM returns: Found 12 space group operations
 (whereof  6 operations are pure point group operations),
 and found     4 'primitive' translations

 
 
 KPOINTS: kpt_density=1000                        

Automatic generation of k-mesh.
Space group operators:
 irot       det(A)        alpha          n_x          n_y          n_z        tau_x        tau_y        tau_z
    1     1.000000     0.000000     1.000000     0.000000     0.000000     0.000000     0.000000     0.000000
    2    -1.000000   180.000000     0.000000    -0.690066     0.723747     0.000000     0.000000     0.000000
    3     1.000000   120.000000    -0.605530    -0.575974    -0.549170     0.000000     0.000000     0.000000
    4    -1.000000   180.000000    -0.689202     0.724569    -0.000000     0.000000     0.000000     0.000000
    5     1.000000   120.000000     0.605530     0.575974     0.549170     0.000000     0.000000     0.000000
    6    -1.000000   179.999999    -0.689202     0.034503     0.723747     0.000000     0.000000     0.000000
    7    -1.000000     0.000000     1.000000     0.000000     0.000000    -0.750000    -0.750000    -0.750000
    8     1.000000   180.000000     0.000000    -0.690066     0.723747    -0.750000    -0.750000    -0.750000
    9    -1.000000   120.000000    -0.605530    -0.575974    -0.549170    -0.750000    -0.750000    -0.750000
   10     1.000000   180.000000    -0.689202     0.724569    -0.000000    -0.750000    -0.750000    -0.750000
   11    -1.000000   120.000000     0.605530     0.575974     0.549170    -0.750000    -0.750000    -0.750000
   12     1.000000   179.999999    -0.689202     0.034503     0.723747    -0.750000    -0.750000    -0.750000
 
 Subroutine IBZKPT returns following result:
 ===========================================
 
 Found    189 irreducible k-points:
 
 Following reciprocal coordinates:
            Coordinates               Weight
  0.000000  0.000000  0.000000      1.000000
  0.083333  0.000000  0.000000      6.000000
  0.166667  0.000000 -0.000000      6.000000
  0.250000  0.000000 -0.000000      6.000000
  0.333333  0.000000 -0.000000      6.000000
  0.416667  0.000000 -0.000000      6.000000
  0.500000  0.000000 -0.000000      3.000000
  0.083333  0.083333 -0.000000      6.000000
  0.166667  0.083333 -0.000000     12.000000
  0.250000  0.083333  0.000000     12.000000
  0.333333  0.083333 -0.000000     12.000000
  0.416667  0.083333 -0.000000     12.000000
  0.500000  0.083333 -0.000000     12.000000
 -0.416667  0.083333 -0.000000     12.000000
 -0.333333  0.083333  0.000000     12.000000
 -0.250000  0.083333  0.000000     12.000000
 -0.166667  0.083333  0.000000     12.000000
 -0.083333  0.083333  0.000000      6.000000
  0.166667  0.166667  0.000000      6.000000
  0.250000  0.166667  0.000000     12.000000
  0.333333  0.166667  0.000000     12.000000
  0.416667  0.166667  0.000000     12.000000
  0.500000  0.166667 -0.000000     12.000000
 -0.416667  0.166667 -0.000000     12.000000
 -0.333333  0.166667  0.000000     12.000000
 -0.250000  0.166667  0.000000     12.000000
 -0.166667  0.166667  0.000000      6.000000
  0.250000  0.250000 -0.000000      6.000000
  0.333333  0.250000 -0.000000     12.000000
  0.416667  0.250000 -0.000000     12.000000
  0.500000  0.250000  0.000000     12.000000
 -0.416667  0.250000  0.000000     12.000000
 -0.333333  0.250000  0.000000     12.000000
 -0.250000  0.250000  0.000000      6.000000
  0.333333  0.333333 -0.000000      6.000000
  0.416667  0.333333 -0.000000     12.000000
  0.500000  0.333333  0.000000     12.000000
 -0.416667  0.333333  0.000000     12.000000
 -0.333333  0.333333 -0.000000      6.000000
  0.416667  0.416667  0.000000      6.000000
  0.500000  0.416667 -0.000000     12.000000
 -0.416667  0.416667 -0.000000      6.000000
  0.500000  0.500000 -0.000000      3.000000
  0.083333  0.083333  0.083333      2.000000
  0.166667  0.083333  0.083333      6.000000
  0.250000  0.083333  0.083333      6.000000
  0.333333  0.083333  0.083333      6.000000
  0.416667  0.083333  0.083333      6.000000
  0.500000  0.083333  0.083333      6.000000
 -0.416667  0.083333  0.083333      6.000000
 -0.333333  0.083333  0.083333      6.000000
 -0.250000  0.083333  0.083333      6.000000
 -0.166667  0.083333  0.083333      6.000000
 -0.083333  0.083333  0.083333      6.000000
  0.166667  0.166667  0.083333      6.000000
  0.250000  0.166667  0.083333     12.000000
  0.333333  0.166667  0.083333     12.000000
  0.416667  0.166667  0.083333     12.000000
  0.500000  0.166667  0.083333     12.000000
 -0.416667  0.166667  0.083333     12.000000
 -0.333333  0.166667  0.083333     12.000000
 -0.250000  0.166667  0.083333     12.000000
 -0.166667  0.166667  0.083333     12.000000
 -0.083333  0.166667  0.083333     12.000000
  0.250000  0.250000  0.083333      6.000000
  0.333333  0.250000  0.083333     12.000000
  0.416667  0.250000  0.083333     12.000000
  0.500000  0.250000  0.083333     12.000000
 -0.416667  0.250000  0.083333     12.000000
 -0.333333  0.250000  0.083333     12.000000
 -0.250000  0.250000  0.083333     12.000000
 -0.166667  0.250000  0.083333     12.000000
 -0.083333  0.250000  0.083333     12.000000
  0.333333  0.333333  0.083333      6.000000
  0.416667  0.333333  0.083333     12.000000
  0.500000  0.333333  0.083333     12.000000
 -0.416667  0.333333  0.083333     12.000000
 -0.333333  0.333333  0.083333     12.000000
 -0.250000  0.333333  0.083333     12.000000
 -0.166667  0.333333  0.083333     12.000000
 -0.083333  0.333333  0.083333     12.000000
  0.416667  0.416667  0.083333      6.000000
  0.500000  0.416667  0.083333     12.000000
 -0.416667  0.416667  0.083333     12.000000
 -0.333333  0.416667  0.083333     12.000000
 -0.250000  0.416667  0.083333     12.000000
 -0.166667  0.416667  0.083333     12.000000
 -0.083333  0.416667  0.083333     12.000000
  0.500000  0.500000  0.083333      6.000000
 -0.416667  0.500000  0.083333     12.000000
 -0.333333  0.500000  0.083333     12.000000
 -0.250000  0.500000  0.083333     12.000000
 -0.166667  0.500000  0.083333     12.000000
 -0.083333  0.500000  0.083333      6.000000
 -0.416667 -0.416667  0.083333      6.000000
 -0.333333 -0.416667  0.083333     12.000000
 -0.250000 -0.416667  0.083333     12.000000
 -0.166667 -0.416667  0.083333     12.000000
 -0.333333 -0.333333  0.083333      6.000000
 -0.250000 -0.333333  0.083333     12.000000
 -0.166667 -0.333333  0.083333     12.000000
 -0.250000 -0.250000  0.083333      6.000000
 -0.166667 -0.250000  0.083333     12.000000
 -0.166667 -0.166667  0.083333      6.000000
  0.166667  0.166667  0.166667      2.000000
  0.250000  0.166667  0.166667      6.000000
  0.333333  0.166667  0.166667      6.000000
  0.416667  0.166667  0.166667      6.000000
  0.500000  0.166667  0.166667      6.000000
 -0.416667  0.166667  0.166667      6.000000
 -0.333333  0.166667  0.166667      6.000000
 -0.250000  0.166667  0.166667      6.000000
 -0.166667  0.166667  0.166667      6.000000
  0.250000  0.250000  0.166667      6.000000
  0.333333  0.250000  0.166667     12.000000
  0.416667  0.250000  0.166667     12.000000
  0.500000  0.250000  0.166667     12.000000
 -0.416667  0.250000  0.166667     12.000000
 -0.333333  0.250000  0.166667     12.000000
 -0.250000  0.250000  0.166667     12.000000
 -0.166667  0.250000  0.166667     12.000000
  0.333333  0.333333  0.166667      6.000000
  0.416667  0.333333  0.166667     12.000000
  0.500000  0.333333  0.166667     12.000000
 -0.416667  0.333333  0.166667     12.000000
 -0.333333  0.333333  0.166667     12.000000
 -0.250000  0.333333  0.166667     12.000000
 -0.166667  0.333333  0.166667     12.000000
  0.416667  0.416667  0.166667      6.000000
  0.500000  0.416667  0.166667     12.000000
 -0.416667  0.416667  0.166667     12.000000
 -0.333333  0.416667  0.166667     12.000000
 -0.250000  0.416667  0.166667     12.000000
 -0.166667  0.416667  0.166667     12.000000
  0.500000  0.500000  0.166667      6.000000
 -0.416667  0.500000  0.166667     12.000000
 -0.333333  0.500000  0.166667     12.000000
 -0.250000  0.500000  0.166667     12.000000
 -0.166667  0.500000  0.166667      6.000000
 -0.416667 -0.416667  0.166667      6.000000
 -0.333333 -0.416667  0.166667     12.000000
 -0.250000 -0.416667  0.166667     12.000000
 -0.333333 -0.333333  0.166667      6.000000
 -0.250000 -0.333333  0.166667     12.000000
 -0.250000 -0.250000  0.166667      6.000000
  0.250000  0.250000  0.250000      2.000000
  0.333333  0.250000  0.250000      6.000000
  0.416667  0.250000  0.250000      6.000000
  0.500000  0.250000  0.250000      6.000000
 -0.416667  0.250000  0.250000      6.000000
 -0.333333  0.250000  0.250000      6.000000
 -0.250000  0.250000  0.250000      6.000000
  0.333333  0.333333  0.250000      6.000000
  0.416667  0.333333  0.250000     12.000000
  0.500000  0.333333  0.250000     12.000000
 -0.416667  0.333333  0.250000     12.000000
 -0.333333  0.333333  0.250000     12.000000
 -0.250000  0.333333  0.250000     12.000000
  0.416667  0.416667  0.250000      6.000000
  0.500000  0.416667  0.250000     12.000000
 -0.416667  0.416667  0.250000     12.000000
 -0.333333  0.416667  0.250000     12.000000
 -0.250000  0.416667  0.250000     12.000000
  0.500000  0.500000  0.250000      6.000000
 -0.416667  0.500000  0.250000     12.000000
 -0.333333  0.500000  0.250000     12.000000
 -0.250000  0.500000  0.250000      6.000000
 -0.416667 -0.416667  0.250000      6.000000
 -0.333333 -0.416667  0.250000     12.000000
 -0.333333 -0.333333  0.250000      6.000000
  0.333333  0.333333  0.333333      2.000000
  0.416667  0.333333  0.333333      6.000000
  0.500000  0.333333  0.333333      6.000000
 -0.416667  0.333333  0.333333      6.000000
 -0.333333  0.333333  0.333333      6.000000
  0.416667  0.416667  0.333333      6.000000
  0.500000  0.416667  0.333333     12.000000
 -0.416667  0.416667  0.333333     12.000000
 -0.333333  0.416667  0.333333     12.000000
  0.500000  0.500000  0.333333      6.000000
 -0.416667  0.500000  0.333333     12.000000
 -0.333333  0.500000  0.333333      6.000000
 -0.416667 -0.416667  0.333333      6.000000
  0.416667  0.416667  0.416667      2.000000
  0.500000  0.416667  0.416667      6.000000
 -0.416667  0.416667  0.416667      6.000000
  0.500000  0.500000  0.416667      6.000000
 -0.416667  0.500000  0.416667      6.000000
  0.500000  0.500000  0.500000      1.000000
 
 Following cartesian coordinates:
            Coordinates               Weight
  0.000000  0.000000  0.000000      1.000000
  0.023318 -0.001167 -0.001113      6.000000
  0.046637 -0.002335 -0.002226      6.000000
  0.069955 -0.003502 -0.003339      6.000000
  0.093274 -0.004670 -0.004452      6.000000
  0.116592 -0.005837 -0.005565      6.000000
  0.139911 -0.007004 -0.006678      3.000000
  0.023318  0.022180 -0.002226      6.000000
  0.046637  0.021013 -0.003339     12.000000
  0.069955  0.019846 -0.004452     12.000000
  0.093274  0.018678 -0.005565     12.000000
  0.116592  0.017511 -0.006678     12.000000
  0.139911  0.016343 -0.007791     12.000000
 -0.116592  0.029185  0.004452     12.000000
 -0.093274  0.028017  0.003339     12.000000
 -0.069955  0.026850  0.002226     12.000000
 -0.046637  0.025682  0.001113     12.000000
 -0.023318  0.024515 -0.000000      6.000000
  0.046637  0.044361 -0.004452      6.000000
  0.069955  0.043193 -0.005565     12.000000
  0.093274  0.042026 -0.006678     12.000000
  0.116592  0.040858 -0.007791     12.000000
  0.139911  0.039691 -0.008904     12.000000
 -0.116592  0.052532  0.003339     12.000000
 -0.093274  0.051365  0.002226     12.000000
 -0.069955  0.050197  0.001113     12.000000
 -0.046637  0.049030 -0.000000      6.000000
  0.069955  0.066541 -0.006678      6.000000
  0.093274  0.065373 -0.007791     12.000000
  0.116592  0.064206 -0.008904     12.000000
  0.139911  0.063039 -0.010017     12.000000
 -0.116592  0.075880  0.002226     12.000000
 -0.093274  0.074712  0.001113     12.000000
 -0.069955  0.073545 -0.000000      6.000000
  0.093274  0.088721 -0.008904      6.000000
  0.116592  0.087554 -0.010017     12.000000
  0.139911  0.086386 -0.011131     12.000000
 -0.116592  0.099227  0.001113     12.000000
 -0.093274  0.098060 -0.000000      6.000000
  0.116592  0.110901 -0.011131      6.000000
  0.139911  0.109734 -0.012244     12.000000
 -0.116592  0.122575 -0.000000      6.000000
  0.139911  0.133082 -0.013357      3.000000
  0.023318  0.022180  0.021148      2.000000
  0.046637  0.021013  0.020035      6.000000
  0.069955  0.019846  0.018922      6.000000
  0.093274  0.018678  0.017809      6.000000
  0.116592  0.017511  0.016696      6.000000
  0.139911  0.016343  0.015583      6.000000
 -0.116592  0.029185  0.027826      6.000000
 -0.093274  0.028017  0.026713      6.000000
 -0.069955  0.026850  0.025600      6.000000
 -0.046637  0.025682  0.024487      6.000000
 -0.023318  0.024515  0.023374      6.000000
  0.046637  0.044361  0.018922      6.000000
  0.069955  0.043193  0.017809     12.000000
  0.093274  0.042026  0.016696     12.000000
  0.116592  0.040858  0.015583     12.000000
  0.139911  0.039691  0.014470     12.000000
 -0.116592  0.052532  0.026713     12.000000
 -0.093274  0.051365  0.025600     12.000000
 -0.069955  0.050197  0.024487     12.000000
 -0.046637  0.049030  0.023374     12.000000
 -0.023318  0.047863  0.022261     12.000000
  0.069955  0.066541  0.016696      6.000000
  0.093274  0.065373  0.015583     12.000000
  0.116592  0.064206  0.014470     12.000000
  0.139911  0.063039  0.013357     12.000000
 -0.116592  0.075880  0.025600     12.000000
 -0.093274  0.074712  0.024487     12.000000
 -0.069955  0.073545  0.023374     12.000000
 -0.046637  0.072378  0.022261     12.000000
 -0.023318  0.071210  0.021148     12.000000
  0.093274  0.088721  0.014470      6.000000
  0.116592  0.087554  0.013357     12.000000
  0.139911  0.086386  0.012244     12.000000
 -0.116592  0.099227  0.024487     12.000000
 -0.093274  0.098060  0.023374     12.000000
 -0.069955  0.096893  0.022261     12.000000
 -0.046637  0.095725  0.021148     12.000000
 -0.023318  0.094558  0.020035     12.000000
  0.116592  0.110901  0.012244      6.000000
  0.139911  0.109734  0.011131     12.000000
 -0.116592  0.122575  0.023374     12.000000
 -0.093274  0.121408  0.022261     12.000000
 -0.069955  0.120240  0.021148     12.000000
 -0.046637  0.119073  0.020035     12.000000
 -0.023318  0.117906  0.018922     12.000000
  0.139911  0.133082  0.010018      6.000000
 -0.116592  0.145923  0.022261     12.000000
 -0.093274  0.144755  0.021148     12.000000
 -0.069955  0.143588  0.020035     12.000000
 -0.046637  0.142421  0.018922     12.000000
 -0.023318  0.141253  0.017809      6.000000
 -0.116592 -0.110901  0.034505      6.000000
 -0.093274 -0.112069  0.033392     12.000000
 -0.069955 -0.113236  0.032279     12.000000
 -0.046637 -0.114403  0.031166     12.000000
 -0.093274 -0.088721  0.032279      6.000000
 -0.069955 -0.089888  0.031166     12.000000
 -0.046637 -0.091056  0.030052     12.000000
 -0.069955 -0.066541  0.030052      6.000000
 -0.046637 -0.067708  0.028939     12.000000
 -0.046637 -0.044361  0.027826      6.000000
  0.046637  0.044361  0.042296      2.000000
  0.069955  0.043193  0.041183      6.000000
  0.093274  0.042026  0.040070      6.000000
  0.116592  0.040858  0.038957      6.000000
  0.139911  0.039691  0.037844      6.000000
 -0.116592  0.052532  0.050087      6.000000
 -0.093274  0.051365  0.048974      6.000000
 -0.069955  0.050197  0.047861      6.000000
 -0.046637  0.049030  0.046748      6.000000
  0.069955  0.066541  0.040070      6.000000
  0.093274  0.065373  0.038957     12.000000
  0.116592  0.064206  0.037844     12.000000
  0.139911  0.063039  0.036731     12.000000
 -0.116592  0.075880  0.048974     12.000000
 -0.093274  0.074712  0.047861     12.000000
 -0.069955  0.073545  0.046748     12.000000
 -0.046637  0.072378  0.045635     12.000000
  0.093274  0.088721  0.037844      6.000000
  0.116592  0.087554  0.036731     12.000000
  0.139911  0.086386  0.035618     12.000000
 -0.116592  0.099227  0.047861     12.000000
 -0.093274  0.098060  0.046748     12.000000
 -0.069955  0.096893  0.045635     12.000000
 -0.046637  0.095725  0.044522     12.000000
  0.116592  0.110901  0.035618      6.000000
  0.139911  0.109734  0.034505     12.000000
 -0.116592  0.122575  0.046748     12.000000
 -0.093274  0.121408  0.045635     12.000000
 -0.069955  0.120240  0.044522     12.000000
 -0.046637  0.119073  0.043409     12.000000
  0.139911  0.133082  0.033392      6.000000
 -0.116592  0.145923  0.045635     12.000000
 -0.093274  0.144755  0.044522     12.000000
 -0.069955  0.143588  0.043409     12.000000
 -0.046637  0.142421  0.042296      6.000000
 -0.116592 -0.110901  0.057879      6.000000
 -0.093274 -0.112069  0.056766     12.000000
 -0.069955 -0.113236  0.055653     12.000000
 -0.093274 -0.088721  0.055653      6.000000
 -0.069955 -0.089888  0.054540     12.000000
 -0.069955 -0.066541  0.053427      6.000000
  0.069955  0.066541  0.063444      2.000000
  0.093274  0.065373  0.062331      6.000000
  0.116592  0.064206  0.061218      6.000000
  0.139911  0.063039  0.060105      6.000000
 -0.116592  0.075880  0.072349      6.000000
 -0.093274  0.074712  0.071236      6.000000
 -0.069955  0.073545  0.070122      6.000000
  0.093274  0.088721  0.061218      6.000000
  0.116592  0.087554  0.060105     12.000000
  0.139911  0.086386  0.058992     12.000000
 -0.116592  0.099227  0.071236     12.000000
 -0.093274  0.098060  0.070122     12.000000
 -0.069955  0.096893  0.069009     12.000000
  0.116592  0.110901  0.058992      6.000000
  0.139911  0.109734  0.057879     12.000000
 -0.116592  0.122575  0.070122     12.000000
 -0.093274  0.121408  0.069009     12.000000
 -0.069955  0.120240  0.067896     12.000000
  0.139911  0.133082  0.056766      6.000000
 -0.116592  0.145923  0.069009     12.000000
 -0.093274  0.144755  0.067896     12.000000
 -0.069955  0.143588  0.066783      6.000000
 -0.116592 -0.110901  0.081253      6.000000
 -0.093274 -0.112069  0.080140     12.000000
 -0.093274 -0.088721  0.079027      6.000000
  0.093274  0.088721  0.084592      2.000000
  0.116592  0.087554  0.083479      6.000000
  0.139911  0.086386  0.082366      6.000000
 -0.116592  0.099227  0.094610      6.000000
 -0.093274  0.098060  0.093497      6.000000
  0.116592  0.110901  0.082366      6.000000
  0.139911  0.109734  0.081253     12.000000
 -0.116592  0.122575  0.093497     12.000000
 -0.093274  0.121408  0.092384     12.000000
  0.139911  0.133082  0.080140      6.000000
 -0.116592  0.145923  0.092384     12.000000
 -0.093274  0.144755  0.091270      6.000000
 -0.116592 -0.110901  0.104627      6.000000
  0.116592  0.110901  0.105740      2.000000
  0.139911  0.109734  0.104627      6.000000
 -0.116592  0.122575  0.116871      6.000000
  0.139911  0.133082  0.103514      6.000000
 -0.116592  0.145923  0.115758      6.000000
  0.139911  0.133082  0.126888      1.000000
 
 TETIRR: Found    864 inequivalent tetrahedra from    10368


--------------------------------------------------------------------------------------------------------




 Dimension of arrays:
   k-points           NKPTS =    189   k-points in BZ     NKDIM =    189   number of bands    NBANDS=     24
   number of dos      NEDOS =    301   number of ions     NIONS =      8
   non local maximal  LDIM  =      4   non local SUM 2l+1 LMDIM =      8
   total plane-waves  NPLWV =  13824
   max r-space proj   IRMAX =      1   max aug-charges    IRDMAX=   3786
   dimension x,y,z NGX =    24 NGY =   24 NGZ =   24
   dimension x,y,z NGXF=    48 NGYF=   48 NGZF=   48
   support grid    NGXF=    48 NGYF=   48 NGZF=   48
   ions per type =               8
   NGX,Y,Z   is equivalent  to a cutoff of  11.16, 11.16, 11.16 a.u.
   NGXF,Y,Z  is equivalent  to a cutoff of  22.33, 22.33, 22.33 a.u.

 SYSTEM =  unknown system                          
 POSCAR =  C8                                      

 Startparameter for this run:
   NWRITE =      2    write-flag & timer
   PREC   = accura    normal or accurate (medium, high low for compatibility)
   ISTART =      0    job   : 0-new  1-cont  2-samecut
   ICHARG =      2    charge: 1-file 2-atom 10-const
   ISPIN  =      1    spin polarized calculation?
   LNONCOLLINEAR =      F non collinear calculations
   LSORBIT =      F    spin-orbit coupling
   INIWAV =      1    electr: 0-lowe 1-rand  2-diag
   LASPH  =      F    aspherical Exc in radial PAW
   METAGGA=      F    non-selfconsistent MetaGGA calc.

 Electronic Relaxation 1
   ENCUT  =  400.0 eV  29.40 Ry    5.42 a.u.   5.83  5.83  5.83*2*pi/ulx,y,z
   ENINI  =  400.0     initial cutoff
   ENAUG  =  644.9 eV  augmentation charge cutoff
   NELM   =     60;   NELMIN=  2; NELMDL= -5     # of ELM steps 
   EDIFF  = 0.1E-05   stopping-criterion for ELM
   LREAL  =      F    real-space projection
   NLSPLINE    = F    spline interpolate recip. space projectors
   LCOMPAT=      F    compatible to vasp.4.4
   GGA_COMPAT  = T    GGA compatible to vasp.4.4-vasp.4.6
   LMAXPAW     = -100 max onsite density
   LMAXMIX     =    2 max onsite mixed and CHGCAR
   VOSKOWN=      0    Vosko Wilk Nusair interpolation
   ROPT   =    0.00000
 Ionic relaxation
   EDIFFG = 0.1E-04   stopping-criterion for IOM
   NSW    =      0    number of steps for IOM
   NBLOCK =      1;   KBLOCK =      1    inner block; outer block 
   IBRION =     -1    ionic relax: 0-MD 1-quasi-New 2-CG
   NFREE  =      0    steps in history (QN), initial steepest desc. (CG)
   ISIF   =      2    stress and relaxation
   IWAVPR =     10    prediction:  0-non 1-charg 2-wave 3-comb
   ISYM   =      2    0-nonsym 1-usesym 2-fastsym
   LCORR  =      T    Harris-Foulkes like correction to forces

   POTIM  = 0.0200    time-step for ionic-motion
   TEIN   =    0.0    initial temperature
   TEBEG  =    0.0;   TEEND  =   0.0 temperature during run
   SMASS  =  -3.00    Nose mass-parameter (am)
   estimated Nose-frequenzy (Omega)   =  0.10E-29 period in steps =****** mass=  -0.292E-27a.u.
   SCALEE = 1.0000    scale energy and forces
   NPACO  =    256;   APACO  = 16.0  distance and # of slots for P.C.
   PSTRESS=    0.0 pullay stress

  Mass of Ions in am
   POMASS =  12.01
  Ionic Valenz
   ZVAL   =   4.00
  Atomic Wigner-Seitz radii
   RWIGS  =  -1.00
  virtual crystal weights 
   VCA    =   1.00
   NELECT =      32.0000    total number of electrons
   NUPDOWN=      -1.0000    fix difference up-down

 DOS related values:
   EMIN   =  10.00;   EMAX   =-10.00  energy-range for DOS
   EFERMI =   0.00
   ISMEAR =    -5;   SIGMA  =   0.06  broadening in eV -4-tet -1-fermi 0-gaus

 Electronic relaxation 2 (details)
   IALGO  =     38    algorithm
   LDIAG  =      T    sub-space diagonalisation (order eigenvalues)
   LSUBROT=      F    optimize rotation matrix (better conditioning)
   TURBO    =      0    0=normal 1=particle mesh
   IRESTART =      0    0=no restart 2=restart with 2 vectors
   NREBOOT  =      0    no. of reboots
   NMIN     =      0    reboot dimension
   EREF     =   0.00    reference energy to select bands
   IMIX   =      4    mixing-type and parameters
     AMIX     =   0.40;   BMIX     =  1.00
     AMIX_MAG =   1.60;   BMIX_MAG =  1.00
     AMIN     =   0.10
     WC   =   100.;   INIMIX=   1;  MIXPRE=   1;  MAXMIX= -45

 Intra band minimization:
   WEIMIN = 0.0000     energy-eigenvalue tresh-hold
   EBREAK =  0.10E-07  absolut break condition
   DEPER  =   0.30     relativ break condition  

   TIME   =   0.40     timestep for ELM

  volume/ion in A,a.u.               =       5.68        38.36
  Fermi-wavevector in a.u.,A,eV,Ry     =   1.456126  2.751679 28.848461  2.120302
  Thomas-Fermi vector in A             =   2.573080
 
 Write flags
   LWAVE        =      F    write WAVECAR
   LDOWNSAMPLE  =      F    k-point downsampling of WAVECAR
   LCHARG       =      F    write CHGCAR
   LVTOT        =      F    write LOCPOT, total local potential
   LVHAR        =      F    write LOCPOT, Hartree potential only
   LELF         =      F    write electronic localiz. function (ELF)
   LORBIT       =      0    0 simple, 1 ext, 2 COOP (PROOUT), +10 PAW based schemes


 Dipole corrections
   LMONO  =      F    monopole corrections only (constant potential shift)
   LDIPOL =      F    correct potential (dipole corrections)
   IDIPOL =      0    1-x, 2-y, 3-z, 4-all directions 
   EPSILON=  1.0000000 bulk dielectric constant

 Exchange correlation treatment:
   GGA     =    --    GGA type
   LEXCH   =     8    internal setting for exchange type
   VOSKOWN=      0    Vosko Wilk Nusair interpolation
   LHFCALC =     F    Hartree Fock is set to
   LHFONE  =     F    Hartree Fock one center treatment
   AEXX    =    0.0000 exact exchange contribution

 Linear response parameters
   LEPSILON=     F    determine dielectric tensor
   LRPA    =     F    only Hartree local field effects (RPA)
   LNABLA  =     F    use nabla operator in PAW spheres
   LVEL    =     F    velocity operator in full k-point grid
   LINTERFAST=   F  fast interpolation
   KINTER  =     0    interpolate to denser k-point grid
   CSHIFT  =0.1000    complex shift for real part using Kramers Kronig
   OMEGAMAX=  -1.0    maximum frequency
   DEG_THRESHOLD= 0.2000000E-02 threshold for treating states as degnerate
   RTIME   =   -0.100 relaxation time in fs
  (WPLASMAI=    0.000 imaginary part of plasma frequency in eV, 0.658/RTIME)
   DFIELD  = 0.0000000 0.0000000 0.0000000 field for delta impulse in time
 
 Orbital magnetization related:
   ORBITALMAG=     F  switch on orbital magnetization
   LCHIMAG   =     F  perturbation theory with respect to B field
   DQ        =  0.001000  dq finite difference perturbation B field
   LLRAUG    =     F  two centre corrections for induced B field



--------------------------------------------------------------------------------------------------------


 Static calculation
 charge density and potential will be updated during run
 non-spin polarized calculation
 Variant of blocked Davidson
 Davidson routine will perform the subspace rotation
 perform sub-space diagonalisation
    after iterative eigenvector-optimisation
 modified Broyden-mixing scheme, WC =      100.0
 initial mixing is a Kerker type mixing with AMIX =  0.4000 and BMIX =      1.0000
 Hartree-type preconditioning will be used
 using additional bands            8
 reciprocal scheme for non local part
 calculate Harris-corrections to forces 
   (improved forces if not selfconsistent)
 use gradient corrections 
 use of overlap-Matrix (Vanderbilt PP)
 Fermi weights with tetrahedron method with Bloechl corrections


--------------------------------------------------------------------------------------------------------


  energy-cutoff  :      400.00
  volume of cell :       45.48
      direct lattice vectors                 reciprocal lattice vectors
     3.573710000  0.000000000  0.000000000     0.279821250 -0.014008545 -0.013356623
     0.178685000  3.569240000  0.000000000     0.000000000  0.280171689 -0.013356676
     0.178685000  0.169964000  3.565191000     0.000000000  0.000000000  0.280489881

  length of vectors
     3.573710000  3.573709908  3.573709971     0.280489876  0.280489886  0.280489881


 
 k-points in units of 2pi/SCALE and weight: kpt_density=1000                        
   0.00000000  0.00000000  0.00000000       0.001
   0.02331844 -0.00116738 -0.00111305       0.003
   0.04663688 -0.00233476 -0.00222610       0.003
   0.06995531 -0.00350214 -0.00333916       0.003
   0.09327375 -0.00466952 -0.00445221       0.003
   0.11659219 -0.00583689 -0.00556526       0.003
   0.13991063 -0.00700427 -0.00667831       0.002
   0.02331844  0.02218026 -0.00222611       0.003
   0.04663688  0.02101288 -0.00333916       0.007
   0.06995531  0.01984550 -0.00445221       0.007
   0.09327375  0.01867813 -0.00556526       0.007
   0.11659219  0.01751075 -0.00667832       0.007
   0.13991063  0.01634337 -0.00779137       0.007
  -0.11659219  0.02918453  0.00445220       0.007
  -0.09327375  0.02801716  0.00333915       0.007
  -0.06995531  0.02684978  0.00222610       0.007
  -0.04663688  0.02568240  0.00111305       0.007
  -0.02331844  0.02451502 -0.00000000       0.003
   0.04663688  0.04436052 -0.00445222       0.003
   0.06995531  0.04319315 -0.00556527       0.007
   0.09327375  0.04202577 -0.00667832       0.007
   0.11659219  0.04085839 -0.00779137       0.007
   0.13991063  0.03969101 -0.00890442       0.007
  -0.11659219  0.05253218  0.00333915       0.007
  -0.09327375  0.05136480  0.00222609       0.007
  -0.06995531  0.05019742  0.00111304       0.007
  -0.04663688  0.04903004 -0.00000001       0.003
   0.06995531  0.06654079 -0.00667832       0.003
   0.09327375  0.06537341 -0.00779138       0.007
   0.11659219  0.06420603 -0.00890443       0.007
   0.13991063  0.06303865 -0.01001748       0.007
  -0.11659219  0.07587982  0.00222609       0.007
  -0.09327375  0.07471244  0.00111304       0.007
  -0.06995531  0.07354506 -0.00000001       0.003
   0.09327375  0.08872105 -0.00890443       0.003
   0.11659219  0.08755367 -0.01001748       0.007
   0.13991063  0.08638629 -0.01113054       0.007
  -0.11659219  0.09922746  0.00111303       0.007
  -0.09327375  0.09806008 -0.00000002       0.003
   0.11659219  0.11090131 -0.01113054       0.003
   0.13991063  0.10973393 -0.01224359       0.007
  -0.11659219  0.12257510 -0.00000002       0.003
   0.13991063  0.13308157 -0.01335665       0.002
   0.02331844  0.02218026  0.02114805       0.001
   0.04663688  0.02101288  0.02003500       0.003
   0.06995531  0.01984550  0.01892194       0.003
   0.09327375  0.01867813  0.01780889       0.003
   0.11659219  0.01751075  0.01669584       0.003
   0.13991063  0.01634337  0.01558279       0.003
  -0.11659219  0.02918453  0.02782636       0.003
  -0.09327375  0.02801716  0.02671331       0.003
  -0.06995531  0.02684978  0.02560026       0.003
  -0.04663688  0.02568240  0.02448720       0.003
  -0.02331844  0.02451502  0.02337415       0.003
   0.04663688  0.04436052  0.01892194       0.003
   0.06995531  0.04319315  0.01780889       0.007
   0.09327375  0.04202577  0.01669584       0.007
   0.11659219  0.04085839  0.01558278       0.007
   0.13991063  0.03969101  0.01446973       0.007
  -0.11659219  0.05253218  0.02671330       0.007
  -0.09327375  0.05136480  0.02560025       0.007
  -0.06995531  0.05019742  0.02448720       0.007
  -0.04663688  0.04903004  0.02337415       0.007
  -0.02331844  0.04786266  0.02226110       0.007
   0.06995531  0.06654079  0.01669583       0.003
   0.09327375  0.06537341  0.01558278       0.007
   0.11659219  0.06420603  0.01446973       0.007
   0.13991063  0.06303865  0.01335668       0.007
  -0.11659219  0.07587982  0.02560025       0.007
  -0.09327375  0.07471244  0.02448720       0.007
  -0.06995531  0.07354506  0.02337414       0.007
  -0.04663688  0.07237768  0.02226109       0.007
  -0.02331844  0.07121030  0.02114804       0.007
   0.09327375  0.08872105  0.01446972       0.003
   0.11659219  0.08755367  0.01335667       0.007
   0.13991063  0.08638629  0.01224362       0.007
  -0.11659219  0.09922746  0.02448719       0.007
  -0.09327375  0.09806008  0.02337414       0.007
  -0.06995531  0.09689270  0.02226109       0.007
  -0.04663688  0.09572532  0.02114804       0.007
  -0.02331844  0.09455794  0.02003498       0.007
   0.11659219  0.11090131  0.01224362       0.003
   0.13991063  0.10973393  0.01113056       0.007
  -0.11659219  0.12257510  0.02337413       0.007
  -0.09327375  0.12140772  0.02226108       0.007
  -0.06995531  0.12024034  0.02114803       0.007
  -0.04663688  0.11907296  0.02003498       0.007
  -0.02331844  0.11790558  0.01892193       0.007
   0.13991063  0.13308157  0.01001751       0.003
  -0.11659219  0.14592274  0.02226108       0.007
  -0.09327375  0.14475536  0.02114803       0.007
  -0.06995531  0.14358798  0.02003497       0.007
  -0.04663688  0.14242060  0.01892192       0.007
  -0.02331844  0.14125322  0.01780887       0.003
  -0.11659219 -0.11090131  0.03450470       0.003
  -0.09327375 -0.11206869  0.03339165       0.007
  -0.06995531 -0.11323607  0.03227859       0.007
  -0.04663688 -0.11440345  0.03116554       0.007
  -0.09327375 -0.08872105  0.03227859       0.003
  -0.06995531 -0.08988843  0.03116554       0.007
  -0.04663688 -0.09105581  0.03005249       0.007
  -0.06995531 -0.06654079  0.03005248       0.003
  -0.04663688 -0.06770816  0.02893943       0.007
  -0.04663688 -0.04436052  0.02782637       0.003
   0.04663688  0.04436052  0.04229610       0.001
   0.06995531  0.04319315  0.04118305       0.003
   0.09327375  0.04202577  0.04006999       0.003
   0.11659219  0.04085839  0.03895694       0.003
   0.13991063  0.03969101  0.03784389       0.003
  -0.11659219  0.05253218  0.05008746       0.003
  -0.09327375  0.05136480  0.04897441       0.003
  -0.06995531  0.05019742  0.04786136       0.003
  -0.04663688  0.04903004  0.04674830       0.003
   0.06995531  0.06654079  0.04006999       0.003
   0.09327375  0.06537341  0.03895694       0.007
   0.11659219  0.06420603  0.03784389       0.007
   0.13991063  0.06303865  0.03673083       0.007
  -0.11659219  0.07587982  0.04897440       0.007
  -0.09327375  0.07471244  0.04786135       0.007
  -0.06995531  0.07354506  0.04674830       0.007
  -0.04663688  0.07237768  0.04563525       0.007
   0.09327375  0.08872105  0.03784388       0.003
   0.11659219  0.08755367  0.03673083       0.007
   0.13991063  0.08638629  0.03561778       0.007
  -0.11659219  0.09922746  0.04786135       0.007
  -0.09327375  0.09806008  0.04674830       0.007
  -0.06995531  0.09689270  0.04563524       0.007
  -0.04663688  0.09572532  0.04452219       0.007
   0.11659219  0.11090131  0.03561777       0.003
   0.13991063  0.10973393  0.03450472       0.007
  -0.11659219  0.12257510  0.04674829       0.007
  -0.09327375  0.12140772  0.04563524       0.007
  -0.06995531  0.12024034  0.04452219       0.007
  -0.04663688  0.11907296  0.04340914       0.007
   0.13991063  0.13308157  0.03339166       0.003
  -0.11659219  0.14592274  0.04563524       0.007
  -0.09327375  0.14475536  0.04452218       0.007
  -0.06995531  0.14358798  0.04340913       0.007
  -0.04663688  0.14242060  0.04229608       0.003
  -0.11659219 -0.11090131  0.05787885       0.003
  -0.09327375 -0.11206869  0.05676580       0.007
  -0.06995531 -0.11323607  0.05565275       0.007
  -0.09327375 -0.08872105  0.05565275       0.003
  -0.06995531 -0.08988843  0.05453969       0.007
  -0.06995531 -0.06654079  0.05342664       0.003
   0.06995531  0.06654079  0.06344415       0.001
   0.09327375  0.06537341  0.06233109       0.003
   0.11659219  0.06420603  0.06121804       0.003
   0.13991063  0.06303865  0.06010499       0.003
  -0.11659219  0.07587982  0.07234856       0.003
  -0.09327375  0.07471244  0.07123551       0.003
  -0.06995531  0.07354506  0.07012246       0.003
   0.09327375  0.08872105  0.06121804       0.003
   0.11659219  0.08755367  0.06010499       0.007
   0.13991063  0.08638629  0.05899193       0.007
  -0.11659219  0.09922746  0.07123550       0.007
  -0.09327375  0.09806008  0.07012245       0.007
  -0.06995531  0.09689270  0.06900940       0.007
   0.11659219  0.11090131  0.05899193       0.003
   0.13991063  0.10973393  0.05787888       0.007
  -0.11659219  0.12257510  0.07012245       0.007
  -0.09327375  0.12140772  0.06900940       0.007
  -0.06995531  0.12024034  0.06789634       0.007
   0.13991063  0.13308157  0.05676582       0.003
  -0.11659219  0.14592274  0.06900939       0.007
  -0.09327375  0.14475536  0.06789634       0.007
  -0.06995531  0.14358798  0.06678329       0.003
  -0.11659219 -0.11090131  0.08125301       0.003
  -0.09327375 -0.11206869  0.08013996       0.007
  -0.09327375 -0.08872105  0.07902690       0.003
   0.09327375  0.08872105  0.08459219       0.001
   0.11659219  0.08755367  0.08347914       0.003
   0.13991063  0.08638629  0.08236609       0.003
  -0.11659219  0.09922746  0.09460966       0.003
  -0.09327375  0.09806008  0.09349661       0.003
   0.11659219  0.11090131  0.08236609       0.003
   0.13991063  0.10973393  0.08125303       0.007
  -0.11659219  0.12257510  0.09349660       0.007
  -0.09327375  0.12140772  0.09238355       0.007
   0.13991063  0.13308157  0.08013998       0.003
  -0.11659219  0.14592274  0.09238355       0.007
  -0.09327375  0.14475536  0.09127050       0.003
  -0.11659219 -0.11090131  0.10462717       0.003
   0.11659219  0.11090131  0.10574024       0.001
   0.13991063  0.10973393  0.10462719       0.003
  -0.11659219  0.12257510  0.11687076       0.003
   0.13991063  0.13308157  0.10351413       0.003
  -0.11659219  0.14592274  0.11575771       0.003
   0.13991063  0.13308157  0.12688829       0.001
 
 k-points in reciprocal lattice and weights: kpt_density=1000                        
   0.00000000  0.00000000  0.00000000       0.001
   0.08333333  0.00000000  0.00000000       0.003
   0.16666667  0.00000000 -0.00000000       0.003
   0.25000000  0.00000000 -0.00000000       0.003
   0.33333333  0.00000000 -0.00000000       0.003
   0.41666667  0.00000000 -0.00000000       0.003
   0.50000000  0.00000000 -0.00000000       0.002
   0.08333333  0.08333333 -0.00000000       0.003
   0.16666667  0.08333333 -0.00000000       0.007
   0.25000000  0.08333333  0.00000000       0.007
   0.33333333  0.08333333 -0.00000000       0.007
   0.41666667  0.08333333 -0.00000000       0.007
   0.50000000  0.08333333 -0.00000000       0.007
  -0.41666667  0.08333333 -0.00000000       0.007
  -0.33333333  0.08333333  0.00000000       0.007
  -0.25000000  0.08333333  0.00000000       0.007
  -0.16666667  0.08333333  0.00000000       0.007
  -0.08333333  0.08333333  0.00000000       0.003
   0.16666667  0.16666667  0.00000000       0.003
   0.25000000  0.16666667  0.00000000       0.007
   0.33333333  0.16666667  0.00000000       0.007
   0.41666667  0.16666667  0.00000000       0.007
   0.50000000  0.16666667 -0.00000000       0.007
  -0.41666667  0.16666667 -0.00000000       0.007
  -0.33333333  0.16666667  0.00000000       0.007
  -0.25000000  0.16666667  0.00000000       0.007
  -0.16666667  0.16666667  0.00000000       0.003
   0.25000000  0.25000000 -0.00000000       0.003
   0.33333333  0.25000000 -0.00000000       0.007
   0.41666667  0.25000000 -0.00000000       0.007
   0.50000000  0.25000000  0.00000000       0.007
  -0.41666667  0.25000000  0.00000000       0.007
  -0.33333333  0.25000000  0.00000000       0.007
  -0.25000000  0.25000000  0.00000000       0.003
   0.33333333  0.33333333 -0.00000000       0.003
   0.41666667  0.33333333 -0.00000000       0.007
   0.50000000  0.33333333  0.00000000       0.007
  -0.41666667  0.33333333  0.00000000       0.007
  -0.33333333  0.33333333 -0.00000000       0.003
   0.41666667  0.41666667  0.00000000       0.003
   0.50000000  0.41666667 -0.00000000       0.007
  -0.41666667  0.41666667 -0.00000000       0.003
   0.50000000  0.50000000 -0.00000000       0.002
   0.08333333  0.08333333  0.08333333       0.001
   0.16666667  0.08333333  0.08333333       0.003
   0.25000000  0.08333333  0.08333333       0.003
   0.33333333  0.08333333  0.08333333       0.003
   0.41666667  0.08333333  0.08333333       0.003
   0.50000000  0.08333333  0.08333333       0.003
  -0.41666667  0.08333333  0.08333333       0.003
  -0.33333333  0.08333333  0.08333333       0.003
  -0.25000000  0.08333333  0.08333333       0.003
  -0.16666667  0.08333333  0.08333333       0.003
  -0.08333333  0.08333333  0.08333333       0.003
   0.16666667  0.16666667  0.08333333       0.003
   0.25000000  0.16666667  0.08333333       0.007
   0.33333333  0.16666667  0.08333333       0.007
   0.41666667  0.16666667  0.08333333       0.007
   0.50000000  0.16666667  0.08333333       0.007
  -0.41666667  0.16666667  0.08333333       0.007
  -0.33333333  0.16666667  0.08333333       0.007
  -0.25000000  0.16666667  0.08333333       0.007
  -0.16666667  0.16666667  0.08333333       0.007
  -0.08333333  0.16666667  0.08333333       0.007
   0.25000000  0.25000000  0.08333333       0.003
   0.33333333  0.25000000  0.08333333       0.007
   0.41666667  0.25000000  0.08333333       0.007
   0.50000000  0.25000000  0.08333333       0.007
  -0.41666667  0.25000000  0.08333333       0.007
  -0.33333333  0.25000000  0.08333333       0.007
  -0.25000000  0.25000000  0.08333333       0.007
  -0.16666667  0.25000000  0.08333333       0.007
  -0.08333333  0.25000000  0.08333333       0.007
   0.33333333  0.33333333  0.08333333       0.003
   0.41666667  0.33333333  0.08333333       0.007
   0.50000000  0.33333333  0.08333333       0.007
  -0.41666667  0.33333333  0.08333333       0.007
  -0.33333333  0.33333333  0.08333333       0.007
  -0.25000000  0.33333333  0.08333333       0.007
  -0.16666667  0.33333333  0.08333333       0.007
  -0.08333333  0.33333333  0.08333333       0.007
   0.41666667  0.41666667  0.08333333       0.003
   0.50000000  0.41666667  0.08333333       0.007
  -0.41666667  0.41666667  0.08333333       0.007
  -0.33333333  0.41666667  0.08333333       0.007
  -0.25000000  0.41666667  0.08333333       0.007
  -0.16666667  0.41666667  0.08333333       0.007
  -0.08333333  0.41666667  0.08333333       0.007
   0.50000000  0.50000000  0.08333333       0.003
  -0.41666667  0.50000000  0.08333333       0.007
  -0.33333333  0.50000000  0.08333333       0.007
  -0.25000000  0.50000000  0.08333333       0.007
  -0.16666667  0.50000000  0.08333333       0.007
  -0.08333333  0.50000000  0.08333333       0.003
  -0.41666667 -0.41666667  0.08333333       0.003
  -0.33333333 -0.41666667  0.08333333       0.007
  -0.25000000 -0.41666667  0.08333333       0.007
  -0.16666667 -0.41666667  0.08333333       0.007
  -0.33333333 -0.33333333  0.08333333       0.003
  -0.25000000 -0.33333333  0.08333333       0.007
  -0.16666667 -0.33333333  0.08333333       0.007
  -0.25000000 -0.25000000  0.08333333       0.003
  -0.16666667 -0.25000000  0.08333333       0.007
  -0.16666667 -0.16666667  0.08333333       0.003
   0.16666667  0.16666667  0.16666667       0.001
   0.25000000  0.16666667  0.16666667       0.003
   0.33333333  0.16666667  0.16666667       0.003
   0.41666667  0.16666667  0.16666667       0.003
   0.50000000  0.16666667  0.16666667       0.003
  -0.41666667  0.16666667  0.16666667       0.003
  -0.33333333  0.16666667  0.16666667       0.003
  -0.25000000  0.16666667  0.16666667       0.003
  -0.16666667  0.16666667  0.16666667       0.003
   0.25000000  0.25000000  0.16666667       0.003
   0.33333333  0.25000000  0.16666667       0.007
   0.41666667  0.25000000  0.16666667       0.007
   0.50000000  0.25000000  0.16666667       0.007
  -0.41666667  0.25000000  0.16666667       0.007
  -0.33333333  0.25000000  0.16666667       0.007
  -0.25000000  0.25000000  0.16666667       0.007
  -0.16666667  0.25000000  0.16666667       0.007
   0.33333333  0.33333333  0.16666667       0.003
   0.41666667  0.33333333  0.16666667       0.007
   0.50000000  0.33333333  0.16666667       0.007
  -0.41666667  0.33333333  0.16666667       0.007
  -0.33333333  0.33333333  0.16666667       0.007
  -0.25000000  0.33333333  0.16666667       0.007
  -0.16666667  0.33333333  0.16666667       0.007
   0.41666667  0.41666667  0.16666667       0.003
   0.50000000  0.41666667  0.16666667       0.007
  -0.41666667  0.41666667  0.16666667       0.007
  -0.33333333  0.41666667  0.16666667       0.007
  -0.25000000  0.41666667  0.16666667       0.007
  -0.16666667  0.41666667  0.16666667       0.007
   0.50000000  0.50000000  0.16666667       0.003
  -0.41666667  0.50000000  0.16666667       0.007
  -0.33333333  0.50000000  0.16666667       0.007
  -0.25000000  0.50000000  0.16666667       0.007
  -0.16666667  0.50000000  0.16666667       0.003
  -0.41666667 -0.41666667  0.16666667       0.003
  -0.33333333 -0.41666667  0.16666667       0.007
  -0.25000000 -0.41666667  0.16666667       0.007
  -0.33333333 -0.33333333  0.16666667       0.003
  -0.25000000 -0.33333333  0.16666667       0.007
  -0.25000000 -0.25000000  0.16666667       0.003
   0.25000000  0.25000000  0.25000000       0.001
   0.33333333  0.25000000  0.25000000       0.003
   0.41666667  0.25000000  0.25000000       0.003
   0.50000000  0.25000000  0.25000000       0.003
  -0.41666667  0.25000000  0.25000000       0.003
  -0.33333333  0.25000000  0.25000000       0.003
  -0.25000000  0.25000000  0.25000000       0.003
   0.33333333  0.33333333  0.25000000       0.003
   0.41666667  0.33333333  0.25000000       0.007
   0.50000000  0.33333333  0.25000000       0.007
  -0.41666667  0.33333333  0.25000000       0.007
  -0.33333333  0.33333333  0.25000000       0.007
  -0.25000000  0.33333333  0.25000000       0.007
   0.41666667  0.41666667  0.25000000       0.003
   0.50000000  0.41666667  0.25000000       0.007
  -0.41666667  0.41666667  0.25000000       0.007
  -0.33333333  0.41666667  0.25000000       0.007
  -0.25000000  0.41666667  0.25000000       0.007
   0.50000000  0.50000000  0.25000000       0.003
  -0.41666667  0.50000000  0.25000000       0.007
  -0.33333333  0.50000000  0.25000000       0.007
  -0.25000000  0.50000000  0.25000000       0.003
  -0.41666667 -0.41666667  0.25000000       0.003
  -0.33333333 -0.41666667  0.25000000       0.007
  -0.33333333 -0.33333333  0.25000000       0.003
   0.33333333  0.33333333  0.33333333       0.001
   0.41666667  0.33333333  0.33333333       0.003
   0.50000000  0.33333333  0.33333333       0.003
  -0.41666667  0.33333333  0.33333333       0.003
  -0.33333333  0.33333333  0.33333333       0.003
   0.41666667  0.41666667  0.33333333       0.003
   0.50000000  0.41666667  0.33333333       0.007
  -0.41666667  0.41666667  0.33333333       0.007
  -0.33333333  0.41666667  0.33333333       0.007
   0.50000000  0.50000000  0.33333333       0.003
  -0.41666667  0.50000000  0.33333333       0.007
  -0.33333333  0.50000000  0.33333333       0.003
  -0.41666667 -0.41666667  0.33333333       0.003
   0.41666667  0.41666667  0.41666667       0.001
   0.50000000  0.41666667  0.41666667       0.003
  -0.41666667  0.41666667  0.41666667       0.003
   0.50000000  0.50000000  0.41666667       0.003
  -0.41666667  0.50000000  0.41666667       0.003
   0.50000000  0.50000000  0.50000000       0.001
 
 position of ions in fractional coordinates (direct lattice) 
   0.25000000  0.75000000  0.25000000
   0.00000000  0.00000000  0.50000000
   0.25000000  0.25000000  0.75000000
   0.00000000  0.50000000  0.00000000
   0.75000000  0.75000000  0.75000000
   0.50000000  0.00000000  0.00000000
   0.75000000  0.25000000  0.25000000
   0.50000000  0.50000000  0.50000000
 
 position of ions in cartesian coordinates  (Angst):
   1.07211250  2.71942100  0.89129775
   0.08934250  0.08498200  1.78259550
   1.07211250  1.01978300  2.67389325
   0.08934250  1.78462000  0.00000000
   2.94831000  2.80440300  2.67389325
   1.78685500  0.00000000  0.00000000
   2.76962500  0.93480100  0.89129775
   1.96554000  1.86960200  1.78259550
 


--------------------------------------------------------------------------------------------------------


 k-point  1 :   0.0000 0.0000 0.0000  plane waves:     817
 k-point  2 :   0.0833 0.0000 0.0000  plane waves:     816
 k-point  3 :   0.1667 0.0000-0.0000  plane waves:     820
 k-point  4 :   0.2500 0.0000-0.0000  plane waves:     825
 k-point  5 :   0.3333 0.0000-0.0000  plane waves:     833
 k-point  6 :   0.4167 0.0000-0.0000  plane waves:     826
 k-point  7 :   0.5000 0.0000-0.0000  plane waves:     842
 k-point  8 :   0.0833 0.0833-0.0000  plane waves:     812
 k-point  9 :   0.1667 0.0833-0.0000  plane waves:     814
 k-point 10 :   0.2500 0.0833 0.0000  plane waves:     824
 k-point 11 :   0.3333 0.0833-0.0000  plane waves:     825
 k-point 12 :   0.4167 0.0833-0.0000  plane waves:     826
 k-point 13 :   0.5000 0.0833-0.0000  plane waves:     829
 k-point 14 :  -0.4167 0.0833-0.0000  plane waves:     829
 k-point 15 :  -0.3333 0.0833 0.0000  plane waves:     833
 k-point 16 :  -0.2500 0.0833 0.0000  plane waves:     828
 k-point 17 :  -0.1667 0.0833 0.0000  plane waves:     827
 k-point 18 :  -0.0833 0.0833 0.0000  plane waves:     820
 k-point 19 :   0.1667 0.1667 0.0000  plane waves:     820
 k-point 20 :   0.2500 0.1667 0.0000  plane waves:     820
 k-point 21 :   0.3333 0.1667 0.0000  plane waves:     821
 k-point 22 :   0.4167 0.1667 0.0000  plane waves:     825
 k-point 23 :   0.5000 0.1667-0.0000  plane waves:     824
 k-point 24 :  -0.4167 0.1667-0.0000  plane waves:     826
 k-point 25 :  -0.3333 0.1667 0.0000  plane waves:     826
 k-point 26 :  -0.2500 0.1667 0.0000  plane waves:     828
 k-point 27 :  -0.1667 0.1667 0.0000  plane waves:     828
 k-point 28 :   0.2500 0.2500-0.0000  plane waves:     825
 k-point 29 :   0.3333 0.2500-0.0000  plane waves:     820
 k-point 30 :   0.4167 0.2500-0.0000  plane waves:     823
 k-point 31 :   0.5000 0.2500 0.0000  plane waves:     827
 k-point 32 :  -0.4167 0.2500 0.0000  plane waves:     827
 k-point 33 :  -0.3333 0.2500 0.0000  plane waves:     827
 k-point 34 :  -0.2500 0.2500 0.0000  plane waves:     826
 k-point 35 :   0.3333 0.3333-0.0000  plane waves:     820
 k-point 36 :   0.4167 0.3333-0.0000  plane waves:     822
 k-point 37 :   0.5000 0.3333 0.0000  plane waves:     826
 k-point 38 :  -0.4167 0.3333 0.0000  plane waves:     832
 k-point 39 :  -0.3333 0.3333-0.0000  plane waves:     838
 k-point 40 :   0.4167 0.4167 0.0000  plane waves:     821
 k-point 41 :   0.5000 0.4167-0.0000  plane waves:     827
 k-point 42 :  -0.4167 0.4167-0.0000  plane waves:     832
 k-point 43 :   0.5000 0.5000-0.0000  plane waves:     822
 k-point 44 :   0.0833 0.0833 0.0833  plane waves:     814
 k-point 45 :   0.1667 0.0833 0.0833  plane waves:     815
 k-point 46 :   0.2500 0.0833 0.0833  plane waves:     821
 k-point 47 :   0.3333 0.0833 0.0833  plane waves:     818
 k-point 48 :   0.4167 0.0833 0.0833  plane waves:     824
 k-point 49 :   0.5000 0.0833 0.0833  plane waves:     828
 k-point 50 :  -0.4167 0.0833 0.0833  plane waves:     829
 k-point 51 :  -0.3333 0.0833 0.0833  plane waves:     833
 k-point 52 :  -0.2500 0.0833 0.0833  plane waves:     832
 k-point 53 :  -0.1667 0.0833 0.0833  plane waves:     822
 k-point 54 :  -0.0833 0.0833 0.0833  plane waves:     820
 k-point 55 :   0.1667 0.1667 0.0833  plane waves:     809
 k-point 56 :   0.2500 0.1667 0.0833  plane waves:     817
 k-point 57 :   0.3333 0.1667 0.0833  plane waves:     817
 k-point 58 :   0.4167 0.1667 0.0833  plane waves:     823
 k-point 59 :   0.5000 0.1667 0.0833  plane waves:     825
 k-point 60 :  -0.4167 0.1667 0.0833  plane waves:     827
 k-point 61 :  -0.3333 0.1667 0.0833  plane waves:     826
 k-point 62 :  -0.2500 0.1667 0.0833  plane waves:     829
 k-point 63 :  -0.1667 0.1667 0.0833  plane waves:     826
 k-point 64 :  -0.0833 0.1667 0.0833  plane waves:     822
 k-point 65 :   0.2500 0.2500 0.0833  plane waves:     820
 k-point 66 :   0.3333 0.2500 0.0833  plane waves:     815
 k-point 67 :   0.4167 0.2500 0.0833  plane waves:     825
 k-point 68 :   0.5000 0.2500 0.0833  plane waves:     825
 k-point 69 :  -0.4167 0.2500 0.0833  plane waves:     826
 k-point 70 :  -0.3333 0.2500 0.0833  plane waves:     829
 k-point 71 :  -0.2500 0.2500 0.0833  plane waves:     828
 k-point 72 :  -0.1667 0.2500 0.0833  plane waves:     827
 k-point 73 :  -0.0833 0.2500 0.0833  plane waves:     828
 k-point 74 :   0.3333 0.3333 0.0833  plane waves:     821
 k-point 75 :   0.4167 0.3333 0.0833  plane waves:     823
 k-point 76 :   0.5000 0.3333 0.0833  plane waves:     825
 k-point 77 :  -0.4167 0.3333 0.0833  plane waves:     832
 k-point 78 :  -0.3333 0.3333 0.0833  plane waves:     828
 k-point 79 :  -0.2500 0.3333 0.0833  plane waves:     829
 k-point 80 :  -0.1667 0.3333 0.0833  plane waves:     828
 k-point 81 :  -0.0833 0.3333 0.0833  plane waves:     827
 k-point 82 :   0.4167 0.4167 0.0833  plane waves:     815
 k-point 83 :   0.5000 0.4167 0.0833  plane waves:     826
 k-point 84 :  -0.4167 0.4167 0.0833  plane waves:     831
 k-point 85 :  -0.3333 0.4167 0.0833  plane waves:     831
 k-point 86 :  -0.2500 0.4167 0.0833  plane waves:     827
 k-point 87 :  -0.1667 0.4167 0.0833  plane waves:     826
 k-point 88 :  -0.0833 0.4167 0.0833  plane waves:     826
 k-point 89 :   0.5000 0.5000 0.0833  plane waves:     830
 k-point 90 :  -0.4167 0.5000 0.0833  plane waves:     828
 k-point 91 :  -0.3333 0.5000 0.0833  plane waves:     832
 k-point 92 :  -0.2500 0.5000 0.0833  plane waves:     830
 k-point 93 :  -0.1667 0.5000 0.0833  plane waves:     825
 k-point 94 :  -0.0833 0.5000 0.0833  plane waves:     824
 k-point 95 :  -0.4167-0.4167 0.0833  plane waves:     820
 k-point 96 :  -0.3333-0.4167 0.0833  plane waves:     828
 k-point 97 :  -0.2500-0.4167 0.0833  plane waves:     828
 k-point 98 :  -0.1667-0.4167 0.0833  plane waves:     826
 k-point 99 :  -0.3333-0.3333 0.0833  plane waves:     822
 k-point ** :  -0.2500-0.3333 0.0833  plane waves:     823
 k-point ** :  -0.1667-0.3333 0.0833  plane waves:     826
 k-point ** :  -0.2500-0.2500 0.0833  plane waves:     820
 k-point ** :  -0.1667-0.2500 0.0833  plane waves:     824
 k-point ** :  -0.1667-0.1667 0.0833  plane waves:     824
 k-point ** :   0.1667 0.1667 0.1667  plane waves:     808
 k-point ** :   0.2500 0.1667 0.1667  plane waves:     811
 k-point ** :   0.3333 0.1667 0.1667  plane waves:     815
 k-point ** :   0.4167 0.1667 0.1667  plane waves:     818
 k-point ** :   0.5000 0.1667 0.1667  plane waves:     825
 k-point ** :  -0.4167 0.1667 0.1667  plane waves:     828
 k-point ** :  -0.3333 0.1667 0.1667  plane waves:     824
 k-point ** :  -0.2500 0.1667 0.1667  plane waves:     835
 k-point ** :  -0.1667 0.1667 0.1667  plane waves:     830
 k-point ** :   0.2500 0.2500 0.1667  plane waves:     811
 k-point ** :   0.3333 0.2500 0.1667  plane waves:     815
 k-point ** :   0.4167 0.2500 0.1667  plane waves:     826
 k-point ** :   0.5000 0.2500 0.1667  plane waves:     825
 k-point ** :  -0.4167 0.2500 0.1667  plane waves:     830
 k-point ** :  -0.3333 0.2500 0.1667  plane waves:     826
 k-point ** :  -0.2500 0.2500 0.1667  plane waves:     825
 k-point ** :  -0.1667 0.2500 0.1667  plane waves:     827
 k-point ** :   0.3333 0.3333 0.1667  plane waves:     819
 k-point ** :   0.4167 0.3333 0.1667  plane waves:     821
 k-point ** :   0.5000 0.3333 0.1667  plane waves:     825
 k-point ** :  -0.4167 0.3333 0.1667  plane waves:     833
 k-point ** :  -0.3333 0.3333 0.1667  plane waves:     832
 k-point ** :  -0.2500 0.3333 0.1667  plane waves:     825
 k-point ** :  -0.1667 0.3333 0.1667  plane waves:     826
 k-point ** :   0.4167 0.4167 0.1667  plane waves:     822
 k-point ** :   0.5000 0.4167 0.1667  plane waves:     824
 k-point ** :  -0.4167 0.4167 0.1667  plane waves:     830
 k-point ** :  -0.3333 0.4167 0.1667  plane waves:     825
 k-point ** :  -0.2500 0.4167 0.1667  plane waves:     826
 k-point ** :  -0.1667 0.4167 0.1667  plane waves:     823
 k-point ** :   0.5000 0.5000 0.1667  plane waves:     826
 k-point ** :  -0.4167 0.5000 0.1667  plane waves:     828
 k-point ** :  -0.3333 0.5000 0.1667  plane waves:     834
 k-point ** :  -0.2500 0.5000 0.1667  plane waves:     826
 k-point ** :  -0.1667 0.5000 0.1667  plane waves:     820
 k-point ** :  -0.4167-0.4167 0.1667  plane waves:     827
 k-point ** :  -0.3333-0.4167 0.1667  plane waves:     831
 k-point ** :  -0.2500-0.4167 0.1667  plane waves:     826
 k-point ** :  -0.3333-0.3333 0.1667  plane waves:     827
 k-point ** :  -0.2500-0.3333 0.1667  plane waves:     821
 k-point ** :  -0.2500-0.2500 0.1667  plane waves:     828
 k-point ** :   0.2500 0.2500 0.2500  plane waves:     817
 k-point ** :   0.3333 0.2500 0.2500  plane waves:     816
 k-point ** :   0.4167 0.2500 0.2500  plane waves:     830
 k-point ** :   0.5000 0.2500 0.2500  plane waves:     830
 k-point ** :  -0.4167 0.2500 0.2500  plane waves:     824
 k-point ** :  -0.3333 0.2500 0.2500  plane waves:     826
 k-point ** :  -0.2500 0.2500 0.2500  plane waves:     821
 k-point ** :   0.3333 0.3333 0.2500  plane waves:     821
 k-point ** :   0.4167 0.3333 0.2500  plane waves:     826
 k-point ** :   0.5000 0.3333 0.2500  plane waves:     826
 k-point ** :  -0.4167 0.3333 0.2500  plane waves:     830
 k-point ** :  -0.3333 0.3333 0.2500  plane waves:     825
 k-point ** :  -0.2500 0.3333 0.2500  plane waves:     824
 k-point ** :   0.4167 0.4167 0.2500  plane waves:     830
 k-point ** :   0.5000 0.4167 0.2500  plane waves:     829
 k-point ** :  -0.4167 0.4167 0.2500  plane waves:     834
 k-point ** :  -0.3333 0.4167 0.2500  plane waves:     831
 k-point ** :  -0.2500 0.4167 0.2500  plane waves:     824
 k-point ** :   0.5000 0.5000 0.2500  plane waves:     829
 k-point ** :  -0.4167 0.5000 0.2500  plane waves:     831
 k-point ** :  -0.3333 0.5000 0.2500  plane waves:     831
 k-point ** :  -0.2500 0.5000 0.2500  plane waves:     824
 k-point ** :  -0.4167-0.4167 0.2500  plane waves:     830
 k-point ** :  -0.3333-0.4167 0.2500  plane waves:     835
 k-point ** :  -0.3333-0.3333 0.2500  plane waves:     825
 k-point ** :   0.3333 0.3333 0.3333  plane waves:     820
 k-point ** :   0.4167 0.3333 0.3333  plane waves:     827
 k-point ** :   0.5000 0.3333 0.3333  plane waves:     828
 k-point ** :  -0.4167 0.3333 0.3333  plane waves:     825
 k-point ** :  -0.3333 0.3333 0.3333  plane waves:     827
 k-point ** :   0.4167 0.4167 0.3333  plane waves:     833
 k-point ** :   0.5000 0.4167 0.3333  plane waves:     836
 k-point ** :  -0.4167 0.4167 0.3333  plane waves:     828
 k-point ** :  -0.3333 0.4167 0.3333  plane waves:     833
 k-point ** :   0.5000 0.5000 0.3333  plane waves:     831
 k-point ** :  -0.4167 0.5000 0.3333  plane waves:     832
 k-point ** :  -0.3333 0.5000 0.3333  plane waves:     836
 k-point ** :  -0.4167-0.4167 0.3333  plane waves:     831
 k-point ** :   0.4167 0.4167 0.4167  plane waves:     826
 k-point ** :   0.5000 0.4167 0.4167  plane waves:     826
 k-point ** :  -0.4167 0.4167 0.4167  plane waves:     827
 k-point ** :   0.5000 0.5000 0.4167  plane waves:     828
 k-point ** :  -0.4167 0.5000 0.4167  plane waves:     836
 k-point ** :   0.5000 0.5000 0.5000  plane waves:     830

 maximum and minimum number of plane-waves per node :       221      190

 maximum number of plane-waves:       842
 maximum index in each direction: 
   IXMAX=    6   IYMAX=    6   IZMAX=    5
   IXMIN=   -6   IYMIN=   -6   IZMIN=   -6


 parallel 3D FFT for wavefunctions:
    minimum data exchange during FFTs selected (reduces bandwidth)
 parallel 3D FFT for charge:
    minimum data exchange during FFTs selected (reduces bandwidth)


 total amount of memory used by VASP MPI-rank0    37560. kBytes
=======================================================================

   base      :      30000. kBytes
   nonl-proj :       2591. kBytes
   fftplans  :        346. kBytes
   grid      :        481. kBytes
   one-center:          6. kBytes
   wavefun   :       4136. kBytes
 
     INWAV:  cpu time    0.0004: real time    0.0006
 Broyden mixing: mesh for mixing (old mesh)
   NGX = 11   NGY = 11   NGZ = 11
  (NGX  = 48   NGY  = 48   NGZ  = 48)
  gives a total of   1331 points

 initial charge density was supplied:
 charge density of overlapping atoms calculated
 number of electron      32.0000000 magnetization 
 keeping initial charge density in first step


--------------------------------------------------------------------------------------------------------


 Maximum index for augmentation-charges          281 (set IRDMAX)


--------------------------------------------------------------------------------------------------------


 First call to EWALD:  gamma=   0.497
 Maximum number of real-space cells 3x 3x 3
 Maximum number of reciprocal cells 3x 3x 3

    FEWALD:  cpu time    0.0052: real time    0.0052


--------------------------------------- Iteration      1(   1)  ---------------------------------------


    POTLOK:  cpu time    0.0297: real time    0.0344
    SETDIJ:  cpu time    0.0067: real time    0.0067
     EDDAV:  cpu time    9.5226: real time    9.5328
 BZINTS: Fermi energy: 18.604665; 32.000000 electrons
         Band energy: 122.054169;  BLOECHL correction: -0.248925
       DOS:  cpu time    0.1738: real time    0.1738
    --------------------------------------------
      LOOP:  cpu time    9.7330: real time    9.7478

 eigenvalue-minimisations  :  9080
 total energy-change (2. order) : 0.5840492E+02  (-0.1433444E+04)
 number of electron      32.0000000 magnetization 
 augmentation part       32.0000000 magnetization 

 Free energy of the ion-electron system (eV)
  ---------------------------------------------------
  alpha Z        PSCENC =       114.67110780
  Ewald energy   TEWEN  =     -1388.94166968
  -Hartree energ DENC   =       -71.55612462
  -exchange      EXHF   =         0.00000000
  -V(xc)+E(xc)   XCENC  =       114.36347929
  PAW double counting   =       302.65154477     -311.85538214
  entropy T*S    EENTRO =         0.00000000
  eigenvalues    EBANDS =       122.05416896
  atomic energy  EATOM  =      1177.01779097
  Solvation  Ediel_sol  =         0.00000000
  ---------------------------------------------------
  free energy    TOTEN  =        58.40491535 eV

  energy without entropy =       58.40491535  energy(sigma->0) =       58.40491535


--------------------------------------------------------------------------------------------------------




--------------------------------------- Iteration      1(   2)  ---------------------------------------


     EDDAV:  cpu time   11.8058: real time   11.8101
 BZINTS: Fermi energy:  8.917375; 32.000000 electrons
         Band energy:  -6.839230;  BLOECHL correction:  0.000000
       DOS:  cpu time    0.0472: real time    0.0472
    --------------------------------------------
      LOOP:  cpu time   11.8531: real time   11.8573

 eigenvalue-minimisations  : 12560
 total energy-change (2. order) :-0.1288934E+03  (-0.1217671E+03)
 number of electron      32.0000000 magnetization 
 augmentation part       32.0000000 magnetization 

 Free energy of the ion-electron system (eV)
  ---------------------------------------------------
  alpha Z        PSCENC =       114.67110780
  Ewald energy   TEWEN  =     -1388.94166968
  -Hartree energ DENC   =       -71.55612462
  -exchange      EXHF   =         0.00000000
  -V(xc)+E(xc)   XCENC  =       114.36347929
  PAW double counting   =       302.65154477     -311.85538214
  entropy T*S    EENTRO =         0.00000000
  eigenvalues    EBANDS =        -6.83922987
  atomic energy  EATOM  =      1177.01779097
  Solvation  Ediel_sol  =         0.00000000
  ---------------------------------------------------
  free energy    TOTEN  =       -70.48848348 eV

  energy without entropy =      -70.48848348  energy(sigma->0) =      -70.48848348


--------------------------------------------------------------------------------------------------------




--------------------------------------- Iteration      1(   3)  ---------------------------------------


     EDDAV:  cpu time   11.4841: real time   11.4857
 BZINTS: Fermi energy:  8.389854; 32.000000 electrons
         Band energy: -11.108010;  BLOECHL correction:  0.000000
       DOS:  cpu time    0.0375: real time    0.0375
    --------------------------------------------
      LOOP:  cpu time   11.5215: real time   11.5232

 eigenvalue-minimisations  : 11864
 total energy-change (2. order) :-0.4268780E+01  (-0.4246885E+01)
 number of electron      32.0000000 magnetization 
 augmentation part       32.0000000 magnetization 

 Free energy of the ion-electron system (eV)
  ---------------------------------------------------
  alpha Z        PSCENC =       114.67110780
  Ewald energy   TEWEN  =     -1388.94166968
  -Hartree energ DENC   =       -71.55612462
  -exchange      EXHF   =         0.00000000
  -V(xc)+E(xc)   XCENC  =       114.36347929
  PAW double counting   =       302.65154477     -311.85538214
  entropy T*S    EENTRO =         0.00000000
  eigenvalues    EBANDS =       -11.10800964
  atomic energy  EATOM  =      1177.01779097
  Solvation  Ediel_sol  =         0.00000000
  ---------------------------------------------------
  free energy    TOTEN  =       -74.75726325 eV

  energy without entropy =      -74.75726325  energy(sigma->0) =      -74.75726325


--------------------------------------------------------------------------------------------------------




--------------------------------------- Iteration      1(   4)  ---------------------------------------


     EDDAV:  cpu time   11.0351: real time   11.0361
 BZINTS: Fermi energy:  8.405654; 32.000000 electrons
         Band energy: -11.150539;  BLOECHL correction:  0.000000
       DOS:  cpu time    0.0421: real time    0.0421
    --------------------------------------------
      LOOP:  cpu time   11.0772: real time   11.0782

 eigenvalue-minimisations  : 11224
 total energy-change (2. order) :-0.4252932E-01  (-0.4249701E-01)
 number of electron      32.0000000 magnetization 
 augmentation part       32.0000000 magnetization 

 Free energy of the ion-electron system (eV)
  ---------------------------------------------------
  alpha Z        PSCENC =       114.67110780
  Ewald energy   TEWEN  =     -1388.94166968
  -Hartree energ DENC   =       -71.55612462
  -exchange      EXHF   =         0.00000000
  -V(xc)+E(xc)   XCENC  =       114.36347929
  PAW double counting   =       302.65154477     -311.85538214
  entropy T*S    EENTRO =         0.00000000
  eigenvalues    EBANDS =       -11.15053897
  atomic energy  EATOM  =      1177.01779097
  Solvation  Ediel_sol  =         0.00000000
  ---------------------------------------------------
  free energy    TOTEN  =       -74.79979257 eV

  energy without entropy =      -74.79979257  energy(sigma->0) =      -74.79979257


--------------------------------------------------------------------------------------------------------




--------------------------------------- Iteration      1(   5)  ---------------------------------------


     EDDAV:  cpu time   11.4618: real time   11.4628
 BZINTS: Fermi energy:  8.375096; 32.000000 electrons
         Band energy: -11.151402;  BLOECHL correction:  0.000000
       DOS:  cpu time    0.0379: real time    0.0379
    CHARGE:  cpu time    0.2602: real time    0.2602
    MIXING:  cpu time    0.0015: real time    0.0015
    --------------------------------------------
      LOOP:  cpu time   11.7614: real time   11.7625

 eigenvalue-minimisations  : 11888
 total energy-change (2. order) :-0.8635214E-03  (-0.8630347E-03)
 number of electron      32.0000010 magnetization 
 augmentation part        0.7889000 magnetization 

 Broyden mixing:
  rms(total) = 0.95852E+00    rms(broyden)= 0.95832E+00
  rms(prec ) = 0.22712E+01
  weight for this iteration     100.00

 Free energy of the ion-electron system (eV)
  ---------------------------------------------------
  alpha Z        PSCENC =       114.67110780
  Ewald energy   TEWEN  =     -1388.94166968
  -Hartree energ DENC   =       -71.55612462
  -exchange      EXHF   =         0.00000000
  -V(xc)+E(xc)   XCENC  =       114.36347929
  PAW double counting   =       302.65154477     -311.85538214
  entropy T*S    EENTRO =         0.00000000
  eigenvalues    EBANDS =       -11.15140249
  atomic energy  EATOM  =      1177.01779097
  Solvation  Ediel_sol  =         0.00000000
  ---------------------------------------------------
  free energy    TOTEN  =       -74.80065609 eV

  energy without entropy =      -74.80065609  energy(sigma->0) =      -74.80065609


--------------------------------------------------------------------------------------------------------




--------------------------------------- Iteration      1(   6)  ---------------------------------------


    POTLOK:  cpu time    0.0202: real time    0.0207
    SETDIJ:  cpu time    0.0060: real time    0.0060
     EDDAV:  cpu time   10.1053: real time   10.1058
 BZINTS: Fermi energy:  9.062468; 32.000000 electrons
         Band energy:   5.321097;  BLOECHL correction:  0.000000
       DOS:  cpu time    0.0421: real time    0.0421
    CHARGE:  cpu time    0.2639: real time    0.2639
    MIXING:  cpu time    0.0017: real time    0.0016
    --------------------------------------------
      LOOP:  cpu time   10.4391: real time   10.4402

 eigenvalue-minimisations  : 10400
 total energy-change (2. order) : 0.1959463E+01  (-0.1318189E+00)
 number of electron      32.0000010 magnetization 
 augmentation part        0.7707202 magnetization 

 Broyden mixing:
  rms(total) = 0.52458E+00    rms(broyden)= 0.52456E+00
  rms(prec ) = 0.12249E+01
  weight for this iteration     100.00

 eigenvalues of (default mixing * dielectric matrix)
  average eigenvalue GAMMA=   2.1624
  2.1624

 Free energy of the ion-electron system (eV)
  ---------------------------------------------------
  alpha Z        PSCENC =       114.67110780
  Ewald energy   TEWEN  =     -1388.94166968
  -Hartree energ DENC   =       -86.95008154
  -exchange      EXHF   =         0.00000000
  -V(xc)+E(xc)   XCENC  =       115.79182448
  PAW double counting   =       394.37888227     -404.13014364
  entropy T*S    EENTRO =         0.00000000
  eigenvalues    EBANDS =         5.32109665
  atomic energy  EATOM  =      1177.01779097
  Solvation  Ediel_sol  =         0.00000000
  ---------------------------------------------------
  free energy    TOTEN  =       -72.84119269 eV

  energy without entropy =      -72.84119269  energy(sigma->0) =      -72.84119269


--------------------------------------------------------------------------------------------------------




--------------------------------------- Iteration      1(   7)  ---------------------------------------


    POTLOK:  cpu time    0.0200: real time    0.0204
    SETDIJ:  cpu time    0.0057: real time    0.0057
     EDDAV:  cpu time   10.8132: real time   10.8141
 BZINTS: Fermi energy:  9.845814; 32.000000 electrons
         Band energy:  24.229990;  BLOECHL correction:  0.000000
       DOS:  cpu time    0.0377: real time    0.0377
    CHARGE:  cpu time    0.2629: real time    0.2629
    MIXING:  cpu time    0.0020: real time    0.0020
    --------------------------------------------
      LOOP:  cpu time   11.1416: real time   11.1430

 eigenvalue-minimisations  : 10848
 total energy-change (2. order) : 0.6571002E+00  (-0.1509645E+00)
 number of electron      32.0000009 magnetization 
 augmentation part        0.7512423 magnetization 

 Broyden mixing:
  rms(total) = 0.71225E-01    rms(broyden)= 0.70880E-01
  rms(prec ) = 0.12514E+00
  weight for this iteration     100.00

 eigenvalues of (default mixing * dielectric matrix)
  average eigenvalue GAMMA=   2.2763
  2.0352  2.5173

 Free energy of the ion-electron system (eV)
  ---------------------------------------------------
  alpha Z        PSCENC =       114.67110780
  Ewald energy   TEWEN  =     -1388.94166968
  -Hartree energ DENC   =      -106.52071651
  -exchange      EXHF   =         0.00000000
  -V(xc)+E(xc)   XCENC  =       117.62973977
  PAW double counting   =       518.83966498     -529.11000026
  entropy T*S    EENTRO =         0.00000000
  eigenvalues    EBANDS =        24.22999046
  atomic energy  EATOM  =      1177.01779097
  Solvation  Ediel_sol  =         0.00000000
  ---------------------------------------------------
  free energy    TOTEN  =       -72.18409246 eV

  energy without entropy =      -72.18409246  energy(sigma->0) =      -72.18409246


--------------------------------------------------------------------------------------------------------




--------------------------------------- Iteration      1(   8)  ---------------------------------------


    POTLOK:  cpu time    0.0209: real time    0.0213
    SETDIJ:  cpu time    0.0059: real time    0.0059
     EDDAV:  cpu time   11.0017: real time   11.0026
 BZINTS: Fermi energy:  9.859135; 32.000000 electrons
         Band energy:  24.453250;  BLOECHL correction:  0.000000
       DOS:  cpu time    0.0377: real time    0.0377
    CHARGE:  cpu time    0.2709: real time    0.2709
    MIXING:  cpu time    0.0023: real time    0.0023
    --------------------------------------------
      LOOP:  cpu time   11.3393: real time   11.3406

 eigenvalue-minimisations  : 11208
 total energy-change (2. order) :-0.8154733E-02  (-0.3885890E-02)
 number of electron      32.0000009 magnetization 
 augmentation part        0.7517214 magnetization 

 Broyden mixing:
  rms(total) = 0.75698E-02    rms(broyden)= 0.74569E-02
  rms(prec ) = 0.12887E-01
  weight for this iteration     100.00

 eigenvalues of (default mixing * dielectric matrix)
  average eigenvalue GAMMA=   2.0427
  1.3904  2.6442  2.0934

 Free energy of the ion-electron system (eV)
  ---------------------------------------------------
  alpha Z        PSCENC =       114.67110780
  Ewald energy   TEWEN  =     -1388.94166968
  -Hartree energ DENC   =      -106.92776027
  -exchange      EXHF   =         0.00000000
  -V(xc)+E(xc)   XCENC  =       117.67413346
  PAW double counting   =       528.45285814     -538.59195731
[...]

 k-point   177 :       0.5000    0.4167    0.3333
  band No.  band energies     occupation 
      1      -7.6639      2.00000
      2      -6.7889      2.00000
      3      -5.7198      2.00000
      4      -5.5601      2.00000
      5      -3.2091      2.00000
      6      -3.0451      2.00000
      7      -2.3145      2.00000
      8      -2.0205      2.00000
      9       5.4615      2.00000
     10       5.5886      2.00000
     11       6.2742      2.00000
     12       6.2855      2.00000
     13       6.3255      2.00000
     14       6.8333      2.00000
     15       7.0295      2.00000
     16       7.5326      2.00000
     17      16.7527      0.00000
     18      17.0240      0.00000
     19      17.4209      0.00000
     20      18.4020      0.00000
     21      18.7006      0.00000
     22      18.8993      0.00000
     23      18.9930      0.00000
     24      19.0347      0.00000

 k-point   178 :      -0.4167    0.4167    0.3333
  band No.  band energies     occupation 
      1      -7.4817      2.00000
      2      -7.1040      2.00000
      3      -6.2084      2.00000
      4      -5.2980      2.00000
      5      -3.3078      2.00000
      6      -2.7122      2.00000
      7      -2.4147      2.00000
      8      -1.1995      2.00000
      9       5.1846      2.00000
     10       5.6895      2.00000
     11       6.1183      2.00000
     12       6.1721      2.00000
     13       6.4251      2.00000
     14       6.5979      2.00000
     15       7.0178      2.00000
     16       7.1242      2.00000
     17      16.5501      0.00000
     18      16.7574      0.00000
     19      17.0230      0.00000
     20      18.2400      0.00000
     21      18.7115      0.00000
     22      18.8685      0.00000
     23      18.8838      0.00000
     24      19.2058      0.00000

 k-point   179 :      -0.3333    0.4167    0.3333
  band No.  band energies     occupation 
      1      -8.0776      2.00000
      2      -6.6653      2.00000
      3      -6.5666      2.00000
      4      -5.3914      2.00000
      5      -2.8550      2.00000
      6      -2.8426      2.00000
      7      -1.6090      2.00000
      8      -0.2621      2.00000
      9       4.6052      2.00000
     10       5.4820      2.00000
     11       5.5978      2.00000
     12       5.9204      2.00000
     13       5.9575      2.00000
     14       6.5645      2.00000
     15       6.7733      2.00000
     16       7.0467      2.00000
     17      16.5404      0.00000
     18      16.6042      0.00000
     19      16.6712      0.00000
     20      18.0393      0.00000
     21      18.6066      0.00000
     22      18.7064      0.00000
     23      18.7958      0.00000
     24      19.1846      0.00000

 k-point   180 :       0.5000    0.5000    0.3333
  band No.  band energies     occupation 
      1      -7.2280      2.00000
      2      -6.3331      2.00000
      3      -6.1880      2.00000
      4      -6.1880      2.00000
      5      -2.8353      2.00000
      6      -2.6786      2.00000
      7      -2.6786      2.00000
      8      -2.5275      2.00000
      9       5.8188      2.00000
     10       5.8931      2.00000
     11       5.8931      2.00000
     12       6.6746      2.00000
     13       6.7132      2.00000
     14       6.7461      2.00000
     15       6.7461      2.00000
     16       7.4712      2.00000
     17      16.7816      0.00000
     18      16.7816      0.00000
     19      17.3539      0.00000
     20      18.5903      0.00000
     21      18.6947      0.00000
     22      18.6947      0.00000
     23      18.7738      0.00000
     24      18.9799      0.00000

 k-point   181 :      -0.4167    0.5000    0.3333
  band No.  band energies     occupation 
      1      -6.9181      2.00000
      2      -6.8393      2.00000
      3      -6.8101      2.00000
      4      -5.5820      2.00000
      5      -3.1270      2.00000
      6      -3.1051      2.00000
      7      -1.9075      2.00000
      8      -1.8241      2.00000
      9       5.3512      2.00000
     10       6.1373      2.00000
     11       6.1399      2.00000
     12       6.2612      2.00000
     13       6.4692      2.00000
     14       6.6969      2.00000
     15       6.8228      2.00000
     16       7.1063      2.00000
     17      16.6762      0.00000
     18      16.8718      0.00000
     19      17.0835      0.00000
     20      18.2570      0.00000
     21      18.4942      0.00000
     22      18.5728      0.00000
     23      18.8871      0.00000
     24      18.9885      0.00000

 k-point   182 :      -0.3333    0.5000    0.3333
  band No.  band energies     occupation 
      1      -7.4205      2.00000
      2      -7.4205      2.00000
      3      -6.4956      2.00000
      4      -5.1623      2.00000
      5      -3.1757      2.00000
      6      -3.0402      2.00000
      7      -0.9930      2.00000
      8      -0.9930      2.00000
      9       4.6217      2.00000
     10       5.5862      2.00000
     11       6.1103      2.00000
     12       6.2957      2.00000
     13       6.2957      2.00000
     14       6.5109      2.00000
     15       6.5109      2.00000
     16       6.6198      2.00000
     17      16.7201      0.00000
     18      16.7201      0.00000
     19      17.0614      0.00000
     20      17.8935      0.00000
     21      18.5115      0.00000
     22      18.8286      0.00000
     23      18.8286      0.00000
     24      19.4266      0.00000

 k-point   183 :      -0.4167   -0.4167    0.3333
  band No.  band energies     occupation 
      1      -7.5486      2.00000
      2      -6.6159      2.00000
      3      -6.1212      2.00000
      4      -6.1212      2.00000
      5      -3.1676      2.00000
      6      -2.4760      2.00000
      7      -2.4760      2.00000
      8      -1.0976      2.00000
      9       5.4887      2.00000
     10       5.4887      2.00000
     11       5.9465      2.00000
     12       6.3824      2.00000
     13       6.3824      2.00000
     14       6.5239      2.00000
     15       6.9458      2.00000
     16       7.0043      2.00000
     17      16.7341      0.00000
     18      16.7341      0.00000
     19      16.9300      0.00000
     20      18.1678      0.00000
     21      18.4332      0.00000
     22      18.4332      0.00000
     23      18.7015      0.00000
     24      18.7836      0.00000

 k-point   184 :       0.4167    0.4167    0.4167
  band No.  band energies     occupation 
      1      -7.7895      2.00000
      2      -5.6796      2.00000
      3      -5.6796      2.00000
      4      -5.6796      2.00000
      5      -3.3310      2.00000
      6      -3.3310      2.00000
      7      -3.3310      2.00000
      8      -2.4372      2.00000
      9       6.1709      2.00000
     10       6.1709      2.00000
     11       6.1709      2.00000
     12       6.4089      2.00000
     13       6.4089      2.00000
     14       6.4089      2.00000
     15       7.7003      2.00000
     16       7.7003      2.00000
     17      17.0567      0.00000
     18      17.0567      0.00000
     19      17.0567      0.00000
     20      18.5575      0.00000
     21      18.5575      0.00000
     22      18.6964      0.00000
     23      18.6964      0.00000
     24      18.6964      0.00000

 k-point   185 :       0.5000    0.4167    0.4167
  band No.  band energies     occupation 
      1      -7.3513      2.00000
      2      -6.3110      2.00000
      3      -5.5361      2.00000
      4      -5.5361      2.00000
      5      -3.5522      2.00000
      6      -3.5522      2.00000
      7      -2.9622      2.00000
      8      -2.7975      2.00000
      9       6.2493      2.00000
     10       6.2493      2.00000
     11       6.4685      2.00000
     12       6.4685      2.00000
     13       6.5989      2.00000
     14       6.8004      2.00000
     15       7.4862      2.00000
     16       7.5093      2.00000
     17      16.6759      0.00000
     18      16.9562      0.00000
     19      16.9562      0.00000
     20      18.4607      0.00000
     21      18.6344      0.00000
     22      18.8176      0.00000
     23      18.8498      0.00000
     24      18.8504      0.00000

 k-point   186 :      -0.4167    0.4167    0.4167
  band No.  band energies     occupation 
      1      -6.9654      2.00000
      2      -6.9313      2.00000
      3      -5.7548      2.00000
      4      -5.7548      2.00000
      5      -3.2343      2.00000
      6      -3.1947      2.00000
      7      -3.1947      2.00000
      8      -2.0203      2.00000
      9       6.0446      2.00000
     10       6.0446      2.00000
     11       6.4220      2.00000
     12       6.4220      2.00000
     13       6.8007      2.00000
     14       6.8913      2.00000
     15       6.9259      2.00000
     16       7.2256      2.00000
     17      16.6001      0.00000
     18      16.8030      0.00000
     19      16.8030      0.00000
     20      18.3415      0.00000
     21      18.6631      0.00000
     22      18.7264      0.00000
     23      18.7265      0.00000
     24      18.8456      0.00000

 k-point   187 :       0.5000    0.5000    0.4167
  band No.  band energies     occupation 
      1      -7.0532      2.00000
      2      -5.8763      2.00000
      3      -5.8231      2.00000
      4      -5.8231      2.00000
      5      -3.3696      2.00000
      6      -3.3696      2.00000
      7      -3.3623      2.00000
      8      -3.3147      2.00000
      9       6.4685      2.00000
     10       6.4685      2.00000
     11       6.5498      2.00000
     12       6.6656      2.00000
     13       6.7902      2.00000
     14       6.7902      2.00000
     15       7.3626      2.00000
     16       7.5624      2.00000
     17      16.6631      0.00000
     18      16.6631      0.00000
     19      16.8298      0.00000
     20      18.6093      0.00000
     21      18.7083      0.00000
     22      18.7254      0.00000
     23      18.7905      0.00000
     24      18.8017      0.00000

 k-point   188 :      -0.4167    0.5000    0.4167
  band No.  band energies     occupation 
      1      -6.8573      2.00000
      2      -6.3690      2.00000
      3      -6.3690      2.00000
      4      -5.5189      2.00000
      5      -3.5404      2.00000
      6      -3.4252      2.00000
      7      -2.7073      2.00000
      8      -2.7073      2.00000
      9       6.0591      2.00000
     10       6.5821      2.00000
     11       6.5821      2.00000
     12       6.6464      2.00000
     13       6.7086      2.00000
     14       6.7086      2.00000
     15       7.0051      2.00000
     16       7.3455      2.00000
     17      16.7128      0.00000
     18      16.7128      0.00000
     19      16.7363      0.00000
     20      18.5017      0.00000
     21      18.5406      0.00000
     22      18.7654      0.00000
     23      18.7754      0.00000
     24      18.9146      0.00000

 k-point   189 :       0.5000    0.5000    0.5000
  band No.  band energies     occupation 
      1      -6.9782      2.00000
      2      -5.6381      2.00000
      3      -5.6381      2.00000
      4      -5.6381      2.00000
      5      -3.6646      2.00000
      6      -3.6646      2.00000
      7      -3.6646      2.00000
      8      -3.5552      2.00000
      9       6.6622      2.00000
     10       6.6622      2.00000
     11       6.6622      2.00000
     12       6.8194      2.00000
     13       6.8194      2.00000
     14       6.8194      2.00000
     15       7.5957      2.00000
     16       7.5957      2.00000
     17      16.6142      0.00000
     18      16.6142      0.00000
     19      16.6142      0.00000
     20      18.6153      0.00000
     21      18.6154      0.00000
     22      18.7228      0.00000
     23      18.7228      0.00000
     24      18.7230      0.00000


--------------------------------------------------------------------------------------------------------


 soft charge-density along one line, spin component           1
         0         1         2         3         4         5         6         7         8         9
 total charge-density along one line
 
 pseudopotential strength for first ion, spin component:           1
  9.441  -0.005   0.000   0.000   0.000  -0.000  -0.000  -0.000
 -0.005  -0.002   0.000   0.000   0.000  -0.000  -0.000  -0.000
  0.000   0.000  -3.661  -0.000  -0.000  -0.009   0.000   0.000
  0.000   0.000  -0.000  -3.661  -0.000   0.000  -0.009   0.000
  0.000   0.000  -0.000  -0.000  -3.661   0.000   0.000  -0.009
 -0.000  -0.000  -0.009   0.000   0.000  -0.757  -0.000  -0.000
 -0.000  -0.000   0.000  -0.009   0.000  -0.000  -0.757  -0.000
 -0.000  -0.000   0.000   0.000  -0.009  -0.000  -0.000  -0.757
 total augmentation occupancy for first ion, spin component:           1
  1.426  -1.035   0.014   0.014   0.015   0.008   0.008   0.008
 -1.035   1.038  -0.041  -0.039  -0.043  -0.013  -0.012  -0.014
  0.014  -0.041   1.100  -0.031  -0.034   0.185  -0.004  -0.005
  0.014  -0.039  -0.031   1.103  -0.032  -0.004   0.185  -0.005
  0.015  -0.043  -0.034  -0.032   1.097  -0.005  -0.005   0.184
  0.008  -0.013   0.185  -0.004  -0.005   0.037  -0.001  -0.001
  0.008  -0.012  -0.004   0.185  -0.005  -0.001   0.037  -0.001
  0.008  -0.014  -0.005  -0.005   0.184  -0.001  -0.001   0.037


------------------------ aborting loop because EDIFF is reached ----------------------------------------


    CHARGE:  cpu time    0.2633: real time    0.2633
    FORLOC:  cpu time    0.0019: real time    0.0019
    FORNL :  cpu time    0.4594: real time    0.4594
    STRESS:  cpu time    1.0792: real time    1.0795
    FORHAR:  cpu time    0.0061: real time    0.0061
    MIXING:  cpu time    0.0021: real time    0.0021
    OFIELD:  cpu time    0.0001: real time    0.0001

  FORCE on cell =-STRESS in cart. coord.  units (eV):
  Direction    XX          YY          ZZ          XY          YZ          ZX
  --------------------------------------------------------------------------------------
  Alpha Z   114.67111   114.67111   114.67111
  Ewald    -465.57093  -462.85806  -460.51508   -27.09509   -24.57328   -25.83415
  Hartree    34.92101    35.68536    36.34550    -7.63408    -6.92353    -7.27881
  E(xc)    -119.70513  -119.70180  -119.69892    -0.03329    -0.03019    -0.03174
  Local     -44.54225   -47.80197   -50.61724    32.55683    29.52659    31.04172
  n-local   -28.08739   -28.49856   -28.32843     1.13025     1.46407     0.72912
  augment    -2.84754    -2.84768    -2.84780     0.00140     0.00127     0.00133
  Kinetic   504.91438   510.54997   518.27081    -6.60142    -9.47258    -3.08809
  Fock        0.00000     0.00000     0.00000     0.00000     0.00000     0.00000
  -------------------------------------------------------------------------------------
  Total      -0.67729     0.11311     0.79573    -7.89418    -7.15942    -7.52681
  in kB     -23.86209     3.98505    28.03504  -278.12485  -252.23806  -265.18163
  external pressure =        2.72 kB  Pullay stress =        0.00 kB


 VOLUME and BASIS-vectors are now :
 -----------------------------------------------------------------------------
  energy-cutoff  :      400.00
  volume of cell :       45.48
      direct lattice vectors                 reciprocal lattice vectors
     3.573710000  0.000000000  0.000000000     0.279821250 -0.014008545 -0.013356623
     0.178685000  3.569240000  0.000000000     0.000000000  0.280171689 -0.013356676
     0.178685000  0.169964000  3.565191000     0.000000000  0.000000000  0.280489881

  length of vectors
     3.573710000  3.573709908  3.573709971     0.280489876  0.280489886  0.280489881


 FORCES acting on ions
    electron-ion (+dipol)            ewald-force                    non-local-force                 convergence-correction
 -----------------------------------------------------------------------------------------------
   0.916E+01 0.872E+01 0.831E+01   -.927E+01 -.881E+01 -.840E+01   0.133E+00 0.126E+00 0.120E+00   0.148E-04 0.141E-04 0.134E-04
   -.916E+01 -.872E+01 -.831E+01   0.927E+01 0.881E+01 0.840E+01   -.133E+00 -.126E+00 -.120E+00   -.148E-04 -.141E-04 -.134E-04
   0.916E+01 0.872E+01 0.831E+01   -.927E+01 -.881E+01 -.840E+01   0.133E+00 0.126E+00 0.120E+00   0.148E-04 0.141E-04 0.134E-04
   -.916E+01 -.872E+01 -.831E+01   0.927E+01 0.881E+01 0.840E+01   -.133E+00 -.126E+00 -.120E+00   -.148E-04 -.141E-04 -.134E-04
   0.916E+01 0.872E+01 0.831E+01   -.927E+01 -.881E+01 -.840E+01   0.133E+00 0.126E+00 0.120E+00   0.148E-04 0.141E-04 0.134E-04
   -.916E+01 -.872E+01 -.831E+01   0.927E+01 0.881E+01 0.840E+01   -.133E+00 -.126E+00 -.120E+00   -.148E-04 -.141E-04 -.134E-04
   0.916E+01 0.872E+01 0.831E+01   -.927E+01 -.881E+01 -.840E+01   0.133E+00 0.126E+00 0.120E+00   0.148E-04 0.141E-04 0.134E-04
   -.916E+01 -.872E+01 -.831E+01   0.927E+01 0.881E+01 0.840E+01   -.133E+00 -.126E+00 -.120E+00   -.148E-04 -.141E-04 -.134E-04
 -----------------------------------------------------------------------------------------------
   0.334E-12 0.275E-12 0.197E-12   -.338E-13 -.178E-14 0.000E+00   -.167E-15 -.500E-15 0.416E-16   -.151E-13 -.141E-13 0.365E-13
 
 
 POSITION                                       TOTAL-FORCE (eV/Angst)
 -----------------------------------------------------------------------------------
      1.07211      2.71942      0.89130         0.029066      0.027647      0.026361
      0.08934      0.08498      1.78260        -0.029066     -0.027647     -0.026361
      1.07211      1.01978      2.67389         0.029066      0.027647      0.026361
      0.08934      1.78462      0.00000        -0.029066     -0.027647     -0.026361
      2.94831      2.80440      2.67389         0.029066      0.027647      0.026361
      1.78686      0.00000      0.00000        -0.029066     -0.027647     -0.026361
      2.76963      0.93480      0.89130         0.029066      0.027647      0.026361
      1.96554      1.86960      1.78260        -0.029066     -0.027647     -0.026361
 -----------------------------------------------------------------------------------
    total drift:                                0.000000      0.000000      0.000000


--------------------------------------------------------------------------------------------------------



  FREE ENERGIE OF THE ION-ELECTRON SYSTEM (eV)
  ---------------------------------------------------
  free  energy   TOTEN  =       -72.19255184 eV

  energy  without entropy=      -72.19255184  energy(sigma->0) =      -72.19255184
 


--------------------------------------------------------------------------------------------------------


    POTLOK:  cpu time    0.0272: real time    0.0272


--------------------------------------------------------------------------------------------------------


     LOOP+:  cpu time  132.4498: real time  132.4896
    4ORBIT:  cpu time    0.0000: real time    0.0000
 BZINTS: Fermi energy:  9.861607; 32.000000 electrons
         Band energy:  24.467440;  BLOECHL correction:  0.000000

 total amount of memory used by VASP MPI-rank0    37560. kBytes
=======================================================================

   base      :      30000. kBytes
   nonl-proj :       2591. kBytes
   fftplans  :        346. kBytes
   grid      :        481. kBytes
   one-center:          6. kBytes
   wavefun   :       4136. kBytes
 
  
  
 General timing and accounting informations for this job:
 ========================================================
  
                  Total CPU time used (sec):      135.937
                            User time (sec):      131.761
                          System time (sec):        4.177
                         Elapsed time (sec):      136.028
  
                   Maximum memory used (kb):      193692.
                   Average memory used (kb):           0.
  
                          Minor page faults:        36893
                          Major page faults:           36
                 Voluntary context switches:          783
