unknown system                          
           1
     3.573710    0.000000    0.000000
     0.178685    3.569240    0.000000
     0.178685    0.169964    3.565191
   C 
   8
Direct configuration=     1
   0.25000000  0.75000000  0.25000000
   0.00000000  0.00000000  0.50000000
   0.25000000  0.25000000  0.75000000
   0.00000000  0.50000000  0.00000000
   0.75000000  0.75000000  0.75000000
   0.50000000  0.00000000  0.00000000
   0.75000000  0.25000000  0.25000000
   0.50000000  0.50000000  0.50000000
