   8   8   0   0
  0.6133989E+01  0.3661095E-09  0.3661095E-09  0.3661095E-09  0.2000000E-16
  1.000000000000000E-004
  CAR 
 unknown system                          
     21.23525869    -13.37394525  301      8.67500176      1.00000000
    -13.374  0.0000E+00  0.0000E+00
    -13.259  0.0000E+00  0.0000E+00
    -13.143  0.0000E+00  0.0000E+00
    -13.028  0.0000E+00  0.0000E+00
    -12.912  0.0000E+00  0.0000E+00
    -12.797  0.0000E+00  0.0000E+00
    -12.682  0.0000E+00  0.0000E+00
    -12.566  0.0000E+00  0.0000E+00
    -12.451  0.0000E+00  0.0000E+00
    -12.336  0.0000E+00  0.0000E+00
    -12.220  0.0000E+00  0.0000E+00
    -12.105  0.0000E+00  0.0000E+00
    -11.990  0.0000E+00  0.0000E+00
    -11.874  0.0000E+00  0.0000E+00
    -11.759  0.3639E-01  0.5089E-03
    -11.643  0.1616E+00  0.1485E-01
    -11.528  0.2534E+00  0.3876E-01
    -11.413  0.2866E+00  0.6960E-01
    -11.297  0.3363E+00  0.1055E+00
    -11.182  0.3790E+00  0.1473E+00
    -11.067  0.4095E+00  0.1927E+00
    -10.951  0.4420E+00  0.2417E+00
    -10.836  0.4824E+00  0.2950E+00
    -10.721  0.5070E+00  0.3523E+00
    -10.605  0.5317E+00  0.4122E+00
    -10.490  0.5590E+00  0.4750E+00
    -10.374  0.5888E+00  0.5412E+00
    -10.259  0.6179E+00  0.6109E+00
    -10.144  0.6381E+00  0.6833E+00
    -10.028  0.6593E+00  0.7581E+00
     -9.913  0.6825E+00  0.8355E+00
     -9.798  0.7066E+00  0.9156E+00
     -9.682  0.7324E+00  0.9986E+00
     -9.567  0.7555E+00  0.1085E+01
     -9.452  0.7745E+00  0.1173E+01
     -9.336  0.7933E+00  0.1263E+01
     -9.221  0.8149E+00  0.1356E+01
     -9.105  0.8369E+00  0.1451E+01
     -8.990  0.8601E+00  0.1549E+01
     -8.875  0.8840E+00  0.1650E+01
     -8.759  0.9028E+00  0.1753E+01
     -8.644  0.9221E+00  0.1858E+01
     -8.529  0.9425E+00  0.1966E+01
     -8.413  0.9636E+00  0.2076E+01
     -8.298  0.9851E+00  0.2188E+01
     -8.183  0.1023E+01  0.2303E+01
     -8.067  0.1079E+01  0.2425E+01
     -7.952  0.1117E+01  0.2551E+01
     -7.836  0.1157E+01  0.2684E+01
     -7.721  0.1154E+01  0.2817E+01
     -7.606  0.1124E+01  0.2949E+01
     -7.490  0.1106E+01  0.3077E+01
     -7.375  0.1139E+01  0.3207E+01
     -7.260  0.1155E+01  0.3339E+01
     -7.144  0.1167E+01  0.3473E+01
     -7.029  0.1208E+01  0.3610E+01
     -6.914  0.1285E+01  0.3753E+01
     -6.798  0.1337E+01  0.3903E+01
     -6.683  0.1475E+01  0.4066E+01
     -6.567  0.1556E+01  0.4241E+01
     -6.452  0.1705E+01  0.4430E+01
     -6.337  0.1630E+01  0.4628E+01
     -6.221  0.1683E+01  0.4820E+01
     -6.106  0.1576E+01  0.5011E+01
     -5.991  0.1496E+01  0.5187E+01
     -5.875  0.1510E+01  0.5359E+01
     -5.760  0.1515E+01  0.5535E+01
     -5.645  0.1437E+01  0.5707E+01
     -5.529  0.1428E+01  0.5872E+01
     -5.414  0.1325E+01  0.6030E+01
     -5.298  0.1290E+01  0.6180E+01
     -5.183  0.1260E+01  0.6327E+01
     -5.068  0.1278E+01  0.6475E+01
     -4.952  0.1164E+01  0.6616E+01
     -4.837  0.1103E+01  0.6746E+01
     -4.722  0.1113E+01  0.6876E+01
     -4.606  0.1102E+01  0.7008E+01
     -4.491  0.1039E+01  0.7130E+01
     -4.376  0.1043E+01  0.7249E+01
     -4.260  0.1031E+01  0.7370E+01
     -4.145  0.9406E+00  0.7486E+01
     -4.029  0.8454E+00  0.7589E+01
     -3.914  0.7444E+00  0.7680E+01
     -3.799  0.6920E+00  0.7763E+01
     -3.683  0.8328E+00  0.7852E+01
     -3.568  0.7788E+00  0.7942E+01
     -3.453  0.8581E+00  0.8052E+01
     -3.337  0.7904E+00  0.8146E+01
     -3.222  0.8300E+00  0.8238E+01
     -3.107  0.9801E+00  0.8346E+01
     -2.991  0.1050E+01  0.8464E+01
     -2.876  0.1200E+01  0.8593E+01
     -2.760  0.1393E+01  0.8742E+01
     -2.645  0.1677E+01  0.8920E+01
     -2.530  0.1964E+01  0.9129E+01
     -2.414  0.2396E+01  0.9379E+01
     -2.299  0.3220E+01  0.9704E+01
     -2.184  0.3020E+01  0.1013E+02
     -2.068  0.2292E+01  0.1043E+02
     -1.953  0.1998E+01  0.1068E+02
     -1.838  0.1813E+01  0.1090E+02
     -1.722  0.1693E+01  0.1110E+02
     -1.607  0.1591E+01  0.1129E+02
     -1.491  0.1513E+01  0.1147E+02
     -1.376  0.1477E+01  0.1164E+02
     -1.261  0.1436E+01  0.1181E+02
     -1.145  0.1405E+01  0.1197E+02
     -1.030  0.1355E+01  0.1214E+02
     -0.915  0.1201E+01  0.1229E+02
     -0.799  0.1160E+01  0.1242E+02
     -0.684  0.1135E+01  0.1256E+02
     -0.569  0.1111E+01  0.1268E+02
     -0.453  0.1089E+01  0.1281E+02
     -0.338  0.1050E+01  0.1294E+02
     -0.222  0.9980E+00  0.1305E+02
     -0.107  0.1006E+01  0.1317E+02
      0.008  0.1146E+01  0.1329E+02
      0.124  0.1338E+01  0.1343E+02
      0.239  0.1588E+01  0.1360E+02
      0.354  0.1735E+01  0.1380E+02
      0.470  0.2084E+01  0.1401E+02
      0.585  0.2439E+01  0.1428E+02
      0.700  0.2377E+01  0.1456E+02
      0.816  0.2486E+01  0.1484E+02
      0.931  0.2649E+01  0.1514E+02
      1.047  0.1806E+01  0.1540E+02
      1.162  0.1421E+01  0.1558E+02
      1.277  0.1649E+01  0.1574E+02
      1.393  0.1947E+01  0.1595E+02
      1.508  0.2236E+01  0.1619E+02
      1.623  0.2314E+01  0.1645E+02
      1.739  0.2443E+01  0.1673E+02
      1.854  0.2501E+01  0.1702E+02
      1.969  0.2493E+01  0.1731E+02
      2.085  0.2416E+01  0.1759E+02
      2.200  0.2490E+01  0.1787E+02
      2.316  0.2768E+01  0.1817E+02
      2.431  0.3213E+01  0.1852E+02
      2.546  0.3182E+01  0.1891E+02
      2.662  0.2576E+01  0.1925E+02
      2.777  0.2296E+01  0.1954E+02
      2.892  0.2972E+01  0.1984E+02
      3.008  0.2913E+01  0.2018E+02
      3.123  0.3102E+01  0.2053E+02
      3.238  0.4165E+01  0.2094E+02
      3.354  0.4345E+01  0.2145E+02
      3.469  0.3451E+01  0.2190E+02
      3.585  0.2871E+01  0.2226E+02
      3.700  0.2643E+01  0.2257E+02
      3.815  0.2760E+01  0.2288E+02
      3.931  0.3468E+01  0.2325E+02
      4.046  0.2908E+01  0.2360E+02
      4.161  0.3269E+01  0.2396E+02
      4.277  0.3075E+01  0.2432E+02
      4.392  0.3146E+01  0.2468E+02
      4.507  0.3206E+01  0.2505E+02
      4.623  0.3395E+01  0.2542E+02
      4.738  0.3031E+01  0.2580E+02
      4.854  0.2613E+01  0.2612E+02
      4.969  0.2530E+01  0.2642E+02
      5.084  0.2520E+01  0.2671E+02
      5.200  0.2697E+01  0.2701E+02
      5.315  0.2901E+01  0.2734E+02
      5.430  0.2995E+01  0.2769E+02
      5.546  0.2934E+01  0.2803E+02
      5.661  0.2902E+01  0.2837E+02
      5.776  0.2601E+01  0.2868E+02
      5.892  0.2472E+01  0.2898E+02
      6.007  0.3360E+01  0.2929E+02
      6.123  0.2385E+01  0.2965E+02
      6.238  0.1904E+01  0.2988E+02
      6.353  0.1781E+01  0.3009E+02
      6.469  0.1616E+01  0.3029E+02
      6.584  0.1479E+01  0.3047E+02
      6.699  0.1391E+01  0.3063E+02
      6.815  0.1303E+01  0.3079E+02
      6.930  0.1213E+01  0.3093E+02
      7.045  0.1087E+01  0.3106E+02
      7.161  0.9776E+00  0.3118E+02
      7.276  0.9294E+00  0.3129E+02
      7.392  0.8742E+00  0.3140E+02
      7.507  0.7999E+00  0.3149E+02
      7.622  0.7253E+00  0.3158E+02
      7.738  0.6498E+00  0.3166E+02
      7.853  0.5772E+00  0.3173E+02
      7.968  0.5454E+00  0.3180E+02
      8.084  0.4152E+00  0.3185E+02
      8.199  0.3817E+00  0.3190E+02
      8.314  0.4087E+00  0.3194E+02
      8.430  0.1880E+00  0.3198E+02
      8.545  0.1540E+00  0.3199E+02
      8.661  0.1149E-02  0.3200E+02
      8.776  0.0000E+00  0.3200E+02
      8.891  0.0000E+00  0.3200E+02
      9.007  0.0000E+00  0.3200E+02
      9.122  0.0000E+00  0.3200E+02
      9.237  0.0000E+00  0.3200E+02
      9.353  0.0000E+00  0.3200E+02
      9.468  0.0000E+00  0.3200E+02
      9.583  0.0000E+00  0.3200E+02
      9.699  0.0000E+00  0.3200E+02
      9.814  0.0000E+00  0.3200E+02
      9.930  0.0000E+00  0.3200E+02
     10.045  0.0000E+00  0.3200E+02
     10.160  0.0000E+00  0.3200E+02
     10.276  0.0000E+00  0.3200E+02
     10.391  0.0000E+00  0.3200E+02
     10.506  0.0000E+00  0.3200E+02
     10.622  0.0000E+00  0.3200E+02
     10.737  0.0000E+00  0.3200E+02
     10.852  0.0000E+00  0.3200E+02
     10.968  0.0000E+00  0.3200E+02
     11.083  0.0000E+00  0.3200E+02
     11.199  0.0000E+00  0.3200E+02
     11.314  0.0000E+00  0.3200E+02
     11.429  0.0000E+00  0.3200E+02
     11.545  0.0000E+00  0.3200E+02
     11.660  0.0000E+00  0.3200E+02
     11.775  0.0000E+00  0.3200E+02
     11.891  0.0000E+00  0.3200E+02
     12.006  0.0000E+00  0.3200E+02
     12.122  0.0000E+00  0.3200E+02
     12.237  0.0000E+00  0.3200E+02
     12.352  0.0000E+00  0.3200E+02
     12.468  0.0000E+00  0.3200E+02
     12.583  0.0000E+00  0.3200E+02
     12.698  0.5282E-01  0.3200E+02
     12.814  0.2183E+00  0.3202E+02
     12.929  0.4523E+00  0.3205E+02
     13.044  0.6010E+00  0.3212E+02
     13.160  0.6448E+00  0.3219E+02
     13.275  0.6984E+00  0.3226E+02
     13.391  0.9048E+00  0.3236E+02
     13.506  0.9905E+00  0.3247E+02
     13.621  0.1530E+01  0.3259E+02
     13.737  0.1546E+01  0.3278E+02
     13.852  0.1502E+01  0.3296E+02
     13.967  0.1506E+01  0.3313E+02
     14.083  0.1643E+01  0.3331E+02
     14.198  0.1665E+01  0.3350E+02
     14.313  0.1837E+01  0.3370E+02
     14.429  0.1933E+01  0.3392E+02
     14.544  0.2177E+01  0.3416E+02
     14.660  0.2425E+01  0.3442E+02
     14.775  0.2331E+01  0.3470E+02
     14.890  0.2180E+01  0.3496E+02
     15.006  0.2181E+01  0.3521E+02
     15.121  0.2259E+01  0.3547E+02
     15.236  0.2398E+01  0.3573E+02
     15.352  0.2592E+01  0.3602E+02
     15.467  0.2753E+01  0.3633E+02
     15.582  0.2993E+01  0.3666E+02
     15.698  0.2999E+01  0.3701E+02
     15.813  0.3091E+01  0.3736E+02
     15.929  0.3242E+01  0.3772E+02
     16.044  0.3732E+01  0.3812E+02
     16.159  0.3789E+01  0.3855E+02
     16.275  0.4242E+01  0.3901E+02
     16.390  0.4820E+01  0.3953E+02
     16.505  0.5986E+01  0.4014E+02
     16.621  0.4670E+01  0.4076E+02
     16.736  0.4454E+01  0.4127E+02
     16.851  0.4216E+01  0.4179E+02
     16.967  0.3694E+01  0.4225E+02
     17.082  0.3745E+01  0.4267E+02
     17.198  0.3984E+01  0.4312E+02
     17.313  0.4146E+01  0.4359E+02
     17.428  0.3312E+01  0.4403E+02
     17.544  0.2856E+01  0.4437E+02
     17.659  0.2685E+01  0.4469E+02
     17.774  0.2573E+01  0.4499E+02
     17.890  0.2657E+01  0.4529E+02
     18.005  0.2934E+01  0.4562E+02
     18.120  0.2796E+01  0.4596E+02
     18.236  0.2905E+01  0.4629E+02
     18.351  0.2872E+01  0.4662E+02
     18.467  0.2731E+01  0.4695E+02
     18.582  0.2248E+01  0.4724E+02
     18.697  0.1831E+01  0.4747E+02
     18.813  0.1443E+01  0.4766E+02
     18.928  0.9012E+00  0.4780E+02
     19.043  0.5072E+00  0.4788E+02
     19.159  0.3268E+00  0.4792E+02
     19.274  0.2396E+00  0.4795E+02
     19.389  0.1684E+00  0.4798E+02
     19.505  0.9762E-01  0.4799E+02
     19.620  0.2493E-01  0.4800E+02
     19.736  0.0000E+00  0.4800E+02
     19.851  0.0000E+00  0.4800E+02
     19.966  0.0000E+00  0.4800E+02
     20.082  0.0000E+00  0.4800E+02
     20.197  0.0000E+00  0.4800E+02
     20.312  0.0000E+00  0.4800E+02
     20.428  0.0000E+00  0.4800E+02
     20.543  0.0000E+00  0.4800E+02
     20.658  0.0000E+00  0.4800E+02
     20.774  0.0000E+00  0.4800E+02
     20.889  0.0000E+00  0.4800E+02
     21.005  0.0000E+00  0.4800E+02
     21.120  0.0000E+00  0.4800E+02
     21.235  0.0000E+00  0.4800E+02
