       N       E                     dE             d eps       ncg     rms          rms(c)
DAV:   1     0.574908235973E+02    0.57491E+02   -0.14255E+04  4032   0.105E+03
DAV:   2    -0.701605411094E+02   -0.12765E+03   -0.12119E+03  5624   0.217E+02
DAV:   3    -0.743546043710E+02   -0.41941E+01   -0.41747E+01  5160   0.371E+01
DAV:   4    -0.743993488675E+02   -0.44744E-01   -0.44696E-01  5232   0.416E+00
DAV:   5    -0.744002696407E+02   -0.92077E-03   -0.92043E-03  5088   0.559E-01    0.864E+00
DAV:   6    -0.729254440623E+02    0.14748E+01   -0.99321E-01  4712   0.553E+00    0.480E+00
DAV:   7    -0.724261703192E+02    0.49927E+00   -0.11479E+00  4728   0.612E+00    0.671E-01
DAV:   8    -0.724327050810E+02   -0.65348E-02   -0.23449E-02  5208   0.878E-01    0.758E-02
DAV:   9    -0.724329337810E+02   -0.22870E-03   -0.42943E-04  4888   0.136E-01    0.273E-02
DAV:  10    -0.724329919929E+02   -0.58212E-04   -0.54590E-05  5104   0.546E-02    0.259E-03
DAV:  11    -0.724329924596E+02   -0.46673E-06   -0.11403E-06  3760   0.728E-03
   1 F= -.72432992E+02 E0= -.72432992E+02  d E =0.000000E+00
