 vasp.5.4.4.18Apr17-6-g9f103f2a35 (build Mar 12 2022 03:36:41) complex          
  
 executed on IFC19.0.3.199_CrayMP date 2022.12.01  11:03:08
 running on   16 total cores
 distrk:  each k-point on   16 cores,    1 groups
 distr:  one band on NCORES_PER_BAND=   4 cores,    4 groups


--------------------------------------------------------------------------------------------------------


 INCAR:
 POTCAR:   PAW_PBE C 08Apr2002                    
 POTCAR:   PAW_PBE C 08Apr2002                    
   VRHFIN =C: s2p2                                                              
   LEXCH  = PE                                                                  
   EATOM  =   147.1560 eV,   10.8157 Ry                                         
                                                                                
   TITEL  = PAW_PBE C 08Apr2002                                                 
   LULTRA =        F    use ultrasoft PP ?                                      
   IUNSCR =        0    unscreen: 0-lin 1-nonlin 2-no                           
   RPACOR =     .000    partial core radius                                     
   POMASS =   12.011; ZVAL   =    4.000    mass and valenz                      
   RCORE  =    1.500    outmost cutoff radius                                   
   RWIGS  =    1.630; RWIGS  =     .863    wigner-seitz radius (au A)           
   ENMAX  =  400.000; ENMIN  =  300.000 eV                                      
   ICORE  =        2    local potential                                         
   LCOR   =        T    correct aug charges                                     
   LPAW   =        T    paw PP                                                  
   EAUG   =  644.873                                                            
   DEXC   =     .000                                                            
   RMAX   =    2.266    core radius for proj-oper                               
   RAUG   =    1.300    factor for augmentation sphere                          
   RDEP   =    1.501    radius for radial grids                                 
   RDEPT  =    1.300    core radius for aug-charge                              
   QCUT   =   -5.516; QGAM   =   11.032    optimization parameters              
                                                                                
   Description                                                                  
     l     E      TYP  RCUT    TYP  RCUT                                        
     0   .000     23  1.200                                                     
     0   .000     23  1.200                                                     
     1   .000     23  1.500                                                     
     1  2.500     23  1.500                                                     
     2   .000      7  1.500                                                     
  local pseudopotential read in
  atomic valenz-charges read in
  non local Contribution for L=           0  read in
    real space projection operators read in
  non local Contribution for L=           0  read in
    real space projection operators read in
  non local Contribution for L=           1  read in
    real space projection operators read in
  non local Contribution for L=           1  read in
    real space projection operators read in
    PAW grid and wavefunctions read in
 
   number of l-projection  operators is LMAX  =           4
   number of lm-projection operators is LMMAX =           8
 
 PAW_PBE C 08Apr2002                    :
 energy of atom  1       EATOM= -147.1560
 kinetic energy error for atom=    0.0288 (will be added to EATOM!!)
 
 
 POSCAR: C8                                      
  positions in direct lattice
  No initial velocities read in
 exchange correlation table for  LEXCH =        8
   RHO(1)=    0.500       N(1)  =     2000
   RHO(2)=  100.500       N(2)  =     4000
 


--------------------------------------------------------------------------------------------------------


 ion  position               nearest neighbor table
   1  0.250  0.750  0.250-   2 1.59   4 1.59   6 1.59   8 1.59
   2  0.000  0.000  0.500-   1 1.59   3 1.59   5 1.59   7 1.59
   3  0.250  0.250  0.750-   2 1.59   4 1.59   6 1.59   8 1.59
   4  0.000  0.500  0.000-   1 1.59   3 1.59   5 1.59   7 1.59
   5  0.750  0.750  0.750-   2 1.59   4 1.59   6 1.59   8 1.59
   6  0.500  0.000  0.000-   1 1.59   3 1.59   5 1.59   7 1.59
   7  0.750  0.250  0.250-   2 1.59   4 1.59   6 1.59   8 1.59
   8  0.500  0.500  0.500-   1 1.59   3 1.59   5 1.59   7 1.59
 
  LATTYP: Found a simple cubic cell.
 ALAT       =     3.6610949500
  
  Lattice vectors:
  
 A1 = (   3.6610949500,   0.0000000000,   0.0000000000)
 A2 = (   0.0000000000,   3.6610949500,   0.0000000000)
 A3 = (   0.0000000000,   0.0000000000,   3.6610949500)


Analysis of symmetry for initial positions (statically):
=====================================================================
 Subroutine PRICEL returns following result:
 
  LATTYP: Found a face centered cubic cell.
 ALAT       =     3.6610949500
  
  Lattice vectors:
  
 A1 = (   1.8305474750,   1.8305474750,   0.0000000000)
 A2 = (   1.8305474750,   0.0000000000,  -1.8305474750)
 A3 = (   0.0000000000,   1.8305474750,  -1.8305474750)
 
   4 primitive cells build up your supercell.
 

 Routine SETGRP: Setting up the symmetry group for a 
 simple cubic supercell.


 Subroutine GETGRP returns: Found 48 space group operations
 (whereof 24 operations were pure point group operations)
 out of a pool of 48 trial point group operations.


The static configuration has the point symmetry T_d .
 The point group associated with its full space group is O_h .


Analysis of symmetry for dynamics (positions and initial velocities):
=====================================================================
 Subroutine PRICEL returns following result:
 
  LATTYP: Found a face centered cubic cell.
 ALAT       =     3.6610949500
  
  Lattice vectors:
  
 A1 = (   1.8305474750,   1.8305474750,   0.0000000000)
 A2 = (   1.8305474750,   0.0000000000,  -1.8305474750)
 A3 = (   0.0000000000,   1.8305474750,  -1.8305474750)
 
   4 primitive cells build up your supercell.
 

 Routine SETGRP: Setting up the symmetry group for a 
 simple cubic supercell.


 Subroutine GETGRP returns: Found 48 space group operations
 (whereof 24 operations were pure point group operations)
 out of a pool of 48 trial point group operations.


The dynamic configuration has the point symmetry T_d .
 The point group associated with its full space group is O_h .


 Subroutine INISYM returns: Found 48 space group operations
 (whereof 24 operations are pure point group operations),
 and found     4 'primitive' translations

 
 
 KPOINTS: kpt_density=1000                        

Automatic generation of k-mesh.
Space group operators:
 irot       det(A)        alpha          n_x          n_y          n_z        tau_x        tau_y        tau_z
    1     1.000000     0.000000     1.000000     0.000000     0.000000     0.000000     0.000000     0.000000
    2     1.000000   120.000000    -0.577350    -0.577350    -0.577350     0.000000     0.000000     0.000000
    3     1.000000   120.000000     0.577350     0.577350     0.577350     0.000000     0.000000     0.000000
    4    -1.000000    90.000000     0.000000     0.000000    -1.000000     0.000000     0.000000     0.000000
    5    -1.000000   180.000000     0.000000     0.707107     0.707107     0.000000     0.000000     0.000000
    6    -1.000000    90.000000     0.000000     1.000000     0.000000     0.000000     0.000000     0.000000
    7     1.000000   180.000000     0.000000     0.000000     1.000000     0.000000     0.000000     0.000000
    8     1.000000   120.000000    -0.577350     0.577350     0.577350     0.000000     0.000000     0.000000
    9     1.000000   120.000000    -0.577350     0.577350    -0.577350     0.000000     0.000000     0.000000
   10    -1.000000    90.000000     0.000000     0.000000     1.000000     0.000000     0.000000     0.000000
   11    -1.000000    90.000000    -1.000000     0.000000     0.000000     0.000000     0.000000     0.000000
   12    -1.000000   180.000000     0.707107     0.000000     0.707107     0.000000     0.000000     0.000000
   13     1.000000   120.000000     0.577350    -0.577350     0.577350     0.000000     0.000000     0.000000
   14     1.000000   120.000000    -0.577350    -0.577350     0.577350     0.000000     0.000000     0.000000
   15     1.000000   180.000000     1.000000     0.000000     0.000000     0.000000     0.000000     0.000000
   16    -1.000000    90.000000     0.000000    -1.000000     0.000000     0.000000     0.000000     0.000000
   17    -1.000000   180.000000     0.707107     0.707107     0.000000     0.000000     0.000000     0.000000
   18    -1.000000    90.000000     1.000000     0.000000     0.000000     0.000000     0.000000     0.000000
   19     1.000000   120.000000     0.577350    -0.577350    -0.577350     0.000000     0.000000     0.000000
   20     1.000000   180.000000     0.000000     1.000000     0.000000     0.000000     0.000000     0.000000
   21     1.000000   120.000000     0.577350     0.577350    -0.577350     0.000000     0.000000     0.000000
   22    -1.000000   180.000000     0.000000    -0.707107     0.707107     0.000000     0.000000     0.000000
   23    -1.000000   180.000000     0.707107    -0.707107     0.000000     0.000000     0.000000     0.000000
   24    -1.000000   180.000000     0.707107     0.000000    -0.707107     0.000000     0.000000     0.000000
   25    -1.000000     0.000000     1.000000     0.000000     0.000000     0.750000     0.750000    -0.750000
   26    -1.000000   120.000000    -0.577350    -0.577350    -0.577350     0.750000     0.750000    -0.750000
   27    -1.000000   120.000000     0.577350     0.577350     0.577350     0.750000     0.750000    -0.750000
   28     1.000000    90.000000     0.000000     0.000000    -1.000000     0.750000     0.750000    -0.750000
   29     1.000000   180.000000     0.000000     0.707107     0.707107     0.750000     0.750000    -0.750000
   30     1.000000    90.000000     0.000000     1.000000     0.000000     0.750000     0.750000    -0.750000
   31    -1.000000   180.000000     0.000000     0.000000     1.000000     0.750000     0.750000    -0.750000
   32    -1.000000   120.000000    -0.577350     0.577350     0.577350     0.750000     0.750000    -0.750000
   33    -1.000000   120.000000    -0.577350     0.577350    -0.577350     0.750000     0.750000    -0.750000
   34     1.000000    90.000000     0.000000     0.000000     1.000000     0.750000     0.750000    -0.750000
   35     1.000000    90.000000    -1.000000     0.000000     0.000000     0.750000     0.750000    -0.750000
   36     1.000000   180.000000     0.707107     0.000000     0.707107     0.750000     0.750000    -0.750000
   37    -1.000000   120.000000     0.577350    -0.577350     0.577350     0.750000     0.750000    -0.750000
   38    -1.000000   120.000000    -0.577350    -0.577350     0.577350     0.750000     0.750000    -0.750000
   39    -1.000000   180.000000     1.000000     0.000000     0.000000     0.750000     0.750000    -0.750000
   40     1.000000    90.000000     0.000000    -1.000000     0.000000     0.750000     0.750000    -0.750000
   41     1.000000   180.000000     0.707107     0.707107     0.000000     0.750000     0.750000    -0.750000
   42     1.000000    90.000000     1.000000     0.000000     0.000000     0.750000     0.750000    -0.750000
   43    -1.000000   120.000000     0.577350    -0.577350    -0.577350     0.750000     0.750000    -0.750000
   44    -1.000000   180.000000     0.000000     1.000000     0.000000     0.750000     0.750000    -0.750000
   45    -1.000000   120.000000     0.577350     0.577350    -0.577350     0.750000     0.750000    -0.750000
   46     1.000000   180.000000     0.000000    -0.707107     0.707107     0.750000     0.750000    -0.750000
   47     1.000000   180.000000     0.707107    -0.707107     0.000000     0.750000     0.750000    -0.750000
   48     1.000000   180.000000     0.707107     0.000000    -0.707107     0.750000     0.750000    -0.750000
 
 Subroutine IBZKPT returns following result:
 ===========================================
 
 Found     84 irreducible k-points:
 
 Following reciprocal coordinates:
            Coordinates               Weight
  0.000000  0.000000  0.000000      1.000000
  0.083333  0.000000  0.000000      6.000000
  0.166667  0.000000  0.000000      6.000000
  0.250000  0.000000  0.000000      6.000000
  0.333333  0.000000  0.000000      6.000000
  0.416667  0.000000  0.000000      6.000000
  0.500000  0.000000  0.000000      3.000000
  0.083333  0.083333  0.000000     12.000000
  0.166667  0.083333  0.000000     24.000000
  0.250000  0.083333  0.000000     24.000000
  0.333333  0.083333  0.000000     24.000000
  0.416667  0.083333  0.000000     24.000000
  0.500000  0.083333  0.000000     12.000000
  0.166667  0.166667  0.000000     12.000000
  0.250000  0.166667  0.000000     24.000000
  0.333333  0.166667  0.000000     24.000000
  0.416667  0.166667  0.000000     24.000000
  0.500000  0.166667  0.000000     12.000000
  0.250000  0.250000  0.000000     12.000000
  0.333333  0.250000  0.000000     24.000000
  0.416667  0.250000  0.000000     24.000000
  0.500000  0.250000  0.000000     12.000000
  0.333333  0.333333  0.000000     12.000000
  0.416667  0.333333  0.000000     24.000000
  0.500000  0.333333  0.000000     12.000000
  0.416667  0.416667  0.000000     12.000000
  0.500000  0.416667  0.000000     12.000000
  0.500000  0.500000  0.000000      3.000000
  0.083333  0.083333  0.083333      8.000000
  0.166667  0.083333  0.083333     24.000000
  0.250000  0.083333  0.083333     24.000000
  0.333333  0.083333  0.083333     24.000000
  0.416667  0.083333  0.083333     24.000000
  0.500000  0.083333  0.083333     12.000000
  0.166667  0.166667  0.083333     24.000000
  0.250000  0.166667  0.083333     48.000000
  0.333333  0.166667  0.083333     48.000000
  0.416667  0.166667  0.083333     48.000000
  0.500000  0.166667  0.083333     24.000000
  0.250000  0.250000  0.083333     24.000000
  0.333333  0.250000  0.083333     48.000000
  0.416667  0.250000  0.083333     48.000000
  0.500000  0.250000  0.083333     24.000000
  0.333333  0.333333  0.083333     24.000000
  0.416667  0.333333  0.083333     48.000000
  0.500000  0.333333  0.083333     24.000000
  0.416667  0.416667  0.083333     24.000000
  0.500000  0.416667  0.083333     24.000000
  0.500000  0.500000  0.083333      6.000000
  0.166667  0.166667  0.166667      8.000000
  0.250000  0.166667  0.166667     24.000000
  0.333333  0.166667  0.166667     24.000000
  0.416667  0.166667  0.166667     24.000000
  0.500000  0.166667  0.166667     12.000000
  0.250000  0.250000  0.166667     24.000000
  0.333333  0.250000  0.166667     48.000000
  0.416667  0.250000  0.166667     48.000000
  0.500000  0.250000  0.166667     24.000000
  0.333333  0.333333  0.166667     24.000000
  0.416667  0.333333  0.166667     48.000000
  0.500000  0.333333  0.166667     24.000000
  0.416667  0.416667  0.166667     24.000000
  0.500000  0.416667  0.166667     24.000000
  0.500000  0.500000  0.166667      6.000000
  0.250000  0.250000  0.250000      8.000000
  0.333333  0.250000  0.250000     24.000000
  0.416667  0.250000  0.250000     24.000000
  0.500000  0.250000  0.250000     12.000000
  0.333333  0.333333  0.250000     24.000000
  0.416667  0.333333  0.250000     48.000000
  0.500000  0.333333  0.250000     24.000000
  0.416667  0.416667  0.250000     24.000000
  0.500000  0.416667  0.250000     24.000000
  0.500000  0.500000  0.250000      6.000000
  0.333333  0.333333  0.333333      8.000000
  0.416667  0.333333  0.333333     24.000000
  0.500000  0.333333  0.333333     12.000000
  0.416667  0.416667  0.333333     24.000000
  0.500000  0.416667  0.333333     24.000000
  0.500000  0.500000  0.333333      6.000000
  0.416667  0.416667  0.416667      8.000000
  0.500000  0.416667  0.416667     12.000000
  0.500000  0.500000  0.416667      6.000000
  0.500000  0.500000  0.500000      1.000000
 
 Following cartesian coordinates:
            Coordinates               Weight
  0.000000  0.000000  0.000000      1.000000
  0.022866  0.000000  0.000000      6.000000
  0.045731  0.000000  0.000000      6.000000
  0.068597  0.000000  0.000000      6.000000
  0.091462  0.000000  0.000000      6.000000
  0.114328  0.000000  0.000000      6.000000
  0.137194  0.000000  0.000000      3.000000
  0.022866  0.022866  0.000000     12.000000
  0.045731  0.022866  0.000000     24.000000
  0.068597  0.022866  0.000000     24.000000
  0.091462  0.022866  0.000000     24.000000
  0.114328  0.022866  0.000000     24.000000
  0.137194  0.022866  0.000000     12.000000
  0.045731  0.045731  0.000000     12.000000
  0.068597  0.045731  0.000000     24.000000
  0.091462  0.045731  0.000000     24.000000
  0.114328  0.045731  0.000000     24.000000
  0.137194  0.045731  0.000000     12.000000
  0.068597  0.068597  0.000000     12.000000
  0.091462  0.068597  0.000000     24.000000
  0.114328  0.068597  0.000000     24.000000
  0.137194  0.068597  0.000000     12.000000
  0.091462  0.091462  0.000000     12.000000
  0.114328  0.091462  0.000000     24.000000
  0.137194  0.091462  0.000000     12.000000
  0.114328  0.114328  0.000000     12.000000
  0.137194  0.114328  0.000000     12.000000
  0.137194  0.137194  0.000000      3.000000
  0.022866  0.022866  0.022866      8.000000
  0.045731  0.022866  0.022866     24.000000
  0.068597  0.022866  0.022866     24.000000
  0.091462  0.022866  0.022866     24.000000
  0.114328  0.022866  0.022866     24.000000
  0.137194  0.022866  0.022866     12.000000
  0.045731  0.045731  0.022866     24.000000
  0.068597  0.045731  0.022866     48.000000
  0.091462  0.045731  0.022866     48.000000
  0.114328  0.045731  0.022866     48.000000
  0.137194  0.045731  0.022866     24.000000
  0.068597  0.068597  0.022866     24.000000
  0.091462  0.068597  0.022866     48.000000
  0.114328  0.068597  0.022866     48.000000
  0.137194  0.068597  0.022866     24.000000
  0.091462  0.091462  0.022866     24.000000
  0.114328  0.091462  0.022866     48.000000
  0.137194  0.091462  0.022866     24.000000
  0.114328  0.114328  0.022866     24.000000
  0.137194  0.114328  0.022866     24.000000
  0.137194  0.137194  0.022866      6.000000
  0.045731  0.045731  0.045731      8.000000
  0.068597  0.045731  0.045731     24.000000
  0.091462  0.045731  0.045731     24.000000
  0.114328  0.045731  0.045731     24.000000
  0.137194  0.045731  0.045731     12.000000
  0.068597  0.068597  0.045731     24.000000
  0.091462  0.068597  0.045731     48.000000
  0.114328  0.068597  0.045731     48.000000
  0.137194  0.068597  0.045731     24.000000
  0.091462  0.091462  0.045731     24.000000
  0.114328  0.091462  0.045731     48.000000
  0.137194  0.091462  0.045731     24.000000
  0.114328  0.114328  0.045731     24.000000
  0.137194  0.114328  0.045731     24.000000
  0.137194  0.137194  0.045731      6.000000
  0.068597  0.068597  0.068597      8.000000
  0.091462  0.068597  0.068597     24.000000
  0.114328  0.068597  0.068597     24.000000
  0.137194  0.068597  0.068597     12.000000
  0.091462  0.091462  0.068597     24.000000
  0.114328  0.091462  0.068597     48.000000
  0.137194  0.091462  0.068597     24.000000
  0.114328  0.114328  0.068597     24.000000
  0.137194  0.114328  0.068597     24.000000
  0.137194  0.137194  0.068597      6.000000
  0.091462  0.091462  0.091462      8.000000
  0.114328  0.091462  0.091462     24.000000
  0.137194  0.091462  0.091462     12.000000
  0.114328  0.114328  0.091462     24.000000
  0.137194  0.114328  0.091462     24.000000
  0.137194  0.137194  0.091462      6.000000
  0.114328  0.114328  0.114328      8.000000
  0.137194  0.114328  0.114328     12.000000
  0.137194  0.137194  0.114328      6.000000
  0.137194  0.137194  0.137194      1.000000
 
 TETIRR: Found    854 inequivalent tetrahedra from    10368


--------------------------------------------------------------------------------------------------------




 Dimension of arrays:
   k-points           NKPTS =     84   k-points in BZ     NKDIM =     84   number of bands    NBANDS=     24
   number of dos      NEDOS =    301   number of ions     NIONS =      8
   non local maximal  LDIM  =      4   non local SUM 2l+1 LMDIM =      8
   total plane-waves  NPLWV =  13824
   max r-space proj   IRMAX =      1   max aug-charges    IRDMAX=   3524
   dimension x,y,z NGX =    24 NGY =   24 NGZ =   24
   dimension x,y,z NGXF=    48 NGYF=   48 NGZF=   48
   support grid    NGXF=    48 NGYF=   48 NGZF=   48
   ions per type =               8
   NGX,Y,Z   is equivalent  to a cutoff of  10.90, 10.90, 10.90 a.u.
   NGXF,Y,Z  is equivalent  to a cutoff of  21.80, 21.80, 21.80 a.u.

 SYSTEM =  unknown system                          
 POSCAR =  C8                                      

 Startparameter for this run:
   NWRITE =      2    write-flag & timer
   PREC   = accura    normal or accurate (medium, high low for compatibility)
   ISTART =      0    job   : 0-new  1-cont  2-samecut
   ICHARG =      2    charge: 1-file 2-atom 10-const
   ISPIN  =      1    spin polarized calculation?
   LNONCOLLINEAR =      F non collinear calculations
   LSORBIT =      F    spin-orbit coupling
   INIWAV =      1    electr: 0-lowe 1-rand  2-diag
   LASPH  =      F    aspherical Exc in radial PAW
   METAGGA=      F    non-selfconsistent MetaGGA calc.

 Electronic Relaxation 1
   ENCUT  =  400.0 eV  29.40 Ry    5.42 a.u.   5.97  5.97  5.97*2*pi/ulx,y,z
   ENINI  =  400.0     initial cutoff
   ENAUG  =  644.9 eV  augmentation charge cutoff
   NELM   =     60;   NELMIN=  2; NELMDL= -5     # of ELM steps 
   EDIFF  = 0.1E-05   stopping-criterion for ELM
   LREAL  =      F    real-space projection
   NLSPLINE    = F    spline interpolate recip. space projectors
   LCOMPAT=      F    compatible to vasp.4.4
   GGA_COMPAT  = T    GGA compatible to vasp.4.4-vasp.4.6
   LMAXPAW     = -100 max onsite density
   LMAXMIX     =    2 max onsite mixed and CHGCAR
   VOSKOWN=      0    Vosko Wilk Nusair interpolation
   ROPT   =    0.00000
 Ionic relaxation
   EDIFFG = 0.1E-04   stopping-criterion for IOM
   NSW    =      0    number of steps for IOM
   NBLOCK =      1;   KBLOCK =      1    inner block; outer block 
   IBRION =     -1    ionic relax: 0-MD 1-quasi-New 2-CG
   NFREE  =      0    steps in history (QN), initial steepest desc. (CG)
   ISIF   =      2    stress and relaxation
   IWAVPR =     10    prediction:  0-non 1-charg 2-wave 3-comb
   ISYM   =      2    0-nonsym 1-usesym 2-fastsym
   LCORR  =      T    Harris-Foulkes like correction to forces

   POTIM  = 0.0200    time-step for ionic-motion
   TEIN   =    0.0    initial temperature
   TEBEG  =    0.0;   TEEND  =   0.0 temperature during run
   SMASS  =  -3.00    Nose mass-parameter (am)
   estimated Nose-frequenzy (Omega)   =  0.10E-29 period in steps =****** mass=  -0.306E-27a.u.
   SCALEE = 1.0000    scale energy and forces
   NPACO  =    256;   APACO  = 16.0  distance and # of slots for P.C.
   PSTRESS=    0.0 pullay stress

  Mass of Ions in am
   POMASS =  12.01
  Ionic Valenz
   ZVAL   =   4.00
  Atomic Wigner-Seitz radii
   RWIGS  =  -1.00
  virtual crystal weights 
   VCA    =   1.00
   NELECT =      32.0000    total number of electrons
   NUPDOWN=      -1.0000    fix difference up-down

 DOS related values:
   EMIN   =  10.00;   EMAX   =-10.00  energy-range for DOS
   EFERMI =   0.00
   ISMEAR =    -5;   SIGMA  =   0.06  broadening in eV -4-tet -1-fermi 0-gaus

 Electronic relaxation 2 (details)
   IALGO  =     38    algorithm
   LDIAG  =      T    sub-space diagonalisation (order eigenvalues)
   LSUBROT=      F    optimize rotation matrix (better conditioning)
   TURBO    =      0    0=normal 1=particle mesh
   IRESTART =      0    0=no restart 2=restart with 2 vectors
   NREBOOT  =      0    no. of reboots
   NMIN     =      0    reboot dimension
   EREF     =   0.00    reference energy to select bands
   IMIX   =      4    mixing-type and parameters
     AMIX     =   0.40;   BMIX     =  1.00
     AMIX_MAG =   1.60;   BMIX_MAG =  1.00
     AMIN     =   0.10
     WC   =   100.;   INIMIX=   1;  MIXPRE=   1;  MAXMIX= -45

 Intra band minimization:
   WEIMIN = 0.0000     energy-eigenvalue tresh-hold
   EBREAK =  0.10E-07  absolut break condition
   DEPER  =   0.30     relativ break condition  

   TIME   =   0.40     timestep for ELM

  volume/ion in A,a.u.               =       6.13        41.39
  Fermi-wavevector in a.u.,A,eV,Ry     =   1.419647  2.682745 27.421165  2.015399
  Thomas-Fermi vector in A             =   2.540646
 
 Write flags
   LWAVE        =      F    write WAVECAR
   LDOWNSAMPLE  =      F    k-point downsampling of WAVECAR
   LCHARG       =      F    write CHGCAR
   LVTOT        =      F    write LOCPOT, total local potential
   LVHAR        =      F    write LOCPOT, Hartree potential only
   LELF         =      F    write electronic localiz. function (ELF)
   LORBIT       =      0    0 simple, 1 ext, 2 COOP (PROOUT), +10 PAW based schemes


 Dipole corrections
   LMONO  =      F    monopole corrections only (constant potential shift)
   LDIPOL =      F    correct potential (dipole corrections)
   IDIPOL =      0    1-x, 2-y, 3-z, 4-all directions 
   EPSILON=  1.0000000 bulk dielectric constant

 Exchange correlation treatment:
   GGA     =    --    GGA type
   LEXCH   =     8    internal setting for exchange type
   VOSKOWN=      0    Vosko Wilk Nusair interpolation
   LHFCALC =     F    Hartree Fock is set to
   LHFONE  =     F    Hartree Fock one center treatment
   AEXX    =    0.0000 exact exchange contribution

 Linear response parameters
   LEPSILON=     F    determine dielectric tensor
   LRPA    =     F    only Hartree local field effects (RPA)
   LNABLA  =     F    use nabla operator in PAW spheres
   LVEL    =     F    velocity operator in full k-point grid
   LINTERFAST=   F  fast interpolation
   KINTER  =     0    interpolate to denser k-point grid
   CSHIFT  =0.1000    complex shift for real part using Kramers Kronig
   OMEGAMAX=  -1.0    maximum frequency
   DEG_THRESHOLD= 0.2000000E-02 threshold for treating states as degnerate
   RTIME   =   -0.100 relaxation time in fs
  (WPLASMAI=    0.000 imaginary part of plasma frequency in eV, 0.658/RTIME)
   DFIELD  = 0.0000000 0.0000000 0.0000000 field for delta impulse in time
 
 Orbital magnetization related:
   ORBITALMAG=     F  switch on orbital magnetization
   LCHIMAG   =     F  perturbation theory with respect to B field
   DQ        =  0.001000  dq finite difference perturbation B field
   LLRAUG    =     F  two centre corrections for induced B field



--------------------------------------------------------------------------------------------------------


 Static calculation
 charge density and potential will be updated during run
 non-spin polarized calculation
 Variant of blocked Davidson
 Davidson routine will perform the subspace rotation
 perform sub-space diagonalisation
    after iterative eigenvector-optimisation
 modified Broyden-mixing scheme, WC =      100.0
 initial mixing is a Kerker type mixing with AMIX =  0.4000 and BMIX =      1.0000
 Hartree-type preconditioning will be used
 using additional bands            8
 reciprocal scheme for non local part
 calculate Harris-corrections to forces 
   (improved forces if not selfconsistent)
 use gradient corrections 
 use of overlap-Matrix (Vanderbilt PP)
 Fermi weights with tetrahedron method with Bloechl corrections


--------------------------------------------------------------------------------------------------------


  energy-cutoff  :      400.00
  volume of cell :       49.07
      direct lattice vectors                 reciprocal lattice vectors
     3.661094950  0.000000000  0.000000000     0.273142329  0.000000000  0.000000000
     0.000000000  3.661094950  0.000000000     0.000000000  0.273142329  0.000000000
     0.000000000  0.000000000  3.661094950     0.000000000  0.000000000  0.273142329

  length of vectors
     3.661094950  3.661094950  3.661094950     0.273142329  0.273142329  0.273142329


 
 k-points in units of 2pi/SCALE and weight: kpt_density=1000                        
   0.00000000  0.00000000  0.00000000       0.001
   0.02286561  0.00000000  0.00000000       0.003
   0.04573122  0.00000000  0.00000000       0.003
   0.06859684  0.00000000  0.00000000       0.003
   0.09146245  0.00000000  0.00000000       0.003
   0.11432806  0.00000000  0.00000000       0.003
   0.13719367  0.00000000  0.00000000       0.002
   0.02286561  0.02286561  0.00000000       0.007
   0.04573122  0.02286561  0.00000000       0.014
   0.06859684  0.02286561  0.00000000       0.014
   0.09146245  0.02286561  0.00000000       0.014
   0.11432806  0.02286561  0.00000000       0.014
   0.13719367  0.02286561  0.00000000       0.007
   0.04573122  0.04573122  0.00000000       0.007
   0.06859684  0.04573122  0.00000000       0.014
   0.09146245  0.04573122  0.00000000       0.014
   0.11432806  0.04573122  0.00000000       0.014
   0.13719367  0.04573122  0.00000000       0.007
   0.06859684  0.06859684  0.00000000       0.007
   0.09146245  0.06859684  0.00000000       0.014
   0.11432806  0.06859684  0.00000000       0.014
   0.13719367  0.06859684  0.00000000       0.007
   0.09146245  0.09146245  0.00000000       0.007
   0.11432806  0.09146245  0.00000000       0.014
   0.13719367  0.09146245  0.00000000       0.007
   0.11432806  0.11432806  0.00000000       0.007
   0.13719367  0.11432806  0.00000000       0.007
   0.13719367  0.13719367  0.00000000       0.002
   0.02286561  0.02286561  0.02286561       0.005
   0.04573122  0.02286561  0.02286561       0.014
   0.06859684  0.02286561  0.02286561       0.014
   0.09146245  0.02286561  0.02286561       0.014
   0.11432806  0.02286561  0.02286561       0.014
   0.13719367  0.02286561  0.02286561       0.007
   0.04573122  0.04573122  0.02286561       0.014
   0.06859684  0.04573122  0.02286561       0.028
   0.09146245  0.04573122  0.02286561       0.028
   0.11432806  0.04573122  0.02286561       0.028
   0.13719367  0.04573122  0.02286561       0.014
   0.06859684  0.06859684  0.02286561       0.014
   0.09146245  0.06859684  0.02286561       0.028
   0.11432806  0.06859684  0.02286561       0.028
   0.13719367  0.06859684  0.02286561       0.014
   0.09146245  0.09146245  0.02286561       0.014
   0.11432806  0.09146245  0.02286561       0.028
   0.13719367  0.09146245  0.02286561       0.014
   0.11432806  0.11432806  0.02286561       0.014
   0.13719367  0.11432806  0.02286561       0.014
   0.13719367  0.13719367  0.02286561       0.003
   0.04573122  0.04573122  0.04573122       0.005
   0.06859684  0.04573122  0.04573122       0.014
   0.09146245  0.04573122  0.04573122       0.014
   0.11432806  0.04573122  0.04573122       0.014
   0.13719367  0.04573122  0.04573122       0.007
   0.06859684  0.06859684  0.04573122       0.014
   0.09146245  0.06859684  0.04573122       0.028
   0.11432806  0.06859684  0.04573122       0.028
   0.13719367  0.06859684  0.04573122       0.014
   0.09146245  0.09146245  0.04573122       0.014
   0.11432806  0.09146245  0.04573122       0.028
   0.13719367  0.09146245  0.04573122       0.014
   0.11432806  0.11432806  0.04573122       0.014
   0.13719367  0.11432806  0.04573122       0.014
   0.13719367  0.13719367  0.04573122       0.003
   0.06859684  0.06859684  0.06859684       0.005
   0.09146245  0.06859684  0.06859684       0.014
   0.11432806  0.06859684  0.06859684       0.014
   0.13719367  0.06859684  0.06859684       0.007
   0.09146245  0.09146245  0.06859684       0.014
   0.11432806  0.09146245  0.06859684       0.028
   0.13719367  0.09146245  0.06859684       0.014
   0.11432806  0.11432806  0.06859684       0.014
   0.13719367  0.11432806  0.06859684       0.014
   0.13719367  0.13719367  0.06859684       0.003
   0.09146245  0.09146245  0.09146245       0.005
   0.11432806  0.09146245  0.09146245       0.014
   0.13719367  0.09146245  0.09146245       0.007
   0.11432806  0.11432806  0.09146245       0.014
   0.13719367  0.11432806  0.09146245       0.014
   0.13719367  0.13719367  0.09146245       0.003
   0.11432806  0.11432806  0.11432806       0.005
   0.13719367  0.11432806  0.11432806       0.007
   0.13719367  0.13719367  0.11432806       0.003
   0.13719367  0.13719367  0.13719367       0.001
 
 k-points in reciprocal lattice and weights: kpt_density=1000                        
   0.00000000  0.00000000  0.00000000       0.001
   0.08333333  0.00000000  0.00000000       0.003
   0.16666667  0.00000000  0.00000000       0.003
   0.25000000  0.00000000  0.00000000       0.003
   0.33333333  0.00000000  0.00000000       0.003
   0.41666667  0.00000000  0.00000000       0.003
   0.50000000  0.00000000  0.00000000       0.002
   0.08333333  0.08333333  0.00000000       0.007
   0.16666667  0.08333333  0.00000000       0.014
   0.25000000  0.08333333  0.00000000       0.014
   0.33333333  0.08333333  0.00000000       0.014
   0.41666667  0.08333333  0.00000000       0.014
   0.50000000  0.08333333  0.00000000       0.007
   0.16666667  0.16666667  0.00000000       0.007
   0.25000000  0.16666667  0.00000000       0.014
   0.33333333  0.16666667  0.00000000       0.014
   0.41666667  0.16666667  0.00000000       0.014
   0.50000000  0.16666667  0.00000000       0.007
   0.25000000  0.25000000  0.00000000       0.007
   0.33333333  0.25000000  0.00000000       0.014
   0.41666667  0.25000000  0.00000000       0.014
   0.50000000  0.25000000  0.00000000       0.007
   0.33333333  0.33333333  0.00000000       0.007
   0.41666667  0.33333333  0.00000000       0.014
   0.50000000  0.33333333  0.00000000       0.007
   0.41666667  0.41666667  0.00000000       0.007
   0.50000000  0.41666667  0.00000000       0.007
   0.50000000  0.50000000  0.00000000       0.002
   0.08333333  0.08333333  0.08333333       0.005
   0.16666667  0.08333333  0.08333333       0.014
   0.25000000  0.08333333  0.08333333       0.014
   0.33333333  0.08333333  0.08333333       0.014
   0.41666667  0.08333333  0.08333333       0.014
   0.50000000  0.08333333  0.08333333       0.007
   0.16666667  0.16666667  0.08333333       0.014
   0.25000000  0.16666667  0.08333333       0.028
   0.33333333  0.16666667  0.08333333       0.028
   0.41666667  0.16666667  0.08333333       0.028
   0.50000000  0.16666667  0.08333333       0.014
   0.25000000  0.25000000  0.08333333       0.014
   0.33333333  0.25000000  0.08333333       0.028
   0.41666667  0.25000000  0.08333333       0.028
   0.50000000  0.25000000  0.08333333       0.014
   0.33333333  0.33333333  0.08333333       0.014
   0.41666667  0.33333333  0.08333333       0.028
   0.50000000  0.33333333  0.08333333       0.014
   0.41666667  0.41666667  0.08333333       0.014
   0.50000000  0.41666667  0.08333333       0.014
   0.50000000  0.50000000  0.08333333       0.003
   0.16666667  0.16666667  0.16666667       0.005
   0.25000000  0.16666667  0.16666667       0.014
   0.33333333  0.16666667  0.16666667       0.014
   0.41666667  0.16666667  0.16666667       0.014
   0.50000000  0.16666667  0.16666667       0.007
   0.25000000  0.25000000  0.16666667       0.014
   0.33333333  0.25000000  0.16666667       0.028
   0.41666667  0.25000000  0.16666667       0.028
   0.50000000  0.25000000  0.16666667       0.014
   0.33333333  0.33333333  0.16666667       0.014
   0.41666667  0.33333333  0.16666667       0.028
   0.50000000  0.33333333  0.16666667       0.014
   0.41666667  0.41666667  0.16666667       0.014
   0.50000000  0.41666667  0.16666667       0.014
   0.50000000  0.50000000  0.16666667       0.003
   0.25000000  0.25000000  0.25000000       0.005
   0.33333333  0.25000000  0.25000000       0.014
   0.41666667  0.25000000  0.25000000       0.014
   0.50000000  0.25000000  0.25000000       0.007
   0.33333333  0.33333333  0.25000000       0.014
   0.41666667  0.33333333  0.25000000       0.028
   0.50000000  0.33333333  0.25000000       0.014
   0.41666667  0.41666667  0.25000000       0.014
   0.50000000  0.41666667  0.25000000       0.014
   0.50000000  0.50000000  0.25000000       0.003
   0.33333333  0.33333333  0.33333333       0.005
   0.41666667  0.33333333  0.33333333       0.014
   0.50000000  0.33333333  0.33333333       0.007
   0.41666667  0.41666667  0.33333333       0.014
   0.50000000  0.41666667  0.33333333       0.014
   0.50000000  0.50000000  0.33333333       0.003
   0.41666667  0.41666667  0.41666667       0.005
   0.50000000  0.41666667  0.41666667       0.007
   0.50000000  0.50000000  0.41666667       0.003
   0.50000000  0.50000000  0.50000000       0.001
 
 position of ions in fractional coordinates (direct lattice) 
   0.25000000  0.75000000  0.25000000
   0.00000000  0.00000000  0.50000000
   0.25000000  0.25000000  0.75000000
   0.00000000  0.50000000  0.00000000
   0.75000000  0.75000000  0.75000000
   0.50000000  0.00000000  0.00000000
   0.75000000  0.25000000  0.25000000
   0.50000000  0.50000000  0.50000000
 
 position of ions in cartesian coordinates  (Angst):
   0.91527374  2.74582121  0.91527374
   0.00000000  0.00000000  1.83054747
   0.91527374  0.91527374  2.74582121
   0.00000000  1.83054747  0.00000000
   2.74582121  2.74582121  2.74582121
   1.83054747  0.00000000  0.00000000
   2.74582121  0.91527374  0.91527374
   1.83054747  1.83054747  1.83054747
 


--------------------------------------------------------------------------------------------------------


 k-point  1 :   0.0000 0.0000 0.0000  plane waves:     895
 k-point  2 :   0.0833 0.0000 0.0000  plane waves:     896
 k-point  3 :   0.1667 0.0000 0.0000  plane waves:     892
 k-point  4 :   0.2500 0.0000 0.0000  plane waves:     900
 k-point  5 :   0.3333 0.0000 0.0000  plane waves:     868
 k-point  6 :   0.4167 0.0000 0.0000  plane waves:     872
 k-point  7 :   0.5000 0.0000 0.0000  plane waves:     884
 k-point  8 :   0.0833 0.0833 0.0000  plane waves:     887
 k-point  9 :   0.1667 0.0833 0.0000  plane waves:     885
 k-point 10 :   0.2500 0.0833 0.0000  plane waves:     885
 k-point 11 :   0.3333 0.0833 0.0000  plane waves:     885
 k-point 12 :   0.4167 0.0833 0.0000  plane waves:     879
 k-point 13 :   0.5000 0.0833 0.0000  plane waves:     888
 k-point 14 :   0.1667 0.1667 0.0000  plane waves:     881
 k-point 15 :   0.2500 0.1667 0.0000  plane waves:     891
 k-point 16 :   0.3333 0.1667 0.0000  plane waves:     885
 k-point 17 :   0.4167 0.1667 0.0000  plane waves:     887
 k-point 18 :   0.5000 0.1667 0.0000  plane waves:     886
 k-point 19 :   0.2500 0.2500 0.0000  plane waves:     892
 k-point 20 :   0.3333 0.2500 0.0000  plane waves:     884
 k-point 21 :   0.4167 0.2500 0.0000  plane waves:     887
 k-point 22 :   0.5000 0.2500 0.0000  plane waves:     884
 k-point 23 :   0.3333 0.3333 0.0000  plane waves:     886
 k-point 24 :   0.4167 0.3333 0.0000  plane waves:     897
 k-point 25 :   0.5000 0.3333 0.0000  plane waves:     890
 k-point 26 :   0.4167 0.4167 0.0000  plane waves:     890
 k-point 27 :   0.5000 0.4167 0.0000  plane waves:     886
 k-point 28 :   0.5000 0.5000 0.0000  plane waves:     888
 k-point 29 :   0.0833 0.0833 0.0833  plane waves:     889
 k-point 30 :   0.1667 0.0833 0.0833  plane waves:     889
 k-point 31 :   0.2500 0.0833 0.0833  plane waves:     889
 k-point 32 :   0.3333 0.0833 0.0833  plane waves:     887
 k-point 33 :   0.4167 0.0833 0.0833  plane waves:     879
 k-point 34 :   0.5000 0.0833 0.0833  plane waves:     884
 k-point 35 :   0.1667 0.1667 0.0833  plane waves:     890
 k-point 36 :   0.2500 0.1667 0.0833  plane waves:     892
 k-point 37 :   0.3333 0.1667 0.0833  plane waves:     884
 k-point 38 :   0.4167 0.1667 0.0833  plane waves:     886
 k-point 39 :   0.5000 0.1667 0.0833  plane waves:     890
 k-point 40 :   0.2500 0.2500 0.0833  plane waves:     886
 k-point 41 :   0.3333 0.2500 0.0833  plane waves:     884
 k-point 42 :   0.4167 0.2500 0.0833  plane waves:     894
 k-point 43 :   0.5000 0.2500 0.0833  plane waves:     890
 k-point 44 :   0.3333 0.3333 0.0833  plane waves:     889
 k-point 45 :   0.4167 0.3333 0.0833  plane waves:     897
 k-point 46 :   0.5000 0.3333 0.0833  plane waves:     892
 k-point 47 :   0.4167 0.4167 0.0833  plane waves:     891
 k-point 48 :   0.5000 0.4167 0.0833  plane waves:     892
 k-point 49 :   0.5000 0.5000 0.0833  plane waves:     884
 k-point 50 :   0.1667 0.1667 0.1667  plane waves:     898
 k-point 51 :   0.2500 0.1667 0.1667  plane waves:     896
 k-point 52 :   0.3333 0.1667 0.1667  plane waves:     891
 k-point 53 :   0.4167 0.1667 0.1667  plane waves:     890
 k-point 54 :   0.5000 0.1667 0.1667  plane waves:     904
 k-point 55 :   0.2500 0.2500 0.1667  plane waves:     883
 k-point 56 :   0.3333 0.2500 0.1667  plane waves:     888
 k-point 57 :   0.4167 0.2500 0.1667  plane waves:     895
 k-point 58 :   0.5000 0.2500 0.1667  plane waves:     896
 k-point 59 :   0.3333 0.3333 0.1667  plane waves:     896
 k-point 60 :   0.4167 0.3333 0.1667  plane waves:     893
 k-point 61 :   0.5000 0.3333 0.1667  plane waves:     892
 k-point 62 :   0.4167 0.4167 0.1667  plane waves:     888
 k-point 63 :   0.5000 0.4167 0.1667  plane waves:     898
 k-point 64 :   0.5000 0.5000 0.1667  plane waves:     884
 k-point 65 :   0.2500 0.2500 0.2500  plane waves:     886
 k-point 66 :   0.3333 0.2500 0.2500  plane waves:     894
 k-point 67 :   0.4167 0.2500 0.2500  plane waves:     902
 k-point 68 :   0.5000 0.2500 0.2500  plane waves:     904
 k-point 69 :   0.3333 0.3333 0.2500  plane waves:     902
 k-point 70 :   0.4167 0.3333 0.2500  plane waves:     899
 k-point 71 :   0.5000 0.3333 0.2500  plane waves:     900
 k-point 72 :   0.4167 0.4167 0.2500  plane waves:     900
 k-point 73 :   0.5000 0.4167 0.2500  plane waves:     892
 k-point 74 :   0.5000 0.5000 0.2500  plane waves:     912
 k-point 75 :   0.3333 0.3333 0.3333  plane waves:     892
 k-point 76 :   0.4167 0.3333 0.3333  plane waves:     903
 k-point 77 :   0.5000 0.3333 0.3333  plane waves:     900
 k-point 78 :   0.4167 0.4167 0.3333  plane waves:     911
 k-point 79 :   0.5000 0.4167 0.3333  plane waves:     900
 k-point 80 :   0.5000 0.5000 0.3333  plane waves:     904
 k-point 81 :   0.4167 0.4167 0.4167  plane waves:     904
 k-point 82 :   0.5000 0.4167 0.4167  plane waves:     906
 k-point 83 :   0.5000 0.5000 0.4167  plane waves:     908
 k-point 84 :   0.5000 0.5000 0.5000  plane waves:     912

 maximum and minimum number of plane-waves per node :       242      207

 maximum number of plane-waves:       912
 maximum index in each direction: 
   IXMAX=    5   IYMAX=    5   IZMAX=    5
   IXMIN=   -6   IYMIN=   -6   IZMIN=   -6


 parallel 3D FFT for wavefunctions:
    minimum data exchange during FFTs selected (reduces bandwidth)
 parallel 3D FFT for charge:
    minimum data exchange during FFTs selected (reduces bandwidth)


 total amount of memory used by VASP MPI-rank0    34107. kBytes
=======================================================================

   base      :      30000. kBytes
   nonl-proj :       1276. kBytes
   fftplans  :        345. kBytes
   grid      :        481. kBytes
   one-center:          6. kBytes
   wavefun   :       1999. kBytes
 
     INWAV:  cpu time    0.0004: real time    0.0061
 Broyden mixing: mesh for mixing (old mesh)
   NGX = 11   NGY = 11   NGZ = 11
  (NGX  = 48   NGY  = 48   NGZ  = 48)
  gives a total of   1331 points

 initial charge density was supplied:
 charge density of overlapping atoms calculated
 number of electron      32.0000000 magnetization 
 keeping initial charge density in first step


--------------------------------------------------------------------------------------------------------


 Maximum index for augmentation-charges          261 (set IRDMAX)


--------------------------------------------------------------------------------------------------------


 First call to EWALD:  gamma=   0.484
 Maximum number of real-space cells 3x 3x 3
 Maximum number of reciprocal cells 3x 3x 3

    FEWALD:  cpu time    0.0057: real time    0.0057


--------------------------------------- Iteration      1(   1)  ---------------------------------------


    POTLOK:  cpu time    0.0277: real time    0.1839
    SETDIJ:  cpu time    0.0065: real time    0.0065
     EDDAV:  cpu time    4.2260: real time    4.2357
 BZINTS: Fermi energy: 17.333627; 32.000000 electrons
         Band energy: 104.458077;  BLOECHL correction: -0.175312
       DOS:  cpu time    0.1702: real time    0.1703
    --------------------------------------------
      LOOP:  cpu time    4.4305: real time    4.5964

 eigenvalue-minimisations  :  4032
 total energy-change (2. order) : 0.5749082E+02  (-0.1425528E+04)
 number of electron      32.0000000 magnetization 
 augmentation part       32.0000000 magnetization 

 Free energy of the ion-electron system (eV)
  ---------------------------------------------------
  alpha Z        PSCENC =       106.26711524
  Ewald energy   TEWEN  =     -1355.98775982
  -Hartree energ DENC   =       -77.50453977
  -exchange      EXHF   =         0.00000000
  -V(xc)+E(xc)   XCENC  =       112.44397735
  PAW double counting   =       302.65154477     -311.85538214
  entropy T*S    EENTRO =         0.00000000
  eigenvalues    EBANDS =       104.45807698
  atomic energy  EATOM  =      1177.01779097
  Solvation  Ediel_sol  =         0.00000000
  ---------------------------------------------------
  free energy    TOTEN  =        57.49082360 eV

  energy without entropy =       57.49082360  energy(sigma->0) =       57.49082360


--------------------------------------------------------------------------------------------------------




--------------------------------------- Iteration      1(   2)  ---------------------------------------


     EDDAV:  cpu time    5.2122: real time    5.2148
 BZINTS: Fermi energy:  8.017398; 32.000000 electrons
         Band energy: -23.193288;  BLOECHL correction:  0.000000
       DOS:  cpu time    0.0459: real time    0.0459
    --------------------------------------------
      LOOP:  cpu time    5.2581: real time    5.2607

 eigenvalue-minimisations  :  5624
 total energy-change (2. order) :-0.1276514E+03  (-0.1211925E+03)
 number of electron      32.0000000 magnetization 
 augmentation part       32.0000000 magnetization 

 Free energy of the ion-electron system (eV)
  ---------------------------------------------------
  alpha Z        PSCENC =       106.26711524
  Ewald energy   TEWEN  =     -1355.98775982
  -Hartree energ DENC   =       -77.50453977
  -exchange      EXHF   =         0.00000000
  -V(xc)+E(xc)   XCENC  =       112.44397735
  PAW double counting   =       302.65154477     -311.85538214
  entropy T*S    EENTRO =         0.00000000
  eigenvalues    EBANDS =       -23.19328772
  atomic energy  EATOM  =      1177.01779097
  Solvation  Ediel_sol  =         0.00000000
  ---------------------------------------------------
  free energy    TOTEN  =       -70.16054111 eV

  energy without entropy =      -70.16054111  energy(sigma->0) =      -70.16054111


--------------------------------------------------------------------------------------------------------




--------------------------------------- Iteration      1(   3)  ---------------------------------------


     EDDAV:  cpu time    4.9158: real time    4.9160
 BZINTS: Fermi energy:  7.487171; 32.000000 electrons
         Band energy: -27.387351;  BLOECHL correction:  0.000000
       DOS:  cpu time    0.0412: real time    0.0412
    --------------------------------------------
      LOOP:  cpu time    4.9569: real time    4.9572

 eigenvalue-minimisations  :  5160
 total energy-change (2. order) :-0.4194063E+01  (-0.4174651E+01)
 number of electron      32.0000000 magnetization 
 augmentation part       32.0000000 magnetization 

 Free energy of the ion-electron system (eV)
  ---------------------------------------------------
  alpha Z        PSCENC =       106.26711524
  Ewald energy   TEWEN  =     -1355.98775982
  -Hartree energ DENC   =       -77.50453977
  -exchange      EXHF   =         0.00000000
  -V(xc)+E(xc)   XCENC  =       112.44397735
  PAW double counting   =       302.65154477     -311.85538214
  entropy T*S    EENTRO =         0.00000000
  eigenvalues    EBANDS =       -27.38735099
  atomic energy  EATOM  =      1177.01779097
  Solvation  Ediel_sol  =         0.00000000
  ---------------------------------------------------
  free energy    TOTEN  =       -74.35460437 eV

  energy without entropy =      -74.35460437  energy(sigma->0) =      -74.35460437


--------------------------------------------------------------------------------------------------------




--------------------------------------- Iteration      1(   4)  ---------------------------------------


     EDDAV:  cpu time    5.0671: real time    5.0673
 BZINTS: Fermi energy:  7.467873; 32.000000 electrons
         Band energy: -27.432095;  BLOECHL correction:  0.000000
       DOS:  cpu time    0.0411: real time    0.0411
    --------------------------------------------
      LOOP:  cpu time    5.1082: real time    5.1085

 eigenvalue-minimisations  :  5232
 total energy-change (2. order) :-0.4474450E-01  (-0.4469557E-01)
 number of electron      32.0000000 magnetization 
 augmentation part       32.0000000 magnetization 

 Free energy of the ion-electron system (eV)
  ---------------------------------------------------
  alpha Z        PSCENC =       106.26711524
  Ewald energy   TEWEN  =     -1355.98775982
  -Hartree energ DENC   =       -77.50453977
  -exchange      EXHF   =         0.00000000
  -V(xc)+E(xc)   XCENC  =       112.44397735
  PAW double counting   =       302.65154477     -311.85538214
  entropy T*S    EENTRO =         0.00000000
  eigenvalues    EBANDS =       -27.43209548
  atomic energy  EATOM  =      1177.01779097
  Solvation  Ediel_sol  =         0.00000000
  ---------------------------------------------------
  free energy    TOTEN  =       -74.39934887 eV

  energy without entropy =      -74.39934887  energy(sigma->0) =      -74.39934887


--------------------------------------------------------------------------------------------------------




--------------------------------------- Iteration      1(   5)  ---------------------------------------


     EDDAV:  cpu time    4.9463: real time    4.9466
 BZINTS: Fermi energy:  7.446470; 32.000000 electrons
         Band energy: -27.433016;  BLOECHL correction:  0.000000
       DOS:  cpu time    0.0364: real time    0.0364
    CHARGE:  cpu time    0.1312: real time    0.1312
    MIXING:  cpu time    0.0016: real time    0.0016
    --------------------------------------------
      LOOP:  cpu time    5.1156: real time    5.1159

 eigenvalue-minimisations  :  5088
 total energy-change (2. order) :-0.9207731E-03  (-0.9204298E-03)
 number of electron      32.0000021 magnetization 
 augmentation part        0.7265172 magnetization 

 Broyden mixing:
  rms(total) = 0.86375E+00    rms(broyden)= 0.86358E+00
  rms(prec ) = 0.20034E+01
  weight for this iteration     100.00

 Free energy of the ion-electron system (eV)
  ---------------------------------------------------
  alpha Z        PSCENC =       106.26711524
  Ewald energy   TEWEN  =     -1355.98775982
  -Hartree energ DENC   =       -77.50453977
  -exchange      EXHF   =         0.00000000
  -V(xc)+E(xc)   XCENC  =       112.44397735
  PAW double counting   =       302.65154477     -311.85538214
  entropy T*S    EENTRO =         0.00000000
  eigenvalues    EBANDS =       -27.43301626
  atomic energy  EATOM  =      1177.01779097
  Solvation  Ediel_sol  =         0.00000000
  ---------------------------------------------------
  free energy    TOTEN  =       -74.40026964 eV

  energy without entropy =      -74.40026964  energy(sigma->0) =      -74.40026964


--------------------------------------------------------------------------------------------------------




--------------------------------------- Iteration      1(   6)  ---------------------------------------


    POTLOK:  cpu time    0.0199: real time    0.0199
    SETDIJ:  cpu time    0.0059: real time    0.0059
     EDDAV:  cpu time    4.6728: real time    4.6731
 BZINTS: Fermi energy:  8.016987; 32.000000 electrons
         Band energy: -12.753084;  BLOECHL correction:  0.000000
       DOS:  cpu time    0.0368: real time    0.0368
    CHARGE:  cpu time    0.1326: real time    0.1326
    MIXING:  cpu time    0.0017: real time    0.0017
    --------------------------------------------
      LOOP:  cpu time    4.8698: real time    4.8701

 eigenvalue-minimisations  :  4712
 total energy-change (2. order) : 0.1474826E+01  (-0.9932056E-01)
 number of electron      32.0000020 magnetization 
 augmentation part        0.7112340 magnetization 

 Broyden mixing:
  rms(total) = 0.47999E+00    rms(broyden)= 0.47997E+00
  rms(prec ) = 0.10946E+01
  weight for this iteration     100.00

 eigenvalues of (default mixing * dielectric matrix)
  average eigenvalue GAMMA=   2.1977
  2.1977

 Free energy of the ion-electron system (eV)
  ---------------------------------------------------
  alpha Z        PSCENC =       106.26711524
  Ewald energy   TEWEN  =     -1355.98775982
  -Hartree energ DENC   =       -91.57338110
  -exchange      EXHF   =         0.00000000
  -V(xc)+E(xc)   XCENC  =       113.75049261
  PAW double counting   =       380.01474998     -389.66136788
  entropy T*S    EENTRO =         0.00000000
  eigenvalues    EBANDS =       -12.75308408
  atomic energy  EATOM  =      1177.01779097
  Solvation  Ediel_sol  =         0.00000000
  ---------------------------------------------------
  free energy    TOTEN  =       -72.92544406 eV

  energy without entropy =      -72.92544406  energy(sigma->0) =      -72.92544406


--------------------------------------------------------------------------------------------------------




--------------------------------------- Iteration      1(   7)  ---------------------------------------


    POTLOK:  cpu time    0.0199: real time    0.0199
    SETDIJ:  cpu time    0.0057: real time    0.0057
     EDDAV:  cpu time    4.6869: real time    4.6872
 BZINTS: Fermi energy:  8.682943; 32.000000 electrons
         Band energy:   4.502597;  BLOECHL correction:  0.000000
       DOS:  cpu time    0.0365: real time    0.0365
    CHARGE:  cpu time    0.1328: real time    0.1328
    MIXING:  cpu time    0.0018: real time    0.0018
    --------------------------------------------
      LOOP:  cpu time    4.8837: real time    4.8840

 eigenvalue-minimisations  :  4728
 total energy-change (2. order) : 0.4992737E+00  (-0.1147911E+00)
 number of electron      32.0000020 magnetization 
 augmentation part        0.6948335 magnetization 

 Broyden mixing:
  rms(total) = 0.67128E-01    rms(broyden)= 0.66808E-01
  rms(prec ) = 0.11679E+00
  weight for this iteration     100.00

 eigenvalues of (default mixing * dielectric matrix)
  average eigenvalue GAMMA=   2.2654
  1.9993  2.5315

 Free energy of the ion-electron system (eV)
  ---------------------------------------------------
  alpha Z        PSCENC =       106.26711524
  Ewald energy   TEWEN  =     -1355.98775982
  -Hartree energ DENC   =      -109.61354840
  -exchange      EXHF   =         0.00000000
  -V(xc)+E(xc)   XCENC  =       115.45125578
  PAW double counting   =       483.99865227     -494.06227370
  entropy T*S    EENTRO =         0.00000000
  eigenvalues    EBANDS =         4.50259733
  atomic energy  EATOM  =      1177.01779097
  Solvation  Ediel_sol  =         0.00000000
  ---------------------------------------------------
  free energy    TOTEN  =       -72.42617032 eV

  energy without entropy =      -72.42617032  energy(sigma->0) =      -72.42617032


--------------------------------------------------------------------------------------------------------




--------------------------------------- Iteration      1(   8)  ---------------------------------------


    POTLOK:  cpu time    0.0214: real time    0.0214
    SETDIJ:  cpu time    0.0056: real time    0.0056
     EDDAV:  cpu time    4.9467: real time    4.9469
 BZINTS: Fermi energy:  8.680536; 32.000000 electrons
         Band energy:   4.748373;  BLOECHL correction:  0.000000
       DOS:  cpu time    0.0366: real time    0.0366
    CHARGE:  cpu time    0.1294: real time    0.1294
    MIXING:  cpu time    0.0020: real time    0.0020
    --------------------------------------------
      LOOP:  cpu time    5.1416: real time    5.1419

 eigenvalue-minimisations  :  5208
 total energy-change (2. order) :-0.6534762E-02  (-0.2344922E-02)
 number of electron      32.0000020 magnetization 
 augmentation part        0.6955397 magnetization 

 Broyden mixing:
  rms(total) = 0.75795E-02    rms(broyden)= 0.74893E-02
  rms(prec ) = 0.13117E-01
  weight for this iteration     100.00

 eigenvalues of (default mixing * dielectric matrix)
  average eigenvalue GAMMA=   2.1027
  1.4533  2.6738  2.1808

 Free energy of the ion-electron system (eV)
  ---------------------------------------------------
  alpha Z        PSCENC =       106.26711524
  Ewald energy   TEWEN  =     -1355.98775982
  -Hartree energ DENC   =      -110.02901691
  -exchange      EXHF   =         0.00000000
  -V(xc)+E(xc)   XCENC  =       115.49273743
  PAW double counting   =       490.03404442     -499.97598960
  entropy T*S    EENTRO =         0.00000000
  eigenvalues    EBANDS =         4.74837319
  atomic energy  EATOM  =      1177.01779097
  Solvation  Ediel_sol  =         0.00000000
  ---------------------------------------------------
  free energy    TOTEN  =       -72.43270508 eV

  energy without entropy =      -72.43270508  energy(sigma->0) =      -72.43270508


--------------------------------------------------------------------------------------------------------




--------------------------------------- Iteration      1(   9)  ---------------------------------------


    POTLOK:  cpu time    0.0201: real time    0.0201
    SETDIJ:  cpu time    0.0058: real time    0.0058
     EDDAV:  cpu time    4.7341: real time    4.7344
 BZINTS: Fermi energy:  8.675266; 32.000000 electrons
         Band energy:   4.647213;  BLOECHL correction:  0.000000
       DOS:  cpu time    0.0368: real time    0.0368
    CHARGE:  cpu time    0.1277: real time    0.1278
    MIXING:  cpu time    0.0021: real time    0.0020
    --------------------------------------------
      LOOP:  cpu time    4.9266: real time    4.9269

 eigenvalue-minimisations  :  4888
 total energy-change (2. order) :-0.2287000E-03  (-0.4294306E-04)
 number of electron      32.0000020 magnetization 
 augmentation part        0.6954826 magnetization 

 Broyden mixing:
  rms(total) = 0.27250E-02    rms(broyden)= 0.27190E-02
  rms(prec ) = 0.49061E-02
  weight for this iteration     100.00

 eigenvalues of (default mixing * dielectric matrix)
  average eigenvalue GAMMA=   2.0632
  0.9797  2.7925  2.4878  1.9927

 Free energy of the ion-electron system (eV)
  ---------------------------------------------------
  alpha Z        PSCENC =       106.26711524
  Ewald energy   TEWEN  =     -1355.98775982
  -Hartree energ DENC   =      -109.93174841
  -exchange      EXHF   =         0.00000000
  -V(xc)+E(xc)   XCENC  =       115.48328197
  PAW double counting   =       489.22363288     -499.15245926
  entropy T*S    EENTRO =         0.00000000
  eigenvalues    EBANDS =         4.64721264
  atomic energy  EATOM  =      1177.01779097
  Solvation  Ediel_sol  =         0.00000000
  ---------------------------------------------------
  free energy    TOTEN  =       -72.43293378 eV

  energy without entropy =      -72.43293378  energy(sigma->0) =      -72.43293378


--------------------------------------------------------------------------------------------------------




--------------------------------------- Iteration      1(  10)  ---------------------------------------


    POTLOK:  cpu time    0.0201: real time    0.0201
    SETDIJ:  cpu time    0.0059: real time    0.0059
     EDDAV:  cpu time    4.8874: real time    4.8876
 BZINTS: Fermi energy:  8.675083; 32.000000 electrons
         Band energy:   4.687085;  BLOECHL correction:  0.000000
       DOS:  cpu time    0.0366: real time    0.0366
    CHARGE:  cpu time    0.1352: real time    0.1352
    MIXING:  cpu time    0.0023: real time    0.0023
    --------------------------------------------
      LOOP:  cpu time    5.0875: real time    5.0877

 eigenvalue-minimisations  :  5104
 total energy-change (2. order) :-0.5821182E-04  (-0.5458996E-05)
 number of electron      32.0000020 magnetization 
 augmentation part        0.6954557 magnetization 

 Broyden mixing:
  rms(total) = 0.25889E-03    rms(broyden)= 0.25442E-03
  rms(prec ) = 0.60150E-03
  weight for this iteration     100.00

 eigenvalues of (default mixing * dielectric matrix)
  average eigenvalue GAMMA=   1.9721
  2.9483  2.5578  2.0677  0.9877  1.2990

 Free energy of the ion-electron system (eV)
  ---------------------------------------------------
  alpha Z        PSCENC =       106.26711524
  Ewald energy   TEWEN  =     -1355.98775982
  -Hartree energ DENC   =      -109.97374106
  -exchange      EXHF   =         0.00000000
  -V(xc)+E(xc)   XCENC  =       115.48689909
  PAW double counting   =       488.77242435     -498.70280556
  entropy T*S    EENTRO =         0.00000000
  eigenvalues    EBANDS =         4.68708478
  atomic energy  EATOM  =      1177.01779097
  Solvation  Ediel_sol  =         0.00000000
  ---------------------------------------------------
  free energy    TOTEN  =       -72.43299199 eV

  energy without entropy =      -72.43299199  energy(sigma->0) =      -72.43299199


--------------------------------------------------------------------------------------------------------




--------------------------------------- Iteration      1(  11)  ---------------------------------------


    POTLOK:  cpu time    0.0210: real time    0.0210
    SETDIJ:  cpu time    0.0057: real time    0.0057
     EDDAV:  cpu time    4.1316: real time    4.1318
 BZINTS: Fermi energy:  8.675002; 32.000000 electrons
         Band energy:   4.699526;  BLOECHL correction:  0.000000
       DOS:  cpu time    0.0365: real time    0.0365
    --------------------------------------------
      LOOP:  cpu time    4.1947: real time    4.1950

 eigenvalue-minimisations  :  3760
 total energy-change (2. order) :-0.4667252E-06  (-0.1140332E-06)
 number of electron      32.0000020 magnetization 
 augmentation part        0.6954557 magnetization 

 Free energy of the ion-electron system (eV)
  ---------------------------------------------------
  alpha Z        PSCENC =       106.26711524
  Ewald energy   TEWEN  =     -1355.98775982
  -Hartree energ DENC   =      -109.98676086
  -exchange      EXHF   =         0.00000000
  -V(xc)+E(xc)   XCENC  =       115.48811040
  PAW double counting   =       488.80998801     -498.74100207
  entropy T*S    EENTRO =         0.00000000
  eigenvalues    EBANDS =         4.69952566
  atomic energy  EATOM  =      1177.01779097
  Solvation  Ediel_sol  =         0.00000000
  ---------------------------------------------------
  free energy    TOTEN  =       -72.43299246 eV

  energy without entropy =      -72.43299246  energy(sigma->0) =      -72.43299246


--------------------------------------------------------------------------------------------------------




 average (electrostatic) potential at core
  the test charge radii are     0.6991
  (the norm of the test charge is              1.0000)
       1 -46.4983       2 -46.4983       3 -46.4983       4 -46.4983       5 -46.4983
       6 -46.4983       7 -46.4983       8 -46.4983
 
 
 
 E-fermi :   8.6750     XC(G=0): -12.8349     alpha+bet :-16.3662


 k-point     1 :       0.0000    0.0000    0.0000
  band No.  band energies     occupation 
      1     -11.8008      2.00000
      2      -3.5792      2.00000
      3      -3.5792      2.00000
      4      -3.5792      2.00000
      5      -3.5792      2.00000
      6      -3.5792      2.00000
      7      -3.5792      2.00000
      8       2.8181      2.00000
      9       2.8181      2.00000
     10       2.8181      2.00000
     11       2.8181      2.00000
     12       2.8181      2.00000
     13       2.8181      2.00000
     14       8.6746      2.00000
     15       8.6746      2.00000
     16       8.6746      2.00000
     17      13.2492      0.00000
     18      13.2492      0.00000
     19      13.2492      0.00000
     20      13.2492      0.00000
     21      13.2492      0.00000
     22      13.2492      0.00000
     23      14.0335      0.00000
     24      14.0335      0.00000

 k-point     2 :       0.0833    0.0000    0.0000
  band No.  band energies     occupation 
      1     -11.7401      2.00000
      2      -4.8034      2.00000
      3      -3.5432      2.00000
      4      -3.5432      2.00000
      5      -3.5432      2.00000
      6      -3.5432      2.00000
      7      -2.2984      2.00000
      8       2.6880      2.00000
      9       2.6880      2.00000
     10       2.6880      2.00000
     11       2.6880      2.00000
     12       2.8767      2.00000
     13       2.8767      2.00000
     14       8.4300      2.00000
     15       8.4300      2.00000
     16       8.5076      2.00000
     17      12.9150      0.00000
     18      13.4968      0.00000
     19      13.4968      0.00000
     20      13.4968      0.00000
     21      13.4968      0.00000
     22      13.7258      0.00000
     23      13.9922      0.00000
     24      14.3254      0.00000

 k-point     3 :       0.1667    0.0000    0.0000
  band No.  band energies     occupation 
      1     -11.5581      2.00000
      2      -5.9560      2.00000
      3      -3.4401      2.00000
      4      -3.4401      2.00000
      5      -3.4401      2.00000
      6      -3.4401      2.00000
      7      -0.9796      2.00000
      8       2.3426      2.00000
      9       2.3426      2.00000
     10       2.3426      2.00000
     11       2.3426      2.00000
     12       3.0519      2.00000
     13       3.0519      2.00000
     14       7.8333      2.00000
     15       7.8333      2.00000
     16       8.0442      2.00000
     17      12.7109      0.00000
     18      13.8508      0.00000
     19      14.1943      0.00000
     20      14.1943      0.00000
     21      14.1943      0.00000
     22      14.1943      0.00000
     23      14.3558      0.00000
     24      15.0748      0.00000

 k-point     4 :       0.2500    0.0000    0.0000
  band No.  band energies     occupation 
      1     -11.2555      2.00000
      2      -7.0247      2.00000
      3      -3.2857      2.00000
      4      -3.2857      2.00000
      5      -3.2857      2.00000
      6      -3.2857      2.00000
      7       0.3550      2.00000
      8       1.8866      2.00000
      9       1.8866      2.00000
     10       1.8866      2.00000
     11       1.8866      2.00000
     12       3.3430      2.00000
     13       3.3430      2.00000
     14       7.0803      2.00000
     15       7.0803      2.00000
     16       7.3313      2.00000
     17      12.6211      0.00000
     18      13.6380      0.00000
     19      15.1463      0.00000
     20      15.2370      0.00000
     21      15.2370      0.00000
     22      15.2370      0.00000
     23      15.2370      0.00000
     24      16.0746      0.00000

 k-point     5 :       0.3333    0.0000    0.0000
  band No.  band energies     occupation 
      1     -10.8335      2.00000
      2      -7.9995      2.00000
      3      -3.1109      2.00000
      4      -3.1109      2.00000
      5      -3.1109      2.00000
      6      -3.1109      2.00000
      7       1.4417      2.00000
      8       1.4417      2.00000
      9       1.4417      2.00000
     10       1.4417      2.00000
     11       1.6845      2.00000
     12       3.7440      2.00000
     13       3.7440      2.00000
     14       6.3005      2.00000
     15       6.3005      2.00000
     16       6.4272      2.00000
     17      12.6362      0.00000
     18      13.3900      0.00000
     19      16.0985      0.00000
     20      16.5155      0.00000
     21      16.5155      0.00000
     22      16.5155      0.00000
     23      16.5156      0.00000
     24      17.2016      0.00000

 k-point     6 :       0.4167    0.0000    0.0000
  band No.  band energies     occupation 
      1     -10.2940      2.00000
      2      -8.8730      2.00000
      3      -2.9656      2.00000
      4      -2.9656      2.00000
      5      -2.9656      2.00000
      6      -2.9656      2.00000
      7       1.1113      2.00000
      8       1.1113      2.00000
      9       1.1113      2.00000
     10       1.1113      2.00000
     11       2.9806      2.00000
     12       4.2507      2.00000
     13       4.2507      2.00000
     14       5.3784      2.00000
     15       5.5449      2.00000
     16       5.5449      2.00000
     17      12.7396      0.00000
     18      13.1336      0.00000
     19      17.1805      0.00000
     20      17.9029      0.00000
     21      17.9029      0.00000
     22      17.9029      0.00000
     23      17.9030      0.00000
     24      18.3806      0.00000

 k-point     7 :       0.5000    0.0000    0.0000
  band No.  band energies     occupation 
      1      -9.6393      2.00000
      2      -9.6393      2.00000
      3      -2.9079      2.00000
      4      -2.9079      2.00000
      5      -2.9079      2.00000
      6      -2.9079      2.00000
      7       0.9864      2.00000
      8       0.9864      2.00000
      9       0.9864      2.00000
     10       0.9864      2.00000
     11       4.2202      2.00000
     12       4.2202      2.00000
     13       4.8553      2.00000
     14       4.8553      2.00000
     15       4.8553      2.00000
     16       4.8553      2.00000
     17      12.9144      0.00000
     18      12.9144      0.00000
     19      18.3316      0.00000
     20      18.3316      0.00000
     21      18.9365      0.00000
     22      18.9367      0.00000
     23      18.9383      0.00000
     24      18.9499      0.00000

 k-point     8 :       0.0833    0.0833    0.0000
  band No.  band energies     occupation 
      1     -11.6794      2.00000
      2      -4.7591      2.00000
      3      -4.7591      2.00000
      4      -3.5500      2.00000
      5      -3.4686      2.00000
      6      -2.2758      2.00000
      7      -2.2758      2.00000
      8       2.2412      2.00000
      9       2.7333      2.00000
     10       2.7333      2.00000
     11       2.7652      2.00000
     12       2.7652      2.00000
     13       2.9180      2.00000
     14       7.9952      2.00000
     15       8.2038      2.00000
     16       8.5997      2.00000
     17      13.1690      0.00000
     18      13.1690      0.00000
     19      13.3488      0.00000
     20      13.9652      0.00000
     21      13.9652      0.00000
     22      14.0997      0.00000
     23      14.1609      0.00000
     24      14.3965      0.00000

 k-point     9 :       0.1667    0.0833    0.0000
  band No.  band energies     occupation 
      1     -11.4975      2.00000
      2      -5.9063      2.00000
      3      -4.6291      2.00000
      4      -3.5039      2.00000
      5      -3.3226      2.00000
      6      -2.2160      2.00000
      7      -0.9791      2.00000
      8       1.6816      2.00000
      9       2.3508      2.00000
     10       2.4748      2.00000
     11       2.8872      2.00000
     12       2.8988      2.00000
     13       2.9686      2.00000
     14       7.2959      2.00000
     15       7.6207      2.00000
     16       8.3317      2.00000
     17      12.9705      0.00000
     18      13.6925      0.00000
     19      13.8831      0.00000
     20      14.0907      0.00000
     21      14.5852      0.00000
     22      14.6420      0.00000
     23      15.0634      0.00000
     24      15.1829      0.00000

 k-point    10 :       0.2500    0.0833    0.0000
  band No.  band energies     occupation 
      1     -11.1952      2.00000
      2      -6.9715      2.00000
      3      -4.4229      2.00000
      4      -3.4356      2.00000
      5      -3.1108      2.00000
      6      -2.1453      2.00000
      7       0.3175      2.00000
      8       1.1294      2.00000
      9       1.8359      2.00000
     10       2.1099      2.00000
     11       2.6441      2.00000
     12       3.1804      2.00000
     13       3.3008      2.00000
     14       6.4850      2.00000
     15       6.8797      2.00000
     16       7.7586      2.00000
     17      12.8830      0.00000
     18      13.8903      0.00000
     19      14.4751      0.00000
     20      14.9447      0.00000
     21      15.3649      0.00000
     22      15.6578      0.00000
     23      16.0559      0.00000
     24      16.0696      0.00000

 k-point    11 :       0.3333    0.0833    0.0000
  band No.  band energies     occupation 
      1     -10.7736      2.00000
      2      -7.9439      2.00000
      3      -4.1595      2.00000
      4      -3.3957      2.00000
      5      -2.8503      2.00000
      6      -2.1088      2.00000
      7       0.6964      2.00000
      8       1.2999      2.00000
      9       1.5786      2.00000
     10       1.7976      2.00000
     11       2.2904      2.00000
     12       3.5751      2.00000
     13       3.7734      2.00000
     14       5.6290      2.00000
     15       6.1015      2.00000
     16       6.9720      2.00000
     17      12.9003      0.00000
     18      13.6472      0.00000
     19      15.5833      0.00000
     20      16.2423      0.00000
     21      16.3016      0.00000
     22      16.8941      0.00000
     23      17.1038      0.00000
     24      17.1817      0.00000

 k-point    12 :       0.4167    0.0833    0.0000
  band No.  band energies     occupation 
      1     -10.2347      2.00000
      2      -8.8158      2.00000
      3      -3.8723      2.00000
      4      -3.4449      2.00000
      5      -2.5717      2.00000
      6      -2.1593      2.00000
      7       0.4852      2.00000
      8       0.8401      2.00000
      9       1.6447      2.00000
     10       1.9445      2.00000
     11       2.7548      2.00000
     12       4.0754      2.00000
     13       4.4002      2.00000
     14       4.7466      2.00000
     15       5.3540      2.00000
     16       6.0783      2.00000
     17      13.0042      0.00000
     18      13.3955      0.00000
     19      16.8955      0.00000
     20      17.3665      0.00000
     21      17.6705      0.00000
     22      18.1742      0.00000
     23      18.2069      0.00000
     24      18.3687      0.00000

 k-point    13 :       0.5000    0.0833    0.0000
  band No.  band energies     occupation 
      1      -9.5809      2.00000
      2      -9.5809      2.00000
      3      -3.6138      2.00000
      4      -3.6138      2.00000
      5      -2.3232      2.00000
      6      -2.3232      2.00000
      7       0.5419      2.00000
      8       0.5419      2.00000
      9       1.7013      2.00000
     10       1.7013      2.00000
     11       3.8071      2.00000
     12       3.8071      2.00000
     13       4.6725      2.00000
     14       4.6725      2.00000
     15       5.1853      2.00000
     16       5.1853      2.00000
     17      13.1760      0.00000
     18      13.1760      0.00000
     19      18.2050      0.00000
     20      18.2050      0.00000
     21      18.4865      0.00000
     22      18.4865      0.00000
     23      19.0879      0.00000
     24      19.0890      0.00000

 k-point    14 :       0.1667    0.1667    0.0000
  band No.  band energies     occupation 
      1     -11.3161      2.00000
      2      -5.7592      2.00000
      3      -5.7592      2.00000
      4      -3.5440      2.00000
      5      -3.1376      2.00000
      6      -0.9909      2.00000
      7      -0.9909      2.00000
      8       1.0216      2.00000
      9       2.4885      2.00000
     10       2.4885      2.00000
     11       2.7590      2.00000
     12       2.7590      2.00000
     13       3.2113      2.00000
     14       6.5258      2.00000
     15       7.0666      2.00000
     16       8.3651      2.00000
     17      13.6440      0.00000
     18      13.6943      0.00000
     19      13.6943      0.00000
     20      14.5303      0.00000
     21      15.2292      0.00000
     22      15.2353      0.00000
     23      15.2353      0.00000
     24      15.5321      0.00000

 k-point    15 :       0.2500    0.1667    0.0000
  band No.  band energies     occupation 
      1     -11.0146      2.00000
      2      -6.8131      2.00000
      3      -5.5205      2.00000
      4      -3.6111      2.00000
      5      -2.8827      2.00000
      6      -1.0513      2.00000
      7       0.1895      2.00000
      8       0.4838      2.00000
      9       1.9325      2.00000
     10       2.5309      2.00000
     11       2.7480      2.00000
     12       3.2153      2.00000
     13       3.2764      2.00000
     14       5.6892      2.00000
     15       6.3511      2.00000
     16       8.0243      2.00000
     17      13.6122      0.00000
     18      14.0759      0.00000
     19      14.5197      0.00000
     20      14.7642      0.00000
     21      15.9818      0.00000
     22      16.0373      0.00000
     23      16.1157      0.00000
     24      16.2141      0.00000

 k-point    16 :       0.3333    0.1667    0.0000
  band No.  band energies     occupation 
      1     -10.5943      2.00000
      2      -7.7780      2.00000
      3      -5.2017      2.00000
      4      -3.7681      2.00000
      5      -2.5645      2.00000
      6      -1.2057      2.00000
      7       0.1716      2.00000
      8       1.2781      2.00000
      9       1.3387      2.00000
     10       2.3988      2.00000
     11       3.1259      2.00000
     12       3.1296      2.00000
     13       3.8640      2.00000
     14       4.8360      2.00000
     15       5.5939      2.00000
     16       7.3883      2.00000
     17      13.6308      0.00000
     18      14.3260      0.00000
     19      14.9272      0.00000
     20      16.0677      0.00000
     21      16.8806      0.00000
     22      16.9013      0.00000
     23      17.1454      0.00000
     24      17.3875      0.00000

 k-point    17 :       0.4167    0.1667    0.0000
  band No.  band energies     occupation 
      1     -10.0572      2.00000
      2      -8.6445      2.00000
      3      -4.8235      2.00000
      4      -4.0480      2.00000
      5      -2.2004      2.00000
      6      -1.4718      2.00000
      7       0.1409      2.00000
      8       0.7948      2.00000
      9       2.2497      2.00000
     10       2.4286      2.00000
     11       2.8703      2.00000
     12       3.6097      2.00000
     13       3.9865      2.00000
     14       4.6887      2.00000
     15       4.8626      2.00000
     16       6.5553      2.00000
     17      13.7309      0.00000
     18      14.1018      0.00000
     19      16.0765      0.00000
     20      17.5056      0.00000
     21      17.8154      0.00000
     22      17.8977      0.00000
     23      18.3026      0.00000
     24      18.3437      0.00000

 k-point    18 :       0.5000    0.1667    0.0000
  band No.  band energies     occupation 
      1      -9.4060      2.00000
      2      -9.4060      2.00000
      3      -4.4208      2.00000
      4      -4.4208      2.00000
      5      -1.8206      2.00000
      6      -1.8206      2.00000
      7       0.3717      2.00000
      8       0.3717      2.00000
      9       2.6077      2.00000
     10       2.6077      2.00000
     11       3.1354      2.00000
[...]

 k-point    72 :       0.4167    0.4167    0.2500
  band No.  band energies     occupation 
      1      -8.3325      2.00000
      2      -7.0446      2.00000
      3      -7.0446      2.00000
      4      -6.0488      2.00000
      5      -3.1294      2.00000
      6      -2.1629      2.00000
      7      -2.1629      2.00000
      8      -0.9115      2.00000
      9       3.5020      2.00000
     10       4.2323      2.00000
     11       4.2323      2.00000
     12       5.2922      2.00000
     13       5.3350      2.00000
     14       5.4917      2.00000
     15       5.4917      2.00000
     16       6.4933      2.00000
     17      15.8384      0.00000
     18      16.3846      0.00000
     19      16.3846      0.00000
     20      16.6690      0.00000
     21      16.7030      0.00000
     22      17.1457      0.00000
     23      17.1457      0.00000
     24      17.2194      0.00000

 k-point    73 :       0.5000    0.4167    0.2500
  band No.  band energies     occupation 
      1      -7.7286      2.00000
      2      -7.7286      2.00000
      3      -6.5380      2.00000
      4      -6.5380      2.00000
      5      -2.7528      2.00000
      6      -2.7528      2.00000
      7      -1.5982      2.00000
      8      -1.5982      2.00000
      9       3.8864      2.00000
     10       3.8864      2.00000
     11       4.7928      2.00000
     12       4.7928      2.00000
     13       5.5324      2.00000
     14       5.5324      2.00000
     15       6.1099      2.00000
     16       6.1099      2.00000
     17      16.3263      0.00000
     18      16.3263      0.00000
     19      16.6402      0.00000
     20      16.6402      0.00000
     21      16.7914      0.00000
     22      16.7914      0.00000
     23      17.4649      0.00000
     24      17.4651      0.00000

 k-point    74 :       0.5000    0.5000    0.2500
  band No.  band energies     occupation 
      1      -7.1584      2.00000
      2      -7.1584      2.00000
      3      -7.1584      2.00000
      4      -7.1584      2.00000
      5      -2.2512      2.00000
      6      -2.2512      2.00000
      7      -2.2512      2.00000
      8      -2.2512      2.00000
      9       4.3564      2.00000
     10       4.3564      2.00000
     11       4.3564      2.00000
     12       4.3564      2.00000
     13       5.9588      2.00000
     14       5.9588      2.00000
     15       5.9588      2.00000
     16       5.9588      2.00000
     17      16.4154      0.00000
     18      16.4154      0.00000
     19      16.4154      0.00000
     20      16.4154      0.00000
     21      17.4174      0.00000
     22      17.4174      0.00000
     23      17.4174      0.00000
     24      17.4175      0.00000

 k-point    75 :       0.3333    0.3333    0.3333
  band No.  band energies     occupation 
      1      -8.9562      2.00000
      2      -6.4208      2.00000
      3      -6.4208      2.00000
      4      -6.4208      2.00000
      5      -2.6763      2.00000
      6      -2.6763      2.00000
      7      -2.6763      2.00000
      8      -0.2066      2.00000
      9       3.9487      2.00000
     10       3.9487      2.00000
     11       3.9487      2.00000
     12       4.9867      2.00000
     13       4.9867      2.00000
     14       4.9867      2.00000
     15       6.5061      2.00000
     16       6.5061      2.00000
     17      15.4410      0.00000
     18      15.4410      0.00000
     19      15.4410      0.00000
     20      16.3245      0.00000
     21      16.5853      0.00000
     22      16.5853      0.00000
     23      18.8638      0.00000
     24      18.8970      0.00000

 k-point    76 :       0.4167    0.3333    0.3333
  band No.  band energies     occupation 
      1      -8.4477      2.00000
      2      -7.1547      2.00000
      3      -6.1515      2.00000
      4      -6.1515      2.00000
      5      -3.2399      2.00000
      6      -3.2399      2.00000
      7      -2.2639      2.00000
      8      -1.0042      2.00000
      9       4.1536      2.00000
     10       4.1536      2.00000
     11       4.9976      2.00000
     12       5.1896      2.00000
     13       5.1896      2.00000
     14       5.3264      2.00000
     15       6.1125      2.00000
     16       6.3770      2.00000
     17      15.7513      0.00000
     18      15.9463      0.00000
     19      15.9463      0.00000
     20      16.3150      0.00000
     21      16.6265      0.00000
     22      17.0047      0.00000
     23      17.8107      0.00000
     24      17.8148      0.00000

 k-point    77 :       0.5000    0.3333    0.3333
  band No.  band energies     occupation 
      1      -7.8416      2.00000
      2      -7.8416      2.00000
      3      -6.0297      2.00000
      4      -6.0297      2.00000
      5      -3.4608      2.00000
      6      -3.4608      2.00000
      7      -1.6960      2.00000
      8      -1.6960      2.00000
      9       4.2219      2.00000
     10       4.2219      2.00000
     11       5.2561      2.00000
     12       5.2561      2.00000
     13       5.7110      2.00000
     14       5.7110      2.00000
     15       5.8438      2.00000
     16       5.8438      2.00000
     17      16.0610      0.00000
     18      16.0610      0.00000
     19      16.5827      0.00000
     20      16.5827      0.00000
     21      16.9819      0.00000
     22      16.9819      0.00000
     23      17.1782      0.00000
     24      17.1786      0.00000

 k-point    78 :       0.4167    0.4167    0.3333
  band No.  band energies     occupation 
      1      -7.9564      2.00000
      2      -6.7554      2.00000
      3      -6.7554      2.00000
      4      -6.1375      2.00000
      5      -3.5641      2.00000
      6      -2.9595      2.00000
      7      -2.9595      2.00000
      8      -1.7880      2.00000
      9       4.5556      2.00000
     10       4.9989      2.00000
     11       4.9989      2.00000
     12       5.5206      2.00000
     13       5.5860      2.00000
     14       5.5860      2.00000
     15       5.9096      2.00000
     16       6.3497      2.00000
     17      16.0787      0.00000
     18      16.2288      0.00000
     19      16.2288      0.00000
     20      16.5305      0.00000
     21      16.6716      0.00000
     22      16.8853      0.00000
     23      17.2250      0.00000
     24      17.2250      0.00000

 k-point    79 :       0.5000    0.4167    0.3333
  band No.  band energies     occupation 
      1      -7.3814      2.00000
      2      -7.3814      2.00000
      3      -6.3711      2.00000
      4      -6.3711      2.00000
      5      -3.4392      2.00000
      6      -3.4392      2.00000
      7      -2.4518      2.00000
      8      -2.4518      2.00000
      9       4.8279      2.00000
     10       4.8279      2.00000
     11       5.5383      2.00000
     12       5.5383      2.00000
     13       5.6764      2.00000
     14       5.6764      2.00000
     15       6.0639      2.00000
     16       6.0639      2.00000
     17      16.4929      0.00000
     18      16.4929      0.00000
     19      16.5116      0.00000
     20      16.5116      0.00000
     21      16.8046      0.00000
     22      16.8046      0.00000
     23      17.0041      0.00000
     24      17.0041      0.00000

 k-point    80 :       0.5000    0.5000    0.3333
  band No.  band energies     occupation 
      1      -6.8674      2.00000
      2      -6.8674      2.00000
      3      -6.8674      2.00000
      4      -6.8674      2.00000
      5      -3.0579      2.00000
      6      -3.0579      2.00000
      7      -3.0579      2.00000
      8      -3.0579      2.00000
      9       5.2347      2.00000
     10       5.2347      2.00000
     11       5.2347      2.00000
     12       5.2347      2.00000
     13       6.0063      2.00000
     14       6.0063      2.00000
     15       6.0063      2.00000
     16       6.0063      2.00000
     17      16.5422      0.00000
     18      16.5422      0.00000
     19      16.5423      0.00000
     20      16.5423      0.00000
     21      17.0995      0.00000
     22      17.1012      0.00000
     23      17.1021      0.00000
     24      17.1094      0.00000

 k-point    81 :       0.4167    0.4167    0.4167
  band No.  band energies     occupation 
      1      -7.4944      2.00000
      2      -6.4792      2.00000
      3      -6.4792      2.00000
      4      -6.4792      2.00000
      5      -3.5454      2.00000
      6      -3.5454      2.00000
      7      -3.5454      2.00000
      8      -2.5512      2.00000
      9       5.4264      2.00000
     10       5.4264      2.00000
     11       5.4264      2.00000
     12       5.7365      2.00000
     13       5.7365      2.00000
     14       5.7365      2.00000
     15       6.1682      2.00000
     16       6.1682      2.00000
     17      16.3233      0.00000
     18      16.3233      0.00000
     19      16.3233      0.00000
     20      16.4302      0.00000
     21      16.7645      0.00000
     22      16.7646      0.00000
     23      17.2342      0.00000
     24      17.2349      0.00000

 k-point    82 :       0.5000    0.4167    0.4167
  band No.  band energies     occupation 
      1      -6.9779      2.00000
      2      -6.9779      2.00000
      3      -6.3538      2.00000
      4      -6.3538      2.00000
      5      -3.7751      2.00000
      6      -3.7751      2.00000
      7      -3.1621      2.00000
      8      -3.1621      2.00000
      9       5.5146      2.00000
     10       5.5146      2.00000
     11       5.8522      2.00000
     12       5.8522      2.00000
     13       5.9576      2.00000
     14       5.9576      2.00000
     15       5.9952      2.00000
     16       5.9952      2.00000
     17      16.4968      0.00000
     18      16.4968      0.00000
     19      16.6825      0.00000
     20      16.6825      0.00000
     21      16.7018      0.00000
     22      16.7020      0.00000
     23      16.7524      0.00000
     24      16.7525      0.00000

 k-point    83 :       0.5000    0.5000    0.4167
  band No.  band energies     occupation 
      1      -6.5890      2.00000
      2      -6.5890      2.00000
      3      -6.5890      2.00000
      4      -6.5890      2.00000
      5      -3.6504      2.00000
      6      -3.6504      2.00000
      7      -3.6504      2.00000
      8      -3.6504      2.00000
      9       5.8354      2.00000
     10       5.8354      2.00000
     11       5.8354      2.00000
     12       5.8354      2.00000
     13       6.0398      2.00000
     14       6.0398      2.00000
     15       6.0398      2.00000
     16       6.0398      2.00000
     17      16.5599      0.00000
     18      16.5599      0.00000
     19      16.5599      0.00000
     20      16.5600      0.00000
     21      16.8399      0.00000
     22      16.8421      0.00000
     23      16.8459      0.00000
     24      16.8640      0.00000

 k-point    84 :       0.5000    0.5000    0.5000
  band No.  band energies     occupation 
      1      -6.4623      2.00000
      2      -6.4623      2.00000
      3      -6.4623      2.00000
      4      -6.4623      2.00000
      5      -3.8827      2.00000
      6      -3.8827      2.00000
      7      -3.8827      2.00000
      8      -3.8827      2.00000
      9       6.0529      2.00000
     10       6.0529      2.00000
     11       6.0529      2.00000
     12       6.0529      2.00000
     13       6.0529      2.00000
     14       6.0529      2.00000
     15       6.0529      2.00000
     16       6.0529      2.00000
     17      16.4605      0.00000
     18      16.4605      0.00000
     19      16.4605      0.00000
     20      16.4606      0.00000
     21      16.7977      0.00000
     22      16.7977      0.00000
     23      16.7977      0.00000
     24      16.7977      0.00000


--------------------------------------------------------------------------------------------------------


 soft charge-density along one line, spin component           1
         0         1         2         3         4         5         6         7         8         9
 total charge-density along one line
 
 pseudopotential strength for first ion, spin component:           1
  9.500  -0.003   0.000   0.000   0.000  -0.000  -0.000  -0.000
 -0.003  -0.002  -0.000  -0.000  -0.000  -0.000  -0.000  -0.000
  0.000  -0.000  -3.722   0.000  -0.000  -0.006   0.000  -0.000
  0.000  -0.000   0.000  -3.722   0.000   0.000  -0.006   0.000
  0.000  -0.000  -0.000   0.000  -3.722  -0.000   0.000  -0.006
 -0.000  -0.000  -0.006   0.000  -0.000  -0.759   0.000  -0.000
 -0.000  -0.000   0.000  -0.006   0.000   0.000  -0.759   0.000
 -0.000  -0.000  -0.000   0.000  -0.006  -0.000   0.000  -0.759
 total augmentation occupancy for first ion, spin component:           1
  1.417  -0.929  -0.000   0.000  -0.000  -0.000   0.000  -0.000
 -0.929   0.876   0.000   0.000   0.000   0.000   0.000  -0.000
  0.000  -0.000   1.056   0.000   0.000   0.171  -0.000   0.000
  0.000  -0.000  -0.000   1.056   0.000  -0.000   0.171   0.000
 -0.000  -0.000  -0.000  -0.000   1.056   0.000   0.000   0.171
  0.000  -0.000   0.171   0.000   0.000   0.032   0.000  -0.000
  0.000  -0.000  -0.000   0.171  -0.000  -0.000   0.032   0.000
 -0.000   0.000  -0.000   0.000   0.171  -0.000   0.000   0.032


------------------------ aborting loop because EDIFF is reached ----------------------------------------


    CHARGE:  cpu time    0.1327: real time    0.1327
    FORLOC:  cpu time    0.0020: real time    0.0020
    FORNL :  cpu time    0.2128: real time    0.2129
    STRESS:  cpu time    0.4988: real time    0.4990
    FORHAR:  cpu time    0.0054: real time    0.0054
    MIXING:  cpu time    0.0021: real time    0.0021
    OFIELD:  cpu time    0.0001: real time    0.0001

  FORCE on cell =-STRESS in cart. coord.  units (eV):
  Direction    XX          YY          ZZ          XY          YZ          ZX
  --------------------------------------------------------------------------------------
  Alpha Z   106.26712   106.26712   106.26712
  Ewald    -451.99669  -451.99669  -451.99669     0.00000     0.00000     0.00000
  Hartree    36.66140    36.66140    36.66140    -0.00000    -0.00000    -0.00000
  E(xc)    -117.61121  -117.61121  -117.61121     0.00000     0.00000     0.00000
  Local     -52.08139   -52.08139   -52.08139    -0.00000    -0.00000     0.00000
  n-local   -24.82108   -25.64472   -24.77728     0.69796     0.87072     0.41860
  augment    -2.55338    -2.55338    -2.55338     0.00000     0.00000    -0.00000
  Kinetic   486.35965   501.79361   501.91264    -4.63649    -6.48884    -3.23559
  Fock        0.00000     0.00000     0.00000     0.00000     0.00000     0.00000
  -------------------------------------------------------------------------------------
  Total      -9.70656    -9.70656    -9.70656    -0.00000    -0.00000     0.00000
  in kB    -316.91502  -316.91502  -316.91502    -0.00000    -0.00000     0.00000
  external pressure =     -316.92 kB  Pullay stress =        0.00 kB


 VOLUME and BASIS-vectors are now :
 -----------------------------------------------------------------------------
  energy-cutoff  :      400.00
  volume of cell :       49.07
      direct lattice vectors                 reciprocal lattice vectors
     3.661094950  0.000000000  0.000000000     0.273142329  0.000000000  0.000000000
     0.000000000  3.661094950  0.000000000     0.000000000  0.273142329  0.000000000
     0.000000000  0.000000000  3.661094950     0.000000000  0.000000000  0.273142329

  length of vectors
     3.661094950  3.661094950  3.661094950     0.273142329  0.273142329  0.273142329


 FORCES acting on ions
    electron-ion (+dipol)            ewald-force                    non-local-force                 convergence-correction
 -----------------------------------------------------------------------------------------------
   0.466E-13 -.143E-12 0.262E-13   -.142E-13 -.711E-14 -.711E-14   0.164E-16 -.229E-17 0.261E-16   -.150E-14 -.986E-15 -.697E-14
   -.466E-13 -.328E-14 0.360E-13   -.126E-13 -.653E-15 0.142E-13   -.594E-17 -.289E-17 -.144E-16   0.124E-14 0.331E-15 -.216E-14
   0.466E-13 -.163E-12 0.446E-13   -.142E-13 -.213E-13 -.213E-13   -.633E-17 0.864E-17 0.902E-17   -.152E-14 -.128E-14 -.660E-14
   -.388E-13 0.237E-13 0.144E-13   -.135E-13 -.142E-13 -.222E-15   0.658E-18 0.199E-16 -.122E-16   0.239E-14 -.169E-15 -.169E-14
   0.621E-13 0.204E-12 0.405E-12   0.711E-14 0.142E-13 0.000E+00   0.125E-17 -.920E-18 0.194E-16   -.648E-14 -.571E-15 -.765E-14
   -.311E-13 -.446E-16 -.400E-12   0.213E-13 0.203E-13 0.211E-13   -.131E-16 0.195E-17 -.225E-16   0.405E-14 0.795E-15 -.171E-14
   0.621E-13 -.193E-12 0.100E-13   0.711E-14 0.000E+00 -.142E-13   0.921E-17 -.196E-16 0.154E-16   -.628E-14 -.220E-14 -.731E-14
   -.311E-13 0.373E-12 0.281E-13   0.214E-13 0.704E-14 0.714E-14   -.618E-17 0.405E-17 -.816E-17   0.369E-14 0.373E-15 -.196E-14
 -----------------------------------------------------------------------------------------------
   0.699E-13 0.986E-13 0.165E-12   0.242E-14 -.169E-14 -.403E-15   -.403E-17 0.887E-17 0.127E-16   -.440E-14 -.370E-14 -.361E-13
 
 
 POSITION                                       TOTAL-FORCE (eV/Angst)
 -----------------------------------------------------------------------------------
      0.91527      2.74582      0.91527         0.000000     -0.000000      0.000000
      0.00000      0.00000      1.83055        -0.000000     -0.000000      0.000000
      0.91527      0.91527      2.74582         0.000000      0.000000     -0.000000
      0.00000      1.83055      0.00000        -0.000000      0.000000     -0.000000
      2.74582      2.74582      2.74582         0.000000      0.000000     -0.000000
      1.83055      0.00000      0.00000        -0.000000      0.000000     -0.000000
      2.74582      0.91527      0.91527         0.000000     -0.000000      0.000000
      1.83055      1.83055      1.83055        -0.000000     -0.000000     -0.000000
 -----------------------------------------------------------------------------------
    total drift:                                0.000000      0.000000      0.000000


--------------------------------------------------------------------------------------------------------



  FREE ENERGIE OF THE ION-ELECTRON SYSTEM (eV)
  ---------------------------------------------------
  free  energy   TOTEN  =       -72.43299246 eV

  energy  without entropy=      -72.43299246  energy(sigma->0) =      -72.43299246
 


--------------------------------------------------------------------------------------------------------


    POTLOK:  cpu time    0.0276: real time    0.0276


--------------------------------------------------------------------------------------------------------


     LOOP+:  cpu time   54.9105: real time   55.1102
    4ORBIT:  cpu time    0.0000: real time    0.0000
 BZINTS: Fermi energy:  8.675002; 32.000000 electrons
         Band energy:   4.699526;  BLOECHL correction:  0.000000

 total amount of memory used by VASP MPI-rank0    34107. kBytes
=======================================================================

   base      :      30000. kBytes
   nonl-proj :       1276. kBytes
   fftplans  :        345. kBytes
   grid      :        481. kBytes
   one-center:          6. kBytes
   wavefun   :       1999. kBytes
 
  
  
 General timing and accounting informations for this job:
 ========================================================
  
                  Total CPU time used (sec):       57.326
                            User time (sec):       55.421
                          System time (sec):        1.905
                         Elapsed time (sec):       58.493
  
                   Maximum memory used (kb):      189604.
                   Average memory used (kb):           0.
  
                          Minor page faults:        36884
                          Major page faults:           36
                 Voluntary context switches:          799
