   8   8   0   0
  0.5762528E+01  0.3589999E-09  0.3589999E-09  0.3589999E-09  0.2000000E-16
  1.000000000000000E-004
  CAR 
 unknown system                          
     23.20357374    -13.42948230  301      9.66460678      1.00000000
    -13.429  0.0000E+00  0.0000E+00
    -13.307  0.0000E+00  0.0000E+00
    -13.185  0.0000E+00  0.0000E+00
    -13.063  0.0000E+00  0.0000E+00
    -12.941  0.0000E+00  0.0000E+00
    -12.819  0.0000E+00  0.0000E+00
    -12.697  0.0000E+00  0.0000E+00
    -12.575  0.0000E+00  0.0000E+00
    -12.453  0.0000E+00  0.0000E+00
    -12.330  0.0000E+00  0.0000E+00
    -12.208  0.0000E+00  0.0000E+00
    -12.086  0.0000E+00  0.0000E+00
    -11.964  0.0000E+00  0.0000E+00
    -11.842  0.0000E+00  0.0000E+00
    -11.720  0.3888E-01  0.5755E-03
    -11.598  0.1593E+00  0.1548E-01
    -11.476  0.2440E+00  0.4026E-01
    -11.354  0.2785E+00  0.7186E-01
    -11.231  0.3280E+00  0.1088E+00
    -11.109  0.3660E+00  0.1517E+00
    -10.987  0.3963E+00  0.1982E+00
    -10.865  0.4300E+00  0.2486E+00
    -10.743  0.4680E+00  0.3034E+00
    -10.621  0.4906E+00  0.3619E+00
    -10.499  0.5155E+00  0.4233E+00
    -10.377  0.5422E+00  0.4879E+00
    -10.255  0.5710E+00  0.5558E+00
    -10.133  0.5971E+00  0.6273E+00
    -10.010  0.6178E+00  0.7014E+00
     -9.888  0.6430E+00  0.7784E+00
     -9.766  0.6736E+00  0.8587E+00
     -9.644  0.7106E+00  0.9431E+00
     -9.522  0.7532E+00  0.1032E+01
     -9.400  0.7368E+00  0.1123E+01
     -9.278  0.7456E+00  0.1214E+01
     -9.156  0.7588E+00  0.1305E+01
     -9.034  0.7778E+00  0.1399E+01
     -8.911  0.8064E+00  0.1496E+01
     -8.789  0.8276E+00  0.1596E+01
     -8.667  0.8427E+00  0.1697E+01
     -8.545  0.8689E+00  0.1802E+01
     -8.423  0.8987E+00  0.1910E+01
     -8.301  0.9297E+00  0.2021E+01
     -8.179  0.9478E+00  0.2137E+01
     -8.057  0.9557E+00  0.2253E+01
     -7.935  0.9946E+00  0.2371E+01
     -7.812  0.1058E+01  0.2497E+01
     -7.690  0.1172E+01  0.2634E+01
     -7.568  0.1141E+01  0.2776E+01
     -7.446  0.1033E+01  0.2906E+01
     -7.324  0.1071E+01  0.3035E+01
     -7.202  0.1062E+01  0.3166E+01
     -7.080  0.1001E+01  0.3292E+01
     -6.958  0.1229E+01  0.3431E+01
     -6.836  0.1204E+01  0.3576E+01
     -6.713  0.1277E+01  0.3728E+01
     -6.591  0.1358E+01  0.3891E+01
     -6.469  0.1239E+01  0.4051E+01
     -6.347  0.1228E+01  0.4200E+01
     -6.225  0.1426E+01  0.4361E+01
     -6.103  0.1340E+01  0.4529E+01
     -5.981  0.1326E+01  0.4690E+01
     -5.859  0.1392E+01  0.4855E+01
     -5.737  0.1457E+01  0.5030E+01
     -5.614  0.1537E+01  0.5213E+01
     -5.492  0.1498E+01  0.5394E+01
     -5.370  0.1416E+01  0.5572E+01
     -5.248  0.1365E+01  0.5741E+01
     -5.126  0.1309E+01  0.5905E+01
     -5.004  0.1236E+01  0.6060E+01
     -4.882  0.1212E+01  0.6210E+01
     -4.760  0.1196E+01  0.6357E+01
     -4.638  0.1172E+01  0.6501E+01
     -4.515  0.1163E+01  0.6643E+01
     -4.393  0.1157E+01  0.6791E+01
     -4.271  0.1075E+01  0.6927E+01
     -4.149  0.9991E+00  0.7054E+01
     -4.027  0.9652E+00  0.7173E+01
     -3.905  0.9409E+00  0.7290E+01
     -3.783  0.9391E+00  0.7404E+01
     -3.661  0.9560E+00  0.7520E+01
     -3.539  0.9777E+00  0.7637E+01
     -3.416  0.1039E+01  0.7759E+01
     -3.294  0.1006E+01  0.7882E+01
     -3.172  0.8913E+00  0.7999E+01
     -3.050  0.8532E+00  0.8105E+01
     -2.928  0.8813E+00  0.8209E+01
     -2.806  0.9528E+00  0.8323E+01
     -2.684  0.8609E+00  0.8428E+01
     -2.562  0.9759E+00  0.8539E+01
     -2.440  0.1207E+01  0.8670E+01
     -2.317  0.1410E+01  0.8829E+01
     -2.195  0.1841E+01  0.9026E+01
     -2.073  0.2157E+01  0.9269E+01
     -1.951  0.2785E+01  0.9572E+01
     -1.829  0.2202E+01  0.9867E+01
     -1.707  0.1991E+01  0.1012E+02
     -1.585  0.1922E+01  0.1036E+02
     -1.463  0.1893E+01  0.1059E+02
     -1.341  0.1923E+01  0.1083E+02
     -1.218  0.1790E+01  0.1105E+02
     -1.096  0.1743E+01  0.1127E+02
     -0.974  0.1546E+01  0.1147E+02
     -0.852  0.1451E+01  0.1165E+02
     -0.730  0.1382E+01  0.1183E+02
     -0.608  0.1355E+01  0.1199E+02
     -0.486  0.1325E+01  0.1216E+02
     -0.364  0.1237E+01  0.1231E+02
     -0.242  0.1245E+01  0.1246E+02
     -0.119  0.1149E+01  0.1261E+02
      0.003  0.1120E+01  0.1275E+02
      0.125  0.1124E+01  0.1288E+02
      0.247  0.1053E+01  0.1302E+02
      0.369  0.9868E+00  0.1314E+02
      0.491  0.1219E+01  0.1327E+02
      0.613  0.1744E+01  0.1345E+02
      0.735  0.2030E+01  0.1369E+02
      0.857  0.2112E+01  0.1394E+02
      0.980  0.2165E+01  0.1421E+02
      1.102  0.2165E+01  0.1447E+02
      1.224  0.2252E+01  0.1474E+02
      1.346  0.2225E+01  0.1501E+02
      1.468  0.1983E+01  0.1528E+02
      1.590  0.1512E+01  0.1550E+02
      1.712  0.1445E+01  0.1567E+02
      1.834  0.1615E+01  0.1585E+02
      1.956  0.2038E+01  0.1608E+02
      2.079  0.2531E+01  0.1636E+02
      2.201  0.2574E+01  0.1668E+02
      2.323  0.2321E+01  0.1697E+02
      2.445  0.2253E+01  0.1725E+02
      2.567  0.2218E+01  0.1752E+02
      2.689  0.2484E+01  0.1781E+02
      2.811  0.2601E+01  0.1813E+02
      2.933  0.2540E+01  0.1844E+02
      3.055  0.2938E+01  0.1878E+02
      3.178  0.2820E+01  0.1914E+02
      3.300  0.2709E+01  0.1947E+02
      3.422  0.2809E+01  0.1981E+02
      3.544  0.2895E+01  0.2016E+02
      3.666  0.2902E+01  0.2050E+02
      3.788  0.3222E+01  0.2088E+02
      3.910  0.3285E+01  0.2128E+02
      4.032  0.3145E+01  0.2167E+02
      4.154  0.3019E+01  0.2205E+02
      4.276  0.3232E+01  0.2244E+02
      4.399  0.3001E+01  0.2282E+02
      4.521  0.2935E+01  0.2318E+02
      4.643  0.2748E+01  0.2353E+02
      4.765  0.2665E+01  0.2386E+02
      4.887  0.2867E+01  0.2420E+02
      5.009  0.3084E+01  0.2457E+02
      5.131  0.3109E+01  0.2495E+02
      5.253  0.2894E+01  0.2532E+02
      5.375  0.2717E+01  0.2567E+02
      5.498  0.2568E+01  0.2599E+02
      5.620  0.2624E+01  0.2630E+02
      5.742  0.2587E+01  0.2662E+02
      5.864  0.2626E+01  0.2694E+02
      5.986  0.2963E+01  0.2728E+02
      6.108  0.2895E+01  0.2763E+02
      6.230  0.2750E+01  0.2798E+02
      6.352  0.2711E+01  0.2831E+02
      6.474  0.2545E+01  0.2863E+02
      6.597  0.2581E+01  0.2894E+02
      6.719  0.2373E+01  0.2924E+02
      6.841  0.1655E+01  0.2947E+02
      6.963  0.1785E+01  0.2968E+02
      7.085  0.1891E+01  0.2991E+02
      7.207  0.1938E+01  0.3014E+02
      7.329  0.1621E+01  0.3036E+02
      7.451  0.1479E+01  0.3055E+02
      7.573  0.1341E+01  0.3072E+02
      7.696  0.1195E+01  0.3087E+02
      7.818  0.1079E+01  0.3101E+02
      7.940  0.1000E+01  0.3114E+02
      8.062  0.9253E+00  0.3126E+02
      8.184  0.8933E+00  0.3137E+02
      8.306  0.7926E+00  0.3147E+02
      8.428  0.7003E+00  0.3156E+02
      8.550  0.6341E+00  0.3164E+02
      8.672  0.6134E+00  0.3172E+02
      8.795  0.5093E+00  0.3179E+02
      8.917  0.4066E+00  0.3185E+02
      9.039  0.3852E+00  0.3189E+02
      9.161  0.2861E+00  0.3194E+02
      9.283  0.2002E+00  0.3197E+02
      9.405  0.1793E+00  0.3199E+02
      9.527  0.2493E-01  0.3200E+02
      9.649  0.0000E+00  0.3200E+02
      9.771  0.0000E+00  0.3200E+02
      9.894  0.0000E+00  0.3200E+02
     10.016  0.0000E+00  0.3200E+02
     10.138  0.0000E+00  0.3200E+02
     10.260  0.0000E+00  0.3200E+02
     10.382  0.0000E+00  0.3200E+02
     10.504  0.0000E+00  0.3200E+02
     10.626  0.0000E+00  0.3200E+02
     10.748  0.0000E+00  0.3200E+02
     10.870  0.0000E+00  0.3200E+02
     10.993  0.0000E+00  0.3200E+02
     11.115  0.0000E+00  0.3200E+02
     11.237  0.0000E+00  0.3200E+02
     11.359  0.0000E+00  0.3200E+02
     11.481  0.0000E+00  0.3200E+02
     11.603  0.0000E+00  0.3200E+02
     11.725  0.0000E+00  0.3200E+02
     11.847  0.0000E+00  0.3200E+02
     11.969  0.0000E+00  0.3200E+02
     12.092  0.0000E+00  0.3200E+02
     12.214  0.0000E+00  0.3200E+02
     12.336  0.0000E+00  0.3200E+02
     12.458  0.0000E+00  0.3200E+02
     12.580  0.0000E+00  0.3200E+02
     12.702  0.0000E+00  0.3200E+02
     12.824  0.0000E+00  0.3200E+02
     12.946  0.0000E+00  0.3200E+02
     13.068  0.0000E+00  0.3200E+02
     13.191  0.0000E+00  0.3200E+02
     13.313  0.0000E+00  0.3200E+02
     13.435  0.1544E+00  0.3201E+02
     13.557  0.3855E+00  0.3204E+02
     13.679  0.5576E+00  0.3210E+02
     13.801  0.6999E+00  0.3218E+02
     13.923  0.8257E+00  0.3227E+02
     14.045  0.8800E+00  0.3238E+02
     14.167  0.9596E+00  0.3249E+02
     14.290  0.1333E+01  0.3262E+02
     14.412  0.1280E+01  0.3278E+02
     14.534  0.1300E+01  0.3294E+02
     14.656  0.1308E+01  0.3310E+02
     14.778  0.1310E+01  0.3326E+02
     14.900  0.1324E+01  0.3342E+02
     15.022  0.1464E+01  0.3359E+02
     15.144  0.1560E+01  0.3377E+02
     15.266  0.1603E+01  0.3397E+02
     15.389  0.1677E+01  0.3417E+02
     15.511  0.1769E+01  0.3438E+02
     15.633  0.1806E+01  0.3460E+02
     15.755  0.1927E+01  0.3482E+02
     15.877  0.2144E+01  0.3507E+02
     15.999  0.2373E+01  0.3534E+02
     16.121  0.2525E+01  0.3564E+02
     16.243  0.2735E+01  0.3596E+02
     16.365  0.3143E+01  0.3631E+02
     16.488  0.3409E+01  0.3672E+02
     16.610  0.3546E+01  0.3714E+02
     16.732  0.3219E+01  0.3756E+02
     16.854  0.2725E+01  0.3792E+02
     16.976  0.2575E+01  0.3824E+02
     17.098  0.2486E+01  0.3855E+02
     17.220  0.2174E+01  0.3883E+02
     17.342  0.2276E+01  0.3910E+02
     17.464  0.2508E+01  0.3939E+02
     17.587  0.2552E+01  0.3970E+02
     17.709  0.2678E+01  0.4002E+02
     17.831  0.2842E+01  0.4035E+02
     17.953  0.3109E+01  0.4072E+02
     18.075  0.3305E+01  0.4110E+02
     18.197  0.3815E+01  0.4154E+02
     18.319  0.4808E+01  0.4207E+02
     18.441  0.4317E+01  0.4261E+02
     18.563  0.4394E+01  0.4317E+02
     18.685  0.3774E+01  0.4366E+02
     18.808  0.3447E+01  0.4409E+02
     18.930  0.3587E+01  0.4452E+02
     19.052  0.3248E+01  0.4494E+02
     19.174  0.3029E+01  0.4533E+02
     19.296  0.2701E+01  0.4567E+02
     19.418  0.2567E+01  0.4599E+02
     19.540  0.2521E+01  0.4631E+02
     19.662  0.2513E+01  0.4661E+02
     19.784  0.2478E+01  0.4693E+02
     19.907  0.2095E+01  0.4720E+02
     20.029  0.1631E+01  0.4743E+02
     20.151  0.1342E+01  0.4761E+02
     20.273  0.8931E+00  0.4775E+02
     20.395  0.5016E+00  0.4783E+02
     20.517  0.3148E+00  0.4788E+02
     20.639  0.2449E+00  0.4791E+02
     20.761  0.1780E+00  0.4794E+02
     20.883  0.1342E+00  0.4796E+02
     21.006  0.1006E+00  0.4797E+02
     21.128  0.7713E-01  0.4798E+02
     21.250  0.6125E-01  0.4799E+02
     21.372  0.3311E-01  0.4800E+02
     21.494  0.2354E-02  0.4800E+02
     21.616  0.0000E+00  0.4800E+02
     21.738  0.0000E+00  0.4800E+02
     21.860  0.0000E+00  0.4800E+02
     21.982  0.0000E+00  0.4800E+02
     22.105  0.0000E+00  0.4800E+02
     22.227  0.0000E+00  0.4800E+02
     22.349  0.0000E+00  0.4800E+02
     22.471  0.0000E+00  0.4800E+02
     22.593  0.0000E+00  0.4800E+02
     22.715  0.0000E+00  0.4800E+02
     22.837  0.0000E+00  0.4800E+02
     22.959  0.0000E+00  0.4800E+02
     23.081  0.0000E+00  0.4800E+02
     23.204  0.0000E+00  0.4800E+02
