       N       E                     dE             d eps       ncg     rms          rms(c)
DAV:   1     0.583657321717E+02    0.58366E+02   -0.14446E+04  9080   0.106E+03
DAV:   2    -0.703416541868E+02   -0.12871E+03   -0.12200E+03 12432   0.222E+02
DAV:   3    -0.746529941621E+02   -0.43113E+01   -0.42893E+01 11912   0.381E+01
DAV:   4    -0.746980488019E+02   -0.45055E-01   -0.45017E-01 11344   0.426E+00
DAV:   5    -0.746990069861E+02   -0.95818E-03   -0.95738E-03 11888   0.554E-01    0.943E+00
DAV:   6    -0.728197581324E+02    0.18792E+01   -0.12684E+00 10440   0.648E+00    0.517E+00
DAV:   7    -0.721893264380E+02    0.63043E+00   -0.14582E+00 10928   0.713E+00    0.708E-01
DAV:   8    -0.721973116890E+02   -0.79853E-02   -0.37936E-02 11304   0.115E+00    0.750E-02
DAV:   9    -0.721975531194E+02   -0.24143E-03   -0.46248E-04 11408   0.147E-01    0.338E-02
DAV:  10    -0.721976161354E+02   -0.63016E-04   -0.45726E-05 11200   0.502E-02    0.343E-03
DAV:  11    -0.721976178105E+02   -0.16751E-05   -0.14162E-06  8712   0.897E-03    0.103E-03
DAV:  12    -0.721976178072E+02    0.33374E-08   -0.14125E-07  8136   0.273E-03
   1 F= -.72197618E+02 E0= -.72197618E+02  d E =0.000000E+00
