 vasp.5.4.4.18Apr17-6-g9f103f2a35 (build Mar 12 2022 03:36:41) complex          
  
 executed on IFC19.0.3.199_CrayMP date 2022.12.01  11:14:06
 running on   16 total cores
 distrk:  each k-point on   16 cores,    1 groups
 distr:  one band on NCORES_PER_BAND=   4 cores,    4 groups


--------------------------------------------------------------------------------------------------------


 INCAR:
 POTCAR:   PAW_PBE C 08Apr2002                    
 POTCAR:   PAW_PBE C 08Apr2002                    
   VRHFIN =C: s2p2                                                              
   LEXCH  = PE                                                                  
   EATOM  =   147.1560 eV,   10.8157 Ry                                         
                                                                                
   TITEL  = PAW_PBE C 08Apr2002                                                 
   LULTRA =        F    use ultrasoft PP ?                                      
   IUNSCR =        0    unscreen: 0-lin 1-nonlin 2-no                           
   RPACOR =     .000    partial core radius                                     
   POMASS =   12.011; ZVAL   =    4.000    mass and valenz                      
   RCORE  =    1.500    outmost cutoff radius                                   
   RWIGS  =    1.630; RWIGS  =     .863    wigner-seitz radius (au A)           
   ENMAX  =  400.000; ENMIN  =  300.000 eV                                      
   ICORE  =        2    local potential                                         
   LCOR   =        T    correct aug charges                                     
   LPAW   =        T    paw PP                                                  
   EAUG   =  644.873                                                            
   DEXC   =     .000                                                            
   RMAX   =    2.266    core radius for proj-oper                               
   RAUG   =    1.300    factor for augmentation sphere                          
   RDEP   =    1.501    radius for radial grids                                 
   RDEPT  =    1.300    core radius for aug-charge                              
   QCUT   =   -5.516; QGAM   =   11.032    optimization parameters              
                                                                                
   Description                                                                  
     l     E      TYP  RCUT    TYP  RCUT                                        
     0   .000     23  1.200                                                     
     0   .000     23  1.200                                                     
     1   .000     23  1.500                                                     
     1  2.500     23  1.500                                                     
     2   .000      7  1.500                                                     
  local pseudopotential read in
  atomic valenz-charges read in
  non local Contribution for L=           0  read in
    real space projection operators read in
  non local Contribution for L=           0  read in
    real space projection operators read in
  non local Contribution for L=           1  read in
    real space projection operators read in
  non local Contribution for L=           1  read in
    real space projection operators read in
    PAW grid and wavefunctions read in
 
   number of l-projection  operators is LMAX  =           4
   number of lm-projection operators is LMMAX =           8
 
 PAW_PBE C 08Apr2002                    :
 energy of atom  1       EATOM= -147.1560
 kinetic energy error for atom=    0.0288 (will be added to EATOM!!)
 
 
 POSCAR: C8                                      
  positions in direct lattice
  No initial velocities read in
 exchange correlation table for  LEXCH =        8
   RHO(1)=    0.500       N(1)  =     2000
   RHO(2)=  100.500       N(2)  =     4000
 


--------------------------------------------------------------------------------------------------------


 ion  position               nearest neighbor table
   1  0.250  0.750  0.250-   6 1.53   8 1.53   2 1.53   4 1.63
   2  0.000  0.000  0.500-   5 1.53   7 1.53   1 1.53   3 1.63
   3  0.250  0.250  0.750-   6 1.53   8 1.53   4 1.53   2 1.63
   4  0.000  0.500  0.000-   5 1.53   7 1.53   3 1.53   1 1.63
   5  0.750  0.750  0.750-   2 1.53   4 1.53   6 1.53   8 1.63
   6  0.500  0.000  0.000-   1 1.53   3 1.53   5 1.53   7 1.63
   7  0.750  0.250  0.250-   2 1.53   4 1.53   8 1.53   6 1.63
   8  0.500  0.500  0.500-   1 1.53   3 1.53   7 1.53   5 1.63
 
  LATTYP: Found a trigonal (rhomboedric) cell.
 ALAT       =     3.5899992666
 COS(alpha) =     0.0499998614
  
  Lattice vectors:
  
 A1 = (   3.5899993590,   0.0000000000,   0.0000000000)
 A2 = (   0.1794994657,   3.5855089842,   0.0000000000)
 A3 = (   0.1794994657,   0.1707387144,   3.5814415284)


Analysis of symmetry for initial positions (statically):
=====================================================================
 Subroutine PRICEL returns following result:
 
  LATTYP: Found a trigonal (rhomboedric) cell.
 ALAT       =     2.6012016659
 COS(alpha) =     0.5476189500
  
  Lattice vectors:
  
 A1 = (  -0.1794994657,  -1.8781238493,  -1.7907207642)
 A2 = (  -1.8847494123,  -1.7927544921,  -0.0000000000)
 A3 = (  -1.8847494123,  -0.0853693572,  -1.7907207642)
 
   4 primitive cells build up your supercell.
 

 Routine SETGRP: Setting up the symmetry group for a 
 trigonal (rhombohedral) supercell.


 Subroutine GETGRP returns: Found 12 space group operations
 (whereof  6 operations were pure point group operations)
 out of a pool of 12 trial point group operations.


The static configuration has the point symmetry C_3v.
 The point group associated with its full space group is D_3d.


Analysis of symmetry for dynamics (positions and initial velocities):
=====================================================================
 Subroutine PRICEL returns following result:
 
  LATTYP: Found a trigonal (rhomboedric) cell.
 ALAT       =     2.6012016659
 COS(alpha) =     0.5476189500
  
  Lattice vectors:
  
 A1 = (  -0.1794994657,  -1.8781238493,  -1.7907207642)
 A2 = (  -1.8847494123,  -1.7927544921,  -0.0000000000)
 A3 = (  -1.8847494123,  -0.0853693572,  -1.7907207642)
 
   4 primitive cells build up your supercell.
 

 Routine SETGRP: Setting up the symmetry group for a 
 trigonal (rhombohedral) supercell.


 Subroutine GETGRP returns: Found 12 space group operations
 (whereof  6 operations were pure point group operations)
 out of a pool of 12 trial point group operations.


The dynamic configuration has the point symmetry C_3v.
 The point group associated with its full space group is D_3d.


 Subroutine INISYM returns: Found 12 space group operations
 (whereof  6 operations are pure point group operations),
 and found     4 'primitive' translations

 
 
 KPOINTS: kpt_density=1000                        

Automatic generation of k-mesh.
Space group operators:
 irot       det(A)        alpha          n_x          n_y          n_z        tau_x        tau_y        tau_z
    1     1.000000     0.000000     1.000000     0.000000     0.000000     0.000000     0.000000     0.000000
    2    -1.000000   180.000000     0.000000    -0.690066     0.723747     0.000000     0.000000     0.000000
    3     1.000000   120.000000    -0.605530    -0.575974    -0.549170     0.000000     0.000000     0.000000
    4    -1.000000   180.000000    -0.689202     0.724569    -0.000000     0.000000     0.000000     0.000000
    5     1.000000   120.000000     0.605530     0.575974     0.549170     0.000000     0.000000     0.000000
    6    -1.000000   179.999999    -0.689202     0.034503     0.723747     0.000000     0.000000     0.000000
    7    -1.000000     0.000000     1.000000     0.000000     0.000000    -0.750000    -0.750000    -0.750000
    8     1.000000   180.000000     0.000000    -0.690066     0.723747    -0.750000    -0.750000    -0.750000
    9    -1.000000   120.000000    -0.605530    -0.575974    -0.549170    -0.750000    -0.750000    -0.750000
   10     1.000000   180.000000    -0.689202     0.724569    -0.000000    -0.750000    -0.750000    -0.750000
   11    -1.000000   120.000000     0.605530     0.575974     0.549170    -0.750000    -0.750000    -0.750000
   12     1.000000   179.999999    -0.689202     0.034503     0.723747    -0.750000    -0.750000    -0.750000
 
 Subroutine IBZKPT returns following result:
 ===========================================
 
 Found    189 irreducible k-points:
 
 Following reciprocal coordinates:
            Coordinates               Weight
  0.000000  0.000000  0.000000      1.000000
  0.083333  0.000000 -0.000000      6.000000
  0.166667  0.000000 -0.000000      6.000000
  0.250000  0.000000  0.000000      6.000000
  0.333333  0.000000  0.000000      6.000000
  0.416667  0.000000  0.000000      6.000000
  0.500000  0.000000  0.000000      3.000000
  0.083333  0.083333 -0.000000      6.000000
  0.166667  0.083333  0.000000     12.000000
  0.250000  0.083333 -0.000000     12.000000
  0.333333  0.083333  0.000000     12.000000
  0.416667  0.083333 -0.000000     12.000000
  0.500000  0.083333 -0.000000     12.000000
 -0.416667  0.083333 -0.000000     12.000000
 -0.333333  0.083333  0.000000     12.000000
 -0.250000  0.083333  0.000000     12.000000
 -0.166667  0.083333 -0.000000     12.000000
 -0.083333  0.083333 -0.000000      6.000000
  0.166667  0.166667 -0.000000      6.000000
  0.250000  0.166667 -0.000000     12.000000
  0.333333  0.166667  0.000000     12.000000
  0.416667  0.166667 -0.000000     12.000000
  0.500000  0.166667  0.000000     12.000000
 -0.416667  0.166667 -0.000000     12.000000
 -0.333333  0.166667 -0.000000     12.000000
 -0.250000  0.166667 -0.000000     12.000000
 -0.166667  0.166667 -0.000000      6.000000
  0.250000  0.250000 -0.000000      6.000000
  0.333333  0.250000 -0.000000     12.000000
  0.416667  0.250000 -0.000000     12.000000
  0.500000  0.250000 -0.000000     12.000000
 -0.416667  0.250000  0.000000     12.000000
 -0.333333  0.250000  0.000000     12.000000
 -0.250000  0.250000 -0.000000      6.000000
  0.333333  0.333333  0.000000      6.000000
  0.416667  0.333333  0.000000     12.000000
  0.500000  0.333333 -0.000000     12.000000
 -0.416667  0.333333 -0.000000     12.000000
 -0.333333  0.333333  0.000000      6.000000
  0.416667  0.416667  0.000000      6.000000
  0.500000  0.416667 -0.000000     12.000000
 -0.416667  0.416667  0.000000      6.000000
  0.500000  0.500000 -0.000000      3.000000
  0.083333  0.083333  0.083333      2.000000
  0.166667  0.083333  0.083333      6.000000
  0.250000  0.083333  0.083333      6.000000
  0.333333  0.083333  0.083333      6.000000
  0.416667  0.083333  0.083333      6.000000
  0.500000  0.083333  0.083333      6.000000
 -0.416667  0.083333  0.083333      6.000000
 -0.333333  0.083333  0.083333      6.000000
 -0.250000  0.083333  0.083333      6.000000
 -0.166667  0.083333  0.083333      6.000000
 -0.083333  0.083333  0.083333      6.000000
  0.166667  0.166667  0.083333      6.000000
  0.250000  0.166667  0.083333     12.000000
  0.333333  0.166667  0.083333     12.000000
  0.416667  0.166667  0.083333     12.000000
  0.500000  0.166667  0.083333     12.000000
 -0.416667  0.166667  0.083333     12.000000
 -0.333333  0.166667  0.083333     12.000000
 -0.250000  0.166667  0.083333     12.000000
 -0.166667  0.166667  0.083333     12.000000
 -0.083333  0.166667  0.083333     12.000000
  0.250000  0.250000  0.083333      6.000000
  0.333333  0.250000  0.083333     12.000000
  0.416667  0.250000  0.083333     12.000000
  0.500000  0.250000  0.083333     12.000000
 -0.416667  0.250000  0.083333     12.000000
 -0.333333  0.250000  0.083333     12.000000
 -0.250000  0.250000  0.083333     12.000000
 -0.166667  0.250000  0.083333     12.000000
 -0.083333  0.250000  0.083333     12.000000
  0.333333  0.333333  0.083333      6.000000
  0.416667  0.333333  0.083333     12.000000
  0.500000  0.333333  0.083333     12.000000
 -0.416667  0.333333  0.083333     12.000000
 -0.333333  0.333333  0.083333     12.000000
 -0.250000  0.333333  0.083333     12.000000
 -0.166667  0.333333  0.083333     12.000000
 -0.083333  0.333333  0.083333     12.000000
  0.416667  0.416667  0.083333      6.000000
  0.500000  0.416667  0.083333     12.000000
 -0.416667  0.416667  0.083333     12.000000
 -0.333333  0.416667  0.083333     12.000000
 -0.250000  0.416667  0.083333     12.000000
 -0.166667  0.416667  0.083333     12.000000
 -0.083333  0.416667  0.083333     12.000000
  0.500000  0.500000  0.083333      6.000000
 -0.416667  0.500000  0.083333     12.000000
 -0.333333  0.500000  0.083333     12.000000
 -0.250000  0.500000  0.083333     12.000000
 -0.166667  0.500000  0.083333     12.000000
 -0.083333  0.500000  0.083333      6.000000
 -0.416667 -0.416667  0.083333      6.000000
 -0.333333 -0.416667  0.083333     12.000000
 -0.250000 -0.416667  0.083333     12.000000
 -0.166667 -0.416667  0.083333     12.000000
 -0.333333 -0.333333  0.083333      6.000000
 -0.250000 -0.333333  0.083333     12.000000
 -0.166667 -0.333333  0.083333     12.000000
 -0.250000 -0.250000  0.083333      6.000000
 -0.166667 -0.250000  0.083333     12.000000
 -0.166667 -0.166667  0.083333      6.000000
  0.166667  0.166667  0.166667      2.000000
  0.250000  0.166667  0.166667      6.000000
  0.333333  0.166667  0.166667      6.000000
  0.416667  0.166667  0.166667      6.000000
  0.500000  0.166667  0.166667      6.000000
 -0.416667  0.166667  0.166667      6.000000
 -0.333333  0.166667  0.166667      6.000000
 -0.250000  0.166667  0.166667      6.000000
 -0.166667  0.166667  0.166667      6.000000
  0.250000  0.250000  0.166667      6.000000
  0.333333  0.250000  0.166667     12.000000
  0.416667  0.250000  0.166667     12.000000
  0.500000  0.250000  0.166667     12.000000
 -0.416667  0.250000  0.166667     12.000000
 -0.333333  0.250000  0.166667     12.000000
 -0.250000  0.250000  0.166667     12.000000
 -0.166667  0.250000  0.166667     12.000000
  0.333333  0.333333  0.166667      6.000000
  0.416667  0.333333  0.166667     12.000000
  0.500000  0.333333  0.166667     12.000000
 -0.416667  0.333333  0.166667     12.000000
 -0.333333  0.333333  0.166667     12.000000
 -0.250000  0.333333  0.166667     12.000000
 -0.166667  0.333333  0.166667     12.000000
  0.416667  0.416667  0.166667      6.000000
  0.500000  0.416667  0.166667     12.000000
 -0.416667  0.416667  0.166667     12.000000
 -0.333333  0.416667  0.166667     12.000000
 -0.250000  0.416667  0.166667     12.000000
 -0.166667  0.416667  0.166667     12.000000
  0.500000  0.500000  0.166667      6.000000
 -0.416667  0.500000  0.166667     12.000000
 -0.333333  0.500000  0.166667     12.000000
 -0.250000  0.500000  0.166667     12.000000
 -0.166667  0.500000  0.166667      6.000000
 -0.416667 -0.416667  0.166667      6.000000
 -0.333333 -0.416667  0.166667     12.000000
 -0.250000 -0.416667  0.166667     12.000000
 -0.333333 -0.333333  0.166667      6.000000
 -0.250000 -0.333333  0.166667     12.000000
 -0.250000 -0.250000  0.166667      6.000000
  0.250000  0.250000  0.250000      2.000000
  0.333333  0.250000  0.250000      6.000000
  0.416667  0.250000  0.250000      6.000000
  0.500000  0.250000  0.250000      6.000000
 -0.416667  0.250000  0.250000      6.000000
 -0.333333  0.250000  0.250000      6.000000
 -0.250000  0.250000  0.250000      6.000000
  0.333333  0.333333  0.250000      6.000000
  0.416667  0.333333  0.250000     12.000000
  0.500000  0.333333  0.250000     12.000000
 -0.416667  0.333333  0.250000     12.000000
 -0.333333  0.333333  0.250000     12.000000
 -0.250000  0.333333  0.250000     12.000000
  0.416667  0.416667  0.250000      6.000000
  0.500000  0.416667  0.250000     12.000000
 -0.416667  0.416667  0.250000     12.000000
 -0.333333  0.416667  0.250000     12.000000
 -0.250000  0.416667  0.250000     12.000000
  0.500000  0.500000  0.250000      6.000000
 -0.416667  0.500000  0.250000     12.000000
 -0.333333  0.500000  0.250000     12.000000
 -0.250000  0.500000  0.250000      6.000000
 -0.416667 -0.416667  0.250000      6.000000
 -0.333333 -0.416667  0.250000     12.000000
 -0.333333 -0.333333  0.250000      6.000000
  0.333333  0.333333  0.333333      2.000000
  0.416667  0.333333  0.333333      6.000000
  0.500000  0.333333  0.333333      6.000000
 -0.416667  0.333333  0.333333      6.000000
 -0.333333  0.333333  0.333333      6.000000
  0.416667  0.416667  0.333333      6.000000
  0.500000  0.416667  0.333333     12.000000
 -0.416667  0.416667  0.333333     12.000000
 -0.333333  0.416667  0.333333     12.000000
  0.500000  0.500000  0.333333      6.000000
 -0.416667  0.500000  0.333333     12.000000
 -0.333333  0.500000  0.333333      6.000000
 -0.416667 -0.416667  0.333333      6.000000
  0.416667  0.416667  0.416667      2.000000
  0.500000  0.416667  0.416667      6.000000
 -0.416667  0.416667  0.416667      6.000000
  0.500000  0.500000  0.416667      6.000000
 -0.416667  0.500000  0.416667      6.000000
  0.500000  0.500000  0.500000      1.000000
 
 Following cartesian coordinates:
            Coordinates               Weight
  0.000000  0.000000  0.000000      1.000000
  0.023318 -0.001167 -0.001113      6.000000
  0.046637 -0.002335 -0.002226      6.000000
  0.069955 -0.003502 -0.003339      6.000000
  0.093274 -0.004670 -0.004452      6.000000
  0.116592 -0.005837 -0.005565      6.000000
  0.139911 -0.007004 -0.006678      3.000000
  0.023318  0.022180 -0.002226      6.000000
  0.046637  0.021013 -0.003339     12.000000
  0.069955  0.019846 -0.004452     12.000000
  0.093274  0.018678 -0.005565     12.000000
  0.116592  0.017511 -0.006678     12.000000
  0.139911  0.016343 -0.007791     12.000000
 -0.116592  0.029185  0.004452     12.000000
 -0.093274  0.028017  0.003339     12.000000
 -0.069955  0.026850  0.002226     12.000000
 -0.046637  0.025682  0.001113     12.000000
 -0.023318  0.024515 -0.000000      6.000000
  0.046637  0.044361 -0.004452      6.000000
  0.069955  0.043193 -0.005565     12.000000
  0.093274  0.042026 -0.006678     12.000000
  0.116592  0.040858 -0.007791     12.000000
  0.139911  0.039691 -0.008904     12.000000
 -0.116592  0.052532  0.003339     12.000000
 -0.093274  0.051365  0.002226     12.000000
 -0.069955  0.050197  0.001113     12.000000
 -0.046637  0.049030 -0.000000      6.000000
  0.069955  0.066541 -0.006678      6.000000
  0.093274  0.065373 -0.007791     12.000000
  0.116592  0.064206 -0.008904     12.000000
  0.139911  0.063039 -0.010017     12.000000
 -0.116592  0.075880  0.002226     12.000000
 -0.093274  0.074712  0.001113     12.000000
 -0.069955  0.073545 -0.000000      6.000000
  0.093274  0.088721 -0.008904      6.000000
  0.116592  0.087554 -0.010017     12.000000
  0.139911  0.086386 -0.011131     12.000000
 -0.116592  0.099227  0.001113     12.000000
 -0.093274  0.098060 -0.000000      6.000000
  0.116592  0.110901 -0.011131      6.000000
  0.139911  0.109734 -0.012244     12.000000
 -0.116592  0.122575 -0.000000      6.000000
  0.139911  0.133082 -0.013357      3.000000
  0.023318  0.022180  0.021148      2.000000
  0.046637  0.021013  0.020035      6.000000
  0.069955  0.019846  0.018922      6.000000
  0.093274  0.018678  0.017809      6.000000
  0.116592  0.017511  0.016696      6.000000
  0.139911  0.016343  0.015583      6.000000
 -0.116592  0.029185  0.027826      6.000000
 -0.093274  0.028017  0.026713      6.000000
 -0.069955  0.026850  0.025600      6.000000
 -0.046637  0.025682  0.024487      6.000000
 -0.023318  0.024515  0.023374      6.000000
  0.046637  0.044361  0.018922      6.000000
  0.069955  0.043193  0.017809     12.000000
  0.093274  0.042026  0.016696     12.000000
  0.116592  0.040858  0.015583     12.000000
  0.139911  0.039691  0.014470     12.000000
 -0.116592  0.052532  0.026713     12.000000
 -0.093274  0.051365  0.025600     12.000000
 -0.069955  0.050197  0.024487     12.000000
 -0.046637  0.049030  0.023374     12.000000
 -0.023318  0.047863  0.022261     12.000000
  0.069955  0.066541  0.016696      6.000000
  0.093274  0.065373  0.015583     12.000000
  0.116592  0.064206  0.014470     12.000000
  0.139911  0.063039  0.013357     12.000000
 -0.116592  0.075880  0.025600     12.000000
 -0.093274  0.074712  0.024487     12.000000
 -0.069955  0.073545  0.023374     12.000000
 -0.046637  0.072378  0.022261     12.000000
 -0.023318  0.071210  0.021148     12.000000
  0.093274  0.088721  0.014470      6.000000
  0.116592  0.087554  0.013357     12.000000
  0.139911  0.086386  0.012244     12.000000
 -0.116592  0.099227  0.024487     12.000000
 -0.093274  0.098060  0.023374     12.000000
 -0.069955  0.096893  0.022261     12.000000
 -0.046637  0.095725  0.021148     12.000000
 -0.023318  0.094558  0.020035     12.000000
  0.116592  0.110901  0.012244      6.000000
  0.139911  0.109734  0.011131     12.000000
 -0.116592  0.122575  0.023374     12.000000
 -0.093274  0.121408  0.022261     12.000000
 -0.069955  0.120240  0.021148     12.000000
 -0.046637  0.119073  0.020035     12.000000
 -0.023318  0.117906  0.018922     12.000000
  0.139911  0.133082  0.010018      6.000000
 -0.116592  0.145923  0.022261     12.000000
 -0.093274  0.144755  0.021148     12.000000
 -0.069955  0.143588  0.020035     12.000000
 -0.046637  0.142421  0.018922     12.000000
 -0.023318  0.141253  0.017809      6.000000
 -0.116592 -0.110901  0.034505      6.000000
 -0.093274 -0.112069  0.033392     12.000000
 -0.069955 -0.113236  0.032279     12.000000
 -0.046637 -0.114403  0.031166     12.000000
 -0.093274 -0.088721  0.032279      6.000000
 -0.069955 -0.089888  0.031166     12.000000
 -0.046637 -0.091056  0.030052     12.000000
 -0.069955 -0.066541  0.030052      6.000000
 -0.046637 -0.067708  0.028939     12.000000
 -0.046637 -0.044361  0.027826      6.000000
  0.046637  0.044361  0.042296      2.000000
  0.069955  0.043193  0.041183      6.000000
  0.093274  0.042026  0.040070      6.000000
  0.116592  0.040858  0.038957      6.000000
  0.139911  0.039691  0.037844      6.000000
 -0.116592  0.052532  0.050087      6.000000
 -0.093274  0.051365  0.048974      6.000000
 -0.069955  0.050197  0.047861      6.000000
 -0.046637  0.049030  0.046748      6.000000
  0.069955  0.066541  0.040070      6.000000
  0.093274  0.065373  0.038957     12.000000
  0.116592  0.064206  0.037844     12.000000
  0.139911  0.063039  0.036731     12.000000
 -0.116592  0.075880  0.048974     12.000000
 -0.093274  0.074712  0.047861     12.000000
 -0.069955  0.073545  0.046748     12.000000
 -0.046637  0.072378  0.045635     12.000000
  0.093274  0.088721  0.037844      6.000000
  0.116592  0.087554  0.036731     12.000000
  0.139911  0.086386  0.035618     12.000000
 -0.116592  0.099227  0.047861     12.000000
 -0.093274  0.098060  0.046748     12.000000
 -0.069955  0.096893  0.045635     12.000000
 -0.046637  0.095725  0.044522     12.000000
  0.116592  0.110901  0.035618      6.000000
  0.139911  0.109734  0.034505     12.000000
 -0.116592  0.122575  0.046748     12.000000
 -0.093274  0.121408  0.045635     12.000000
 -0.069955  0.120240  0.044522     12.000000
 -0.046637  0.119073  0.043409     12.000000
  0.139911  0.133082  0.033392      6.000000
 -0.116592  0.145923  0.045635     12.000000
 -0.093274  0.144755  0.044522     12.000000
 -0.069955  0.143588  0.043409     12.000000
 -0.046637  0.142421  0.042296      6.000000
 -0.116592 -0.110901  0.057879      6.000000
 -0.093274 -0.112069  0.056766     12.000000
 -0.069955 -0.113236  0.055653     12.000000
 -0.093274 -0.088721  0.055653      6.000000
 -0.069955 -0.089888  0.054540     12.000000
 -0.069955 -0.066541  0.053427      6.000000
  0.069955  0.066541  0.063444      2.000000
  0.093274  0.065373  0.062331      6.000000
  0.116592  0.064206  0.061218      6.000000
  0.139911  0.063039  0.060105      6.000000
 -0.116592  0.075880  0.072349      6.000000
 -0.093274  0.074712  0.071236      6.000000
 -0.069955  0.073545  0.070122      6.000000
  0.093274  0.088721  0.061218      6.000000
  0.116592  0.087554  0.060105     12.000000
  0.139911  0.086386  0.058992     12.000000
 -0.116592  0.099227  0.071236     12.000000
 -0.093274  0.098060  0.070122     12.000000
 -0.069955  0.096893  0.069009     12.000000
  0.116592  0.110901  0.058992      6.000000
  0.139911  0.109734  0.057879     12.000000
 -0.116592  0.122575  0.070122     12.000000
 -0.093274  0.121408  0.069009     12.000000
 -0.069955  0.120240  0.067896     12.000000
  0.139911  0.133082  0.056766      6.000000
 -0.116592  0.145923  0.069009     12.000000
 -0.093274  0.144755  0.067896     12.000000
 -0.069955  0.143588  0.066783      6.000000
 -0.116592 -0.110901  0.081253      6.000000
 -0.093274 -0.112069  0.080140     12.000000
 -0.093274 -0.088721  0.079027      6.000000
  0.093274  0.088721  0.084592      2.000000
  0.116592  0.087554  0.083479      6.000000
  0.139911  0.086386  0.082366      6.000000
 -0.116592  0.099227  0.094610      6.000000
 -0.093274  0.098060  0.093497      6.000000
  0.116592  0.110901  0.082366      6.000000
  0.139911  0.109734  0.081253     12.000000
 -0.116592  0.122575  0.093497     12.000000
 -0.093274  0.121408  0.092384     12.000000
  0.139911  0.133082  0.080140      6.000000
 -0.116592  0.145923  0.092384     12.000000
 -0.093274  0.144755  0.091270      6.000000
 -0.116592 -0.110901  0.104627      6.000000
  0.116592  0.110901  0.105740      2.000000
  0.139911  0.109734  0.104627      6.000000
 -0.116592  0.122575  0.116871      6.000000
  0.139911  0.133082  0.103514      6.000000
 -0.116592  0.145923  0.115758      6.000000
  0.139911  0.133082  0.126888      1.000000
 
 TETIRR: Found    864 inequivalent tetrahedra from    10368


--------------------------------------------------------------------------------------------------------




 Dimension of arrays:
   k-points           NKPTS =    189   k-points in BZ     NKDIM =    189   number of bands    NBANDS=     24
   number of dos      NEDOS =    301   number of ions     NIONS =      8
   non local maximal  LDIM  =      4   non local SUM 2l+1 LMDIM =      8
   total plane-waves  NPLWV =  13824
   max r-space proj   IRMAX =      1   max aug-charges    IRDMAX=   3738
   dimension x,y,z NGX =    24 NGY =   24 NGZ =   24
   dimension x,y,z NGXF=    48 NGYF=   48 NGZF=   48
   support grid    NGXF=    48 NGYF=   48 NGZF=   48
   ions per type =               8
   NGX,Y,Z   is equivalent  to a cutoff of  11.11, 11.11, 11.11 a.u.
   NGXF,Y,Z  is equivalent  to a cutoff of  22.23, 22.23, 22.23 a.u.

 SYSTEM =  unknown system                          
 POSCAR =  C8                                      

 Startparameter for this run:
   NWRITE =      2    write-flag & timer
   PREC   = accura    normal or accurate (medium, high low for compatibility)
   ISTART =      0    job   : 0-new  1-cont  2-samecut
   ICHARG =      2    charge: 1-file 2-atom 10-const
   ISPIN  =      1    spin polarized calculation?
   LNONCOLLINEAR =      F non collinear calculations
   LSORBIT =      F    spin-orbit coupling
   INIWAV =      1    electr: 0-lowe 1-rand  2-diag
   LASPH  =      F    aspherical Exc in radial PAW
   METAGGA=      F    non-selfconsistent MetaGGA calc.

 Electronic Relaxation 1
   ENCUT  =  400.0 eV  29.40 Ry    5.42 a.u.   5.85  5.85  5.85*2*pi/ulx,y,z
   ENINI  =  400.0     initial cutoff
   ENAUG  =  644.9 eV  augmentation charge cutoff
   NELM   =     60;   NELMIN=  2; NELMDL= -5     # of ELM steps 
   EDIFF  = 0.1E-05   stopping-criterion for ELM
   LREAL  =      F    real-space projection
   NLSPLINE    = F    spline interpolate recip. space projectors
   LCOMPAT=      F    compatible to vasp.4.4
   GGA_COMPAT  = T    GGA compatible to vasp.4.4-vasp.4.6
   LMAXPAW     = -100 max onsite density
   LMAXMIX     =    2 max onsite mixed and CHGCAR
   VOSKOWN=      0    Vosko Wilk Nusair interpolation
   ROPT   =    0.00000
 Ionic relaxation
   EDIFFG = 0.1E-04   stopping-criterion for IOM
   NSW    =      0    number of steps for IOM
   NBLOCK =      1;   KBLOCK =      1    inner block; outer block 
   IBRION =     -1    ionic relax: 0-MD 1-quasi-New 2-CG
   NFREE  =      0    steps in history (QN), initial steepest desc. (CG)
   ISIF   =      2    stress and relaxation
   IWAVPR =     10    prediction:  0-non 1-charg 2-wave 3-comb
   ISYM   =      2    0-nonsym 1-usesym 2-fastsym
   LCORR  =      T    Harris-Foulkes like correction to forces

   POTIM  = 0.0200    time-step for ionic-motion
   TEIN   =    0.0    initial temperature
   TEBEG  =    0.0;   TEEND  =   0.0 temperature during run
   SMASS  =  -3.00    Nose mass-parameter (am)
   estimated Nose-frequenzy (Omega)   =  0.10E-29 period in steps =****** mass=  -0.295E-27a.u.
   SCALEE = 1.0000    scale energy and forces
   NPACO  =    256;   APACO  = 16.0  distance and # of slots for P.C.
   PSTRESS=    0.0 pullay stress

  Mass of Ions in am
   POMASS =  12.01
  Ionic Valenz
   ZVAL   =   4.00
  Atomic Wigner-Seitz radii
   RWIGS  =  -1.00
  virtual crystal weights 
   VCA    =   1.00
   NELECT =      32.0000    total number of electrons
   NUPDOWN=      -1.0000    fix difference up-down

 DOS related values:
   EMIN   =  10.00;   EMAX   =-10.00  energy-range for DOS
   EFERMI =   0.00
   ISMEAR =    -5;   SIGMA  =   0.06  broadening in eV -4-tet -1-fermi 0-gaus

 Electronic relaxation 2 (details)
   IALGO  =     38    algorithm
   LDIAG  =      T    sub-space diagonalisation (order eigenvalues)
   LSUBROT=      F    optimize rotation matrix (better conditioning)
   TURBO    =      0    0=normal 1=particle mesh
   IRESTART =      0    0=no restart 2=restart with 2 vectors
   NREBOOT  =      0    no. of reboots
   NMIN     =      0    reboot dimension
   EREF     =   0.00    reference energy to select bands
   IMIX   =      4    mixing-type and parameters
     AMIX     =   0.40;   BMIX     =  1.00
     AMIX_MAG =   1.60;   BMIX_MAG =  1.00
     AMIN     =   0.10
     WC   =   100.;   INIMIX=   1;  MIXPRE=   1;  MAXMIX= -45

 Intra band minimization:
   WEIMIN = 0.0000     energy-eigenvalue tresh-hold
   EBREAK =  0.10E-07  absolut break condition
   DEPER  =   0.30     relativ break condition  

   TIME   =   0.40     timestep for ELM

  volume/ion in A,a.u.               =       5.76        38.89
  Fermi-wavevector in a.u.,A,eV,Ry     =   1.449519  2.739193 28.587260  2.101104
  Thomas-Fermi vector in A             =   2.567236
 
 Write flags
   LWAVE        =      F    write WAVECAR
   LDOWNSAMPLE  =      F    k-point downsampling of WAVECAR
   LCHARG       =      F    write CHGCAR
   LVTOT        =      F    write LOCPOT, total local potential
   LVHAR        =      F    write LOCPOT, Hartree potential only
   LELF         =      F    write electronic localiz. function (ELF)
   LORBIT       =      0    0 simple, 1 ext, 2 COOP (PROOUT), +10 PAW based schemes


 Dipole corrections
   LMONO  =      F    monopole corrections only (constant potential shift)
   LDIPOL =      F    correct potential (dipole corrections)
   IDIPOL =      0    1-x, 2-y, 3-z, 4-all directions 
   EPSILON=  1.0000000 bulk dielectric constant

 Exchange correlation treatment:
   GGA     =    --    GGA type
   LEXCH   =     8    internal setting for exchange type
   VOSKOWN=      0    Vosko Wilk Nusair interpolation
   LHFCALC =     F    Hartree Fock is set to
   LHFONE  =     F    Hartree Fock one center treatment
   AEXX    =    0.0000 exact exchange contribution

 Linear response parameters
   LEPSILON=     F    determine dielectric tensor
   LRPA    =     F    only Hartree local field effects (RPA)
   LNABLA  =     F    use nabla operator in PAW spheres
   LVEL    =     F    velocity operator in full k-point grid
   LINTERFAST=   F  fast interpolation
   KINTER  =     0    interpolate to denser k-point grid
   CSHIFT  =0.1000    complex shift for real part using Kramers Kronig
   OMEGAMAX=  -1.0    maximum frequency
   DEG_THRESHOLD= 0.2000000E-02 threshold for treating states as degnerate
   RTIME   =   -0.100 relaxation time in fs
  (WPLASMAI=    0.000 imaginary part of plasma frequency in eV, 0.658/RTIME)
   DFIELD  = 0.0000000 0.0000000 0.0000000 field for delta impulse in time
 
 Orbital magnetization related:
   ORBITALMAG=     F  switch on orbital magnetization
   LCHIMAG   =     F  perturbation theory with respect to B field
   DQ        =  0.001000  dq finite difference perturbation B field
   LLRAUG    =     F  two centre corrections for induced B field



--------------------------------------------------------------------------------------------------------


 Static calculation
 charge density and potential will be updated during run
 non-spin polarized calculation
 Variant of blocked Davidson
 Davidson routine will perform the subspace rotation
 perform sub-space diagonalisation
    after iterative eigenvector-optimisation
 modified Broyden-mixing scheme, WC =      100.0
 initial mixing is a Kerker type mixing with AMIX =  0.4000 and BMIX =      1.0000
 Hartree-type preconditioning will be used
 using additional bands            8
 reciprocal scheme for non local part
 calculate Harris-corrections to forces 
   (improved forces if not selfconsistent)
 use gradient corrections 
 use of overlap-Matrix (Vanderbilt PP)
 Fermi weights with tetrahedron method with Bloechl corrections


--------------------------------------------------------------------------------------------------------


  energy-cutoff  :      400.00
  volume of cell :       46.10
      direct lattice vectors                 reciprocal lattice vectors
     3.589999359  0.000000000  0.000000000     0.278551582 -0.013944983 -0.013296018
     0.179499466  3.585508984  0.000000000     0.000000000  0.278900431 -0.013296071
     0.179499466  0.170738714  3.581441528     0.000000000  0.000000000  0.279217179

  length of vectors
     3.589999359  3.589999267  3.589999330     0.279217174  0.279217184  0.279217179


 
 k-points in units of 2pi/SCALE and weight: kpt_density=1000                        
   0.00000000  0.00000000  0.00000000       0.001
   0.02331844 -0.00116738 -0.00111305       0.003
   0.04663688 -0.00233476 -0.00222610       0.003
   0.06995531 -0.00350214 -0.00333916       0.003
   0.09327375 -0.00466952 -0.00445221       0.003
   0.11659219 -0.00583689 -0.00556526       0.003
   0.13991063 -0.00700427 -0.00667831       0.002
   0.02331844  0.02218026 -0.00222611       0.003
   0.04663688  0.02101288 -0.00333916       0.007
   0.06995531  0.01984550 -0.00445221       0.007
   0.09327375  0.01867813 -0.00556526       0.007
   0.11659219  0.01751075 -0.00667832       0.007
   0.13991063  0.01634337 -0.00779137       0.007
  -0.11659219  0.02918453  0.00445220       0.007
  -0.09327375  0.02801716  0.00333915       0.007
  -0.06995531  0.02684978  0.00222610       0.007
  -0.04663688  0.02568240  0.00111305       0.007
  -0.02331844  0.02451502 -0.00000000       0.003
   0.04663688  0.04436052 -0.00445222       0.003
   0.06995531  0.04319315 -0.00556527       0.007
   0.09327375  0.04202577 -0.00667832       0.007
   0.11659219  0.04085839 -0.00779137       0.007
   0.13991063  0.03969101 -0.00890442       0.007
  -0.11659219  0.05253218  0.00333915       0.007
  -0.09327375  0.05136480  0.00222609       0.007
  -0.06995531  0.05019742  0.00111304       0.007
  -0.04663688  0.04903004 -0.00000001       0.003
   0.06995531  0.06654079 -0.00667832       0.003
   0.09327375  0.06537341 -0.00779138       0.007
   0.11659219  0.06420603 -0.00890443       0.007
   0.13991063  0.06303865 -0.01001748       0.007
  -0.11659219  0.07587982  0.00222609       0.007
  -0.09327375  0.07471244  0.00111304       0.007
  -0.06995531  0.07354506 -0.00000001       0.003
   0.09327375  0.08872105 -0.00890443       0.003
   0.11659219  0.08755367 -0.01001748       0.007
   0.13991063  0.08638629 -0.01113054       0.007
  -0.11659219  0.09922746  0.00111303       0.007
  -0.09327375  0.09806008 -0.00000002       0.003
   0.11659219  0.11090131 -0.01113054       0.003
   0.13991063  0.10973393 -0.01224359       0.007
  -0.11659219  0.12257510 -0.00000002       0.003
   0.13991063  0.13308157 -0.01335665       0.002
   0.02331844  0.02218026  0.02114805       0.001
   0.04663688  0.02101288  0.02003500       0.003
   0.06995531  0.01984550  0.01892194       0.003
   0.09327375  0.01867813  0.01780889       0.003
   0.11659219  0.01751075  0.01669584       0.003
   0.13991063  0.01634337  0.01558279       0.003
  -0.11659219  0.02918453  0.02782636       0.003
  -0.09327375  0.02801716  0.02671331       0.003
  -0.06995531  0.02684978  0.02560026       0.003
  -0.04663688  0.02568240  0.02448720       0.003
  -0.02331844  0.02451502  0.02337415       0.003
   0.04663688  0.04436052  0.01892194       0.003
   0.06995531  0.04319315  0.01780889       0.007
   0.09327375  0.04202577  0.01669584       0.007
   0.11659219  0.04085839  0.01558278       0.007
   0.13991063  0.03969101  0.01446973       0.007
  -0.11659219  0.05253218  0.02671330       0.007
  -0.09327375  0.05136480  0.02560025       0.007
  -0.06995531  0.05019742  0.02448720       0.007
  -0.04663688  0.04903004  0.02337415       0.007
  -0.02331844  0.04786266  0.02226110       0.007
   0.06995531  0.06654079  0.01669583       0.003
   0.09327375  0.06537341  0.01558278       0.007
   0.11659219  0.06420603  0.01446973       0.007
   0.13991063  0.06303865  0.01335668       0.007
  -0.11659219  0.07587982  0.02560025       0.007
  -0.09327375  0.07471244  0.02448720       0.007
  -0.06995531  0.07354506  0.02337414       0.007
  -0.04663688  0.07237768  0.02226109       0.007
  -0.02331844  0.07121030  0.02114804       0.007
   0.09327375  0.08872105  0.01446972       0.003
   0.11659219  0.08755367  0.01335667       0.007
   0.13991063  0.08638629  0.01224362       0.007
  -0.11659219  0.09922746  0.02448719       0.007
  -0.09327375  0.09806008  0.02337414       0.007
  -0.06995531  0.09689270  0.02226109       0.007
  -0.04663688  0.09572532  0.02114804       0.007
  -0.02331844  0.09455794  0.02003498       0.007
   0.11659219  0.11090131  0.01224362       0.003
   0.13991063  0.10973393  0.01113056       0.007
  -0.11659219  0.12257510  0.02337413       0.007
  -0.09327375  0.12140772  0.02226108       0.007
  -0.06995531  0.12024034  0.02114803       0.007
  -0.04663688  0.11907296  0.02003498       0.007
  -0.02331844  0.11790558  0.01892193       0.007
   0.13991063  0.13308157  0.01001751       0.003
  -0.11659219  0.14592274  0.02226108       0.007
  -0.09327375  0.14475536  0.02114803       0.007
  -0.06995531  0.14358798  0.02003497       0.007
  -0.04663688  0.14242060  0.01892192       0.007
  -0.02331844  0.14125322  0.01780887       0.003
  -0.11659219 -0.11090131  0.03450470       0.003
  -0.09327375 -0.11206869  0.03339165       0.007
  -0.06995531 -0.11323607  0.03227859       0.007
  -0.04663688 -0.11440345  0.03116554       0.007
  -0.09327375 -0.08872105  0.03227859       0.003
  -0.06995531 -0.08988843  0.03116554       0.007
  -0.04663688 -0.09105581  0.03005249       0.007
  -0.06995531 -0.06654079  0.03005248       0.003
  -0.04663688 -0.06770816  0.02893943       0.007
  -0.04663688 -0.04436052  0.02782637       0.003
   0.04663688  0.04436052  0.04229610       0.001
   0.06995531  0.04319315  0.04118305       0.003
   0.09327375  0.04202577  0.04006999       0.003
   0.11659219  0.04085839  0.03895694       0.003
   0.13991063  0.03969101  0.03784389       0.003
  -0.11659219  0.05253218  0.05008746       0.003
  -0.09327375  0.05136480  0.04897441       0.003
  -0.06995531  0.05019742  0.04786136       0.003
  -0.04663688  0.04903004  0.04674830       0.003
   0.06995531  0.06654079  0.04006999       0.003
   0.09327375  0.06537341  0.03895694       0.007
   0.11659219  0.06420603  0.03784389       0.007
   0.13991063  0.06303865  0.03673083       0.007
  -0.11659219  0.07587982  0.04897440       0.007
  -0.09327375  0.07471244  0.04786135       0.007
  -0.06995531  0.07354506  0.04674830       0.007
  -0.04663688  0.07237768  0.04563525       0.007
   0.09327375  0.08872105  0.03784388       0.003
   0.11659219  0.08755367  0.03673083       0.007
   0.13991063  0.08638629  0.03561778       0.007
  -0.11659219  0.09922746  0.04786135       0.007
  -0.09327375  0.09806008  0.04674830       0.007
  -0.06995531  0.09689270  0.04563524       0.007
  -0.04663688  0.09572532  0.04452219       0.007
   0.11659219  0.11090131  0.03561777       0.003
   0.13991063  0.10973393  0.03450472       0.007
  -0.11659219  0.12257510  0.04674829       0.007
  -0.09327375  0.12140772  0.04563524       0.007
  -0.06995531  0.12024034  0.04452219       0.007
  -0.04663688  0.11907296  0.04340914       0.007
   0.13991063  0.13308157  0.03339166       0.003
  -0.11659219  0.14592274  0.04563524       0.007
  -0.09327375  0.14475536  0.04452218       0.007
  -0.06995531  0.14358798  0.04340913       0.007
  -0.04663688  0.14242060  0.04229608       0.003
  -0.11659219 -0.11090131  0.05787885       0.003
  -0.09327375 -0.11206869  0.05676580       0.007
  -0.06995531 -0.11323607  0.05565275       0.007
  -0.09327375 -0.08872105  0.05565275       0.003
  -0.06995531 -0.08988843  0.05453969       0.007
  -0.06995531 -0.06654079  0.05342664       0.003
   0.06995531  0.06654079  0.06344415       0.001
   0.09327375  0.06537341  0.06233109       0.003
   0.11659219  0.06420603  0.06121804       0.003
   0.13991063  0.06303865  0.06010499       0.003
  -0.11659219  0.07587982  0.07234856       0.003
  -0.09327375  0.07471244  0.07123551       0.003
  -0.06995531  0.07354506  0.07012246       0.003
   0.09327375  0.08872105  0.06121804       0.003
   0.11659219  0.08755367  0.06010499       0.007
   0.13991063  0.08638629  0.05899193       0.007
  -0.11659219  0.09922746  0.07123550       0.007
  -0.09327375  0.09806008  0.07012245       0.007
  -0.06995531  0.09689270  0.06900940       0.007
   0.11659219  0.11090131  0.05899193       0.003
   0.13991063  0.10973393  0.05787888       0.007
  -0.11659219  0.12257510  0.07012245       0.007
  -0.09327375  0.12140772  0.06900940       0.007
  -0.06995531  0.12024034  0.06789634       0.007
   0.13991063  0.13308157  0.05676582       0.003
  -0.11659219  0.14592274  0.06900939       0.007
  -0.09327375  0.14475536  0.06789634       0.007
  -0.06995531  0.14358798  0.06678329       0.003
  -0.11659219 -0.11090131  0.08125301       0.003
  -0.09327375 -0.11206869  0.08013996       0.007
  -0.09327375 -0.08872105  0.07902690       0.003
   0.09327375  0.08872105  0.08459219       0.001
   0.11659219  0.08755367  0.08347914       0.003
   0.13991063  0.08638629  0.08236609       0.003
  -0.11659219  0.09922746  0.09460966       0.003
  -0.09327375  0.09806008  0.09349661       0.003
   0.11659219  0.11090131  0.08236609       0.003
   0.13991063  0.10973393  0.08125303       0.007
  -0.11659219  0.12257510  0.09349660       0.007
  -0.09327375  0.12140772  0.09238355       0.007
   0.13991063  0.13308157  0.08013998       0.003
  -0.11659219  0.14592274  0.09238355       0.007
  -0.09327375  0.14475536  0.09127050       0.003
  -0.11659219 -0.11090131  0.10462717       0.003
   0.11659219  0.11090131  0.10574024       0.001
   0.13991063  0.10973393  0.10462719       0.003
  -0.11659219  0.12257510  0.11687076       0.003
   0.13991063  0.13308157  0.10351413       0.003
  -0.11659219  0.14592274  0.11575771       0.003
   0.13991063  0.13308157  0.12688829       0.001
 
 k-points in reciprocal lattice and weights: kpt_density=1000                        
   0.00000000  0.00000000  0.00000000       0.001
   0.08333333  0.00000000 -0.00000000       0.003
   0.16666667  0.00000000 -0.00000000       0.003
   0.25000000  0.00000000  0.00000000       0.003
   0.33333333  0.00000000  0.00000000       0.003
   0.41666667  0.00000000  0.00000000       0.003
   0.50000000  0.00000000  0.00000000       0.002
   0.08333333  0.08333333 -0.00000000       0.003
   0.16666667  0.08333333  0.00000000       0.007
   0.25000000  0.08333333 -0.00000000       0.007
   0.33333333  0.08333333  0.00000000       0.007
   0.41666667  0.08333333 -0.00000000       0.007
   0.50000000  0.08333333 -0.00000000       0.007
  -0.41666667  0.08333333 -0.00000000       0.007
  -0.33333333  0.08333333  0.00000000       0.007
  -0.25000000  0.08333333  0.00000000       0.007
  -0.16666667  0.08333333 -0.00000000       0.007
  -0.08333333  0.08333333 -0.00000000       0.003
   0.16666667  0.16666667 -0.00000000       0.003
   0.25000000  0.16666667 -0.00000000       0.007
   0.33333333  0.16666667  0.00000000       0.007
   0.41666667  0.16666667 -0.00000000       0.007
   0.50000000  0.16666667  0.00000000       0.007
  -0.41666667  0.16666667 -0.00000000       0.007
  -0.33333333  0.16666667 -0.00000000       0.007
  -0.25000000  0.16666667 -0.00000000       0.007
  -0.16666667  0.16666667 -0.00000000       0.003
   0.25000000  0.25000000 -0.00000000       0.003
   0.33333333  0.25000000 -0.00000000       0.007
   0.41666667  0.25000000 -0.00000000       0.007
   0.50000000  0.25000000 -0.00000000       0.007
  -0.41666667  0.25000000  0.00000000       0.007
  -0.33333333  0.25000000  0.00000000       0.007
  -0.25000000  0.25000000 -0.00000000       0.003
   0.33333333  0.33333333  0.00000000       0.003
   0.41666667  0.33333333  0.00000000       0.007
   0.50000000  0.33333333 -0.00000000       0.007
  -0.41666667  0.33333333 -0.00000000       0.007
  -0.33333333  0.33333333  0.00000000       0.003
   0.41666667  0.41666667  0.00000000       0.003
   0.50000000  0.41666667 -0.00000000       0.007
  -0.41666667  0.41666667  0.00000000       0.003
   0.50000000  0.50000000 -0.00000000       0.002
   0.08333333  0.08333333  0.08333333       0.001
   0.16666667  0.08333333  0.08333333       0.003
   0.25000000  0.08333333  0.08333333       0.003
   0.33333333  0.08333333  0.08333333       0.003
   0.41666667  0.08333333  0.08333333       0.003
   0.50000000  0.08333333  0.08333333       0.003
  -0.41666667  0.08333333  0.08333333       0.003
  -0.33333333  0.08333333  0.08333333       0.003
  -0.25000000  0.08333333  0.08333333       0.003
  -0.16666667  0.08333333  0.08333333       0.003
  -0.08333333  0.08333333  0.08333333       0.003
   0.16666667  0.16666667  0.08333333       0.003
   0.25000000  0.16666667  0.08333333       0.007
   0.33333333  0.16666667  0.08333333       0.007
   0.41666667  0.16666667  0.08333333       0.007
   0.50000000  0.16666667  0.08333333       0.007
  -0.41666667  0.16666667  0.08333333       0.007
  -0.33333333  0.16666667  0.08333333       0.007
  -0.25000000  0.16666667  0.08333333       0.007
  -0.16666667  0.16666667  0.08333333       0.007
  -0.08333333  0.16666667  0.08333333       0.007
   0.25000000  0.25000000  0.08333333       0.003
   0.33333333  0.25000000  0.08333333       0.007
   0.41666667  0.25000000  0.08333333       0.007
   0.50000000  0.25000000  0.08333333       0.007
  -0.41666667  0.25000000  0.08333333       0.007
  -0.33333333  0.25000000  0.08333333       0.007
  -0.25000000  0.25000000  0.08333333       0.007
  -0.16666667  0.25000000  0.08333333       0.007
  -0.08333333  0.25000000  0.08333333       0.007
   0.33333333  0.33333333  0.08333333       0.003
   0.41666667  0.33333333  0.08333333       0.007
   0.50000000  0.33333333  0.08333333       0.007
  -0.41666667  0.33333333  0.08333333       0.007
  -0.33333333  0.33333333  0.08333333       0.007
  -0.25000000  0.33333333  0.08333333       0.007
  -0.16666667  0.33333333  0.08333333       0.007
  -0.08333333  0.33333333  0.08333333       0.007
   0.41666667  0.41666667  0.08333333       0.003
   0.50000000  0.41666667  0.08333333       0.007
  -0.41666667  0.41666667  0.08333333       0.007
  -0.33333333  0.41666667  0.08333333       0.007
  -0.25000000  0.41666667  0.08333333       0.007
  -0.16666667  0.41666667  0.08333333       0.007
  -0.08333333  0.41666667  0.08333333       0.007
   0.50000000  0.50000000  0.08333333       0.003
  -0.41666667  0.50000000  0.08333333       0.007
  -0.33333333  0.50000000  0.08333333       0.007
  -0.25000000  0.50000000  0.08333333       0.007
  -0.16666667  0.50000000  0.08333333       0.007
  -0.08333333  0.50000000  0.08333333       0.003
  -0.41666667 -0.41666667  0.08333333       0.003
  -0.33333333 -0.41666667  0.08333333       0.007
  -0.25000000 -0.41666667  0.08333333       0.007
  -0.16666667 -0.41666667  0.08333333       0.007
  -0.33333333 -0.33333333  0.08333333       0.003
  -0.25000000 -0.33333333  0.08333333       0.007
  -0.16666667 -0.33333333  0.08333333       0.007
  -0.25000000 -0.25000000  0.08333333       0.003
  -0.16666667 -0.25000000  0.08333333       0.007
  -0.16666667 -0.16666667  0.08333333       0.003
   0.16666667  0.16666667  0.16666667       0.001
   0.25000000  0.16666667  0.16666667       0.003
   0.33333333  0.16666667  0.16666667       0.003
   0.41666667  0.16666667  0.16666667       0.003
   0.50000000  0.16666667  0.16666667       0.003
  -0.41666667  0.16666667  0.16666667       0.003
  -0.33333333  0.16666667  0.16666667       0.003
  -0.25000000  0.16666667  0.16666667       0.003
  -0.16666667  0.16666667  0.16666667       0.003
   0.25000000  0.25000000  0.16666667       0.003
   0.33333333  0.25000000  0.16666667       0.007
   0.41666667  0.25000000  0.16666667       0.007
   0.50000000  0.25000000  0.16666667       0.007
  -0.41666667  0.25000000  0.16666667       0.007
  -0.33333333  0.25000000  0.16666667       0.007
  -0.25000000  0.25000000  0.16666667       0.007
  -0.16666667  0.25000000  0.16666667       0.007
   0.33333333  0.33333333  0.16666667       0.003
   0.41666667  0.33333333  0.16666667       0.007
   0.50000000  0.33333333  0.16666667       0.007
  -0.41666667  0.33333333  0.16666667       0.007
  -0.33333333  0.33333333  0.16666667       0.007
  -0.25000000  0.33333333  0.16666667       0.007
  -0.16666667  0.33333333  0.16666667       0.007
   0.41666667  0.41666667  0.16666667       0.003
   0.50000000  0.41666667  0.16666667       0.007
  -0.41666667  0.41666667  0.16666667       0.007
  -0.33333333  0.41666667  0.16666667       0.007
  -0.25000000  0.41666667  0.16666667       0.007
  -0.16666667  0.41666667  0.16666667       0.007
   0.50000000  0.50000000  0.16666667       0.003
  -0.41666667  0.50000000  0.16666667       0.007
  -0.33333333  0.50000000  0.16666667       0.007
  -0.25000000  0.50000000  0.16666667       0.007
  -0.16666667  0.50000000  0.16666667       0.003
  -0.41666667 -0.41666667  0.16666667       0.003
  -0.33333333 -0.41666667  0.16666667       0.007
  -0.25000000 -0.41666667  0.16666667       0.007
  -0.33333333 -0.33333333  0.16666667       0.003
  -0.25000000 -0.33333333  0.16666667       0.007
  -0.25000000 -0.25000000  0.16666667       0.003
   0.25000000  0.25000000  0.25000000       0.001
   0.33333333  0.25000000  0.25000000       0.003
   0.41666667  0.25000000  0.25000000       0.003
   0.50000000  0.25000000  0.25000000       0.003
  -0.41666667  0.25000000  0.25000000       0.003
  -0.33333333  0.25000000  0.25000000       0.003
  -0.25000000  0.25000000  0.25000000       0.003
   0.33333333  0.33333333  0.25000000       0.003
   0.41666667  0.33333333  0.25000000       0.007
   0.50000000  0.33333333  0.25000000       0.007
  -0.41666667  0.33333333  0.25000000       0.007
  -0.33333333  0.33333333  0.25000000       0.007
  -0.25000000  0.33333333  0.25000000       0.007
   0.41666667  0.41666667  0.25000000       0.003
   0.50000000  0.41666667  0.25000000       0.007
  -0.41666667  0.41666667  0.25000000       0.007
  -0.33333333  0.41666667  0.25000000       0.007
  -0.25000000  0.41666667  0.25000000       0.007
   0.50000000  0.50000000  0.25000000       0.003
  -0.41666667  0.50000000  0.25000000       0.007
  -0.33333333  0.50000000  0.25000000       0.007
  -0.25000000  0.50000000  0.25000000       0.003
  -0.41666667 -0.41666667  0.25000000       0.003
  -0.33333333 -0.41666667  0.25000000       0.007
  -0.33333333 -0.33333333  0.25000000       0.003
   0.33333333  0.33333333  0.33333333       0.001
   0.41666667  0.33333333  0.33333333       0.003
   0.50000000  0.33333333  0.33333333       0.003
  -0.41666667  0.33333333  0.33333333       0.003
  -0.33333333  0.33333333  0.33333333       0.003
   0.41666667  0.41666667  0.33333333       0.003
   0.50000000  0.41666667  0.33333333       0.007
  -0.41666667  0.41666667  0.33333333       0.007
  -0.33333333  0.41666667  0.33333333       0.007
   0.50000000  0.50000000  0.33333333       0.003
  -0.41666667  0.50000000  0.33333333       0.007
  -0.33333333  0.50000000  0.33333333       0.003
  -0.41666667 -0.41666667  0.33333333       0.003
   0.41666667  0.41666667  0.41666667       0.001
   0.50000000  0.41666667  0.41666667       0.003
  -0.41666667  0.41666667  0.41666667       0.003
   0.50000000  0.50000000  0.41666667       0.003
  -0.41666667  0.50000000  0.41666667       0.003
   0.50000000  0.50000000  0.50000000       0.001
 
 position of ions in fractional coordinates (direct lattice) 
   0.25000000  0.75000000  0.25000000
   0.00000000  0.00000000  0.50000000
   0.25000000  0.25000000  0.75000000
   0.00000000  0.50000000  0.00000000
   0.75000000  0.75000000  0.75000000
   0.50000000  0.00000000  0.00000000
   0.75000000  0.25000000  0.25000000
   0.50000000  0.50000000  0.50000000
 
 position of ions in cartesian coordinates  (Angst):
   1.07699931  2.73181642  0.89536038
   0.08974973  0.08536936  1.79072076
   1.07699931  1.02443128  2.68608115
   0.08974973  1.79275449  0.00000000
   2.96174872  2.81718577  2.68608115
   1.79499968  0.00000000  0.00000000
   2.78224925  0.93906192  0.89536038
   1.97449915  1.87812385  1.79072076
 


--------------------------------------------------------------------------------------------------------


 k-point  1 :   0.0000 0.0000 0.0000  plane waves:     817
 k-point  2 :   0.0833 0.0000-0.0000  plane waves:     824
 k-point  3 :   0.1667 0.0000-0.0000  plane waves:     830
 k-point  4 :   0.2500 0.0000 0.0000  plane waves:     841
 k-point  5 :   0.3333 0.0000 0.0000  plane waves:     838
 k-point  6 :   0.4167 0.0000 0.0000  plane waves:     840
 k-point  7 :   0.5000 0.0000 0.0000  plane waves:     844
 k-point  8 :   0.0833 0.0833-0.0000  plane waves:     831
 k-point  9 :   0.1667 0.0833 0.0000  plane waves:     825
 k-point 10 :   0.2500 0.0833-0.0000  plane waves:     833
 k-point 11 :   0.3333 0.0833 0.0000  plane waves:     833
 k-point 12 :   0.4167 0.0833-0.0000  plane waves:     836
 k-point 13 :   0.5000 0.0833-0.0000  plane waves:     838
 k-point 14 :  -0.4167 0.0833-0.0000  plane waves:     840
 k-point 15 :  -0.3333 0.0833 0.0000  plane waves:     843
 k-point 16 :  -0.2500 0.0833 0.0000  plane waves:     838
 k-point 17 :  -0.1667 0.0833-0.0000  plane waves:     833
 k-point 18 :  -0.0833 0.0833-0.0000  plane waves:     832
 k-point 19 :   0.1667 0.1667-0.0000  plane waves:     824
 k-point 20 :   0.2500 0.1667-0.0000  plane waves:     833
 k-point 21 :   0.3333 0.1667 0.0000  plane waves:     835
 k-point 22 :   0.4167 0.1667-0.0000  plane waves:     836
 k-point 23 :   0.5000 0.1667 0.0000  plane waves:     836
 k-point 24 :  -0.4167 0.1667-0.0000  plane waves:     836
 k-point 25 :  -0.3333 0.1667-0.0000  plane waves:     839
 k-point 26 :  -0.2500 0.1667-0.0000  plane waves:     835
 k-point 27 :  -0.1667 0.1667-0.0000  plane waves:     838
 k-point 28 :   0.2500 0.2500-0.0000  plane waves:     831
 k-point 29 :   0.3333 0.2500-0.0000  plane waves:     835
 k-point 30 :   0.4167 0.2500-0.0000  plane waves:     838
 k-point 31 :   0.5000 0.2500-0.0000  plane waves:     837
 k-point 32 :  -0.4167 0.2500 0.0000  plane waves:     838
 k-point 33 :  -0.3333 0.2500 0.0000  plane waves:     838
 k-point 34 :  -0.2500 0.2500-0.0000  plane waves:     836
 k-point 35 :   0.3333 0.3333 0.0000  plane waves:     838
 k-point 36 :   0.4167 0.3333 0.0000  plane waves:     837
 k-point 37 :   0.5000 0.3333-0.0000  plane waves:     839
 k-point 38 :  -0.4167 0.3333-0.0000  plane waves:     842
 k-point 39 :  -0.3333 0.3333 0.0000  plane waves:     840
 k-point 40 :   0.4167 0.4167 0.0000  plane waves:     836
 k-point 41 :   0.5000 0.4167-0.0000  plane waves:     834
 k-point 42 :  -0.4167 0.4167 0.0000  plane waves:     842
 k-point 43 :   0.5000 0.5000-0.0000  plane waves:     834
 k-point 44 :   0.0833 0.0833 0.0833  plane waves:     814
 k-point 45 :   0.1667 0.0833 0.0833  plane waves:     819
 k-point 46 :   0.2500 0.0833 0.0833  plane waves:     827
 k-point 47 :   0.3333 0.0833 0.0833  plane waves:     838
 k-point 48 :   0.4167 0.0833 0.0833  plane waves:     837
 k-point 49 :   0.5000 0.0833 0.0833  plane waves:     841
 k-point 50 :  -0.4167 0.0833 0.0833  plane waves:     841
 k-point 51 :  -0.3333 0.0833 0.0833  plane waves:     841
 k-point 52 :  -0.2500 0.0833 0.0833  plane waves:     842
 k-point 53 :  -0.1667 0.0833 0.0833  plane waves:     837
 k-point 54 :  -0.0833 0.0833 0.0833  plane waves:     831
 k-point 55 :   0.1667 0.1667 0.0833  plane waves:     813
 k-point 56 :   0.2500 0.1667 0.0833  plane waves:     825
 k-point 57 :   0.3333 0.1667 0.0833  plane waves:     824
 k-point 58 :   0.4167 0.1667 0.0833  plane waves:     834
 k-point 59 :   0.5000 0.1667 0.0833  plane waves:     836
 k-point 60 :  -0.4167 0.1667 0.0833  plane waves:     833
 k-point 61 :  -0.3333 0.1667 0.0833  plane waves:     838
 k-point 62 :  -0.2500 0.1667 0.0833  plane waves:     839
 k-point 63 :  -0.1667 0.1667 0.0833  plane waves:     840
 k-point 64 :  -0.0833 0.1667 0.0833  plane waves:     833
 k-point 65 :   0.2500 0.2500 0.0833  plane waves:     824
 k-point 66 :   0.3333 0.2500 0.0833  plane waves:     830
 k-point 67 :   0.4167 0.2500 0.0833  plane waves:     840
 k-point 68 :   0.5000 0.2500 0.0833  plane waves:     836
 k-point 69 :  -0.4167 0.2500 0.0833  plane waves:     837
 k-point 70 :  -0.3333 0.2500 0.0833  plane waves:     835
 k-point 71 :  -0.2500 0.2500 0.0833  plane waves:     843
 k-point 72 :  -0.1667 0.2500 0.0833  plane waves:     838
 k-point 73 :  -0.0833 0.2500 0.0833  plane waves:     839
 k-point 74 :   0.3333 0.3333 0.0833  plane waves:     828
 k-point 75 :   0.4167 0.3333 0.0833  plane waves:     833
 k-point 76 :   0.5000 0.3333 0.0833  plane waves:     837
 k-point 77 :  -0.4167 0.3333 0.0833  plane waves:     838
 k-point 78 :  -0.3333 0.3333 0.0833  plane waves:     841
 k-point 79 :  -0.2500 0.3333 0.0833  plane waves:     839
 k-point 80 :  -0.1667 0.3333 0.0833  plane waves:     839
 k-point 81 :  -0.0833 0.3333 0.0833  plane waves:     842
 k-point 82 :   0.4167 0.4167 0.0833  plane waves:     829
 k-point 83 :   0.5000 0.4167 0.0833  plane waves:     835
 k-point 84 :  -0.4167 0.4167 0.0833  plane waves:     840
 k-point 85 :  -0.3333 0.4167 0.0833  plane waves:     840
 k-point 86 :  -0.2500 0.4167 0.0833  plane waves:     833
 k-point 87 :  -0.1667 0.4167 0.0833  plane waves:     837
 k-point 88 :  -0.0833 0.4167 0.0833  plane waves:     832
 k-point 89 :   0.5000 0.5000 0.0833  plane waves:     840
 k-point 90 :  -0.4167 0.5000 0.0833  plane waves:     838
 k-point 91 :  -0.3333 0.5000 0.0833  plane waves:     845
 k-point 92 :  -0.2500 0.5000 0.0833  plane waves:     839
 k-point 93 :  -0.1667 0.5000 0.0833  plane waves:     840
 k-point 94 :  -0.0833 0.5000 0.0833  plane waves:     840
 k-point 95 :  -0.4167-0.4167 0.0833  plane waves:     838
 k-point 96 :  -0.3333-0.4167 0.0833  plane waves:     836
 k-point 97 :  -0.2500-0.4167 0.0833  plane waves:     840
 k-point 98 :  -0.1667-0.4167 0.0833  plane waves:     841
 k-point 99 :  -0.3333-0.3333 0.0833  plane waves:     835
 k-point ** :  -0.2500-0.3333 0.0833  plane waves:     830
 k-point ** :  -0.1667-0.3333 0.0833  plane waves:     842
 k-point ** :  -0.2500-0.2500 0.0833  plane waves:     835
 k-point ** :  -0.1667-0.2500 0.0833  plane waves:     835
 k-point ** :  -0.1667-0.1667 0.0833  plane waves:     830
 k-point ** :   0.1667 0.1667 0.1667  plane waves:     814
 k-point ** :   0.2500 0.1667 0.1667  plane waves:     815
 k-point ** :   0.3333 0.1667 0.1667  plane waves:     820
 k-point ** :   0.4167 0.1667 0.1667  plane waves:     834
 k-point ** :   0.5000 0.1667 0.1667  plane waves:     834
 k-point ** :  -0.4167 0.1667 0.1667  plane waves:     841
 k-point ** :  -0.3333 0.1667 0.1667  plane waves:     842
 k-point ** :  -0.2500 0.1667 0.1667  plane waves:     839
 k-point ** :  -0.1667 0.1667 0.1667  plane waves:     839
 k-point ** :   0.2500 0.2500 0.1667  plane waves:     818
 k-point ** :   0.3333 0.2500 0.1667  plane waves:     818
 k-point ** :   0.4167 0.2500 0.1667  plane waves:     830
 k-point ** :   0.5000 0.2500 0.1667  plane waves:     835
 k-point ** :  -0.4167 0.2500 0.1667  plane waves:     839
 k-point ** :  -0.3333 0.2500 0.1667  plane waves:     841
 k-point ** :  -0.2500 0.2500 0.1667  plane waves:     843
 k-point ** :  -0.1667 0.2500 0.1667  plane waves:     843
 k-point ** :   0.3333 0.3333 0.1667  plane waves:     833
 k-point ** :   0.4167 0.3333 0.1667  plane waves:     836
 k-point ** :   0.5000 0.3333 0.1667  plane waves:     832
 k-point ** :  -0.4167 0.3333 0.1667  plane waves:     841
 k-point ** :  -0.3333 0.3333 0.1667  plane waves:     839
 k-point ** :  -0.2500 0.3333 0.1667  plane waves:     839
 k-point ** :  -0.1667 0.3333 0.1667  plane waves:     837
 k-point ** :   0.4167 0.4167 0.1667  plane waves:     835
 k-point ** :   0.5000 0.4167 0.1667  plane waves:     840
 k-point ** :  -0.4167 0.4167 0.1667  plane waves:     842
 k-point ** :  -0.3333 0.4167 0.1667  plane waves:     844
 k-point ** :  -0.2500 0.4167 0.1667  plane waves:     836
 k-point ** :  -0.1667 0.4167 0.1667  plane waves:     838
 k-point ** :   0.5000 0.5000 0.1667  plane waves:     843
 k-point ** :  -0.4167 0.5000 0.1667  plane waves:     842
 k-point ** :  -0.3333 0.5000 0.1667  plane waves:     844
 k-point ** :  -0.2500 0.5000 0.1667  plane waves:     839
 k-point ** :  -0.1667 0.5000 0.1667  plane waves:     836
 k-point ** :  -0.4167-0.4167 0.1667  plane waves:     844
 k-point ** :  -0.3333-0.4167 0.1667  plane waves:     842
 k-point ** :  -0.2500-0.4167 0.1667  plane waves:     838
 k-point ** :  -0.3333-0.3333 0.1667  plane waves:     840
 k-point ** :  -0.2500-0.3333 0.1667  plane waves:     838
 k-point ** :  -0.2500-0.2500 0.1667  plane waves:     837
 k-point ** :   0.2500 0.2500 0.2500  plane waves:     817
 k-point ** :   0.3333 0.2500 0.2500  plane waves:     823
 k-point ** :   0.4167 0.2500 0.2500  plane waves:     840
 k-point ** :   0.5000 0.2500 0.2500  plane waves:     838
 k-point ** :  -0.4167 0.2500 0.2500  plane waves:     843
 k-point ** :  -0.3333 0.2500 0.2500  plane waves:     845
 k-point ** :  -0.2500 0.2500 0.2500  plane waves:     845
 k-point ** :   0.3333 0.3333 0.2500  plane waves:     833
 k-point ** :   0.4167 0.3333 0.2500  plane waves:     844
 k-point ** :   0.5000 0.3333 0.2500  plane waves:     840
 k-point ** :  -0.4167 0.3333 0.2500  plane waves:     843
 k-point ** :  -0.3333 0.3333 0.2500  plane waves:     841
 k-point ** :  -0.2500 0.3333 0.2500  plane waves:     837
 k-point ** :   0.4167 0.4167 0.2500  plane waves:     846
 k-point ** :   0.5000 0.4167 0.2500  plane waves:     844
 k-point ** :  -0.4167 0.4167 0.2500  plane waves:     843
 k-point ** :  -0.3333 0.4167 0.2500  plane waves:     839
 k-point ** :  -0.2500 0.4167 0.2500  plane waves:     843
 k-point ** :   0.5000 0.5000 0.2500  plane waves:     848
 k-point ** :  -0.4167 0.5000 0.2500  plane waves:     846
 k-point ** :  -0.3333 0.5000 0.2500  plane waves:     845
 k-point ** :  -0.2500 0.5000 0.2500  plane waves:     838
 k-point ** :  -0.4167-0.4167 0.2500  plane waves:     842
 k-point ** :  -0.3333-0.4167 0.2500  plane waves:     842
 k-point ** :  -0.3333-0.3333 0.2500  plane waves:     840
 k-point ** :   0.3333 0.3333 0.3333  plane waves:     838
 k-point ** :   0.4167 0.3333 0.3333  plane waves:     849
 k-point ** :   0.5000 0.3333 0.3333  plane waves:     848
 k-point ** :  -0.4167 0.3333 0.3333  plane waves:     843
 k-point ** :  -0.3333 0.3333 0.3333  plane waves:     838
 k-point ** :   0.4167 0.4167 0.3333  plane waves:     847
 k-point ** :   0.5000 0.4167 0.3333  plane waves:     844
 k-point ** :  -0.4167 0.4167 0.3333  plane waves:     844
 k-point ** :  -0.3333 0.4167 0.3333  plane waves:     848
 k-point ** :   0.5000 0.5000 0.3333  plane waves:     841
 k-point ** :  -0.4167 0.5000 0.3333  plane waves:     843
 k-point ** :  -0.3333 0.5000 0.3333  plane waves:     848
 k-point ** :  -0.4167-0.4167 0.3333  plane waves:     845
 k-point ** :   0.4167 0.4167 0.4167  plane waves:     844
 k-point ** :   0.5000 0.4167 0.4167  plane waves:     840
 k-point ** :  -0.4167 0.4167 0.4167  plane waves:     839
 k-point ** :   0.5000 0.5000 0.4167  plane waves:     845
 k-point ** :  -0.4167 0.5000 0.4167  plane waves:     838
 k-point ** :   0.5000 0.5000 0.5000  plane waves:     830

 maximum and minimum number of plane-waves per node :       224      195

 maximum number of plane-waves:       849
 maximum index in each direction: 
   IXMAX=    6   IYMAX=    6   IZMAX=    5
   IXMIN=   -6   IYMIN=   -6   IZMIN=   -6


 parallel 3D FFT for wavefunctions:
    minimum data exchange during FFTs selected (reduces bandwidth)
 parallel 3D FFT for charge:
    minimum data exchange during FFTs selected (reduces bandwidth)


 total amount of memory used by VASP MPI-rank0    37682. kBytes
=======================================================================

   base      :      30000. kBytes
   nonl-proj :       2640. kBytes
   fftplans  :        346. kBytes
   grid      :        481. kBytes
   one-center:          6. kBytes
   wavefun   :       4209. kBytes
 
     INWAV:  cpu time    0.0004: real time    0.0005
 Broyden mixing: mesh for mixing (old mesh)
   NGX = 11   NGY = 11   NGZ = 11
  (NGX  = 48   NGY  = 48   NGZ  = 48)
  gives a total of   1331 points

 initial charge density was supplied:
 charge density of overlapping atoms calculated
 number of electron      32.0000000 magnetization 
 keeping initial charge density in first step


--------------------------------------------------------------------------------------------------------


 Maximum index for augmentation-charges          281 (set IRDMAX)


--------------------------------------------------------------------------------------------------------


 First call to EWALD:  gamma=   0.494
 Maximum number of real-space cells 3x 3x 3
 Maximum number of reciprocal cells 3x 3x 3

    FEWALD:  cpu time    0.0053: real time    0.0053


--------------------------------------- Iteration      1(   1)  ---------------------------------------


    POTLOK:  cpu time    0.0267: real time    0.0310
    SETDIJ:  cpu time    0.0066: real time    0.0066
     EDDAV:  cpu time    8.7762: real time    8.7875
 BZINTS: Fermi energy: 18.343714; 32.000000 electrons
         Band energy: 118.820862;  BLOECHL correction: -0.187538
       DOS:  cpu time    0.1695: real time    0.1695
    --------------------------------------------
      LOOP:  cpu time    8.9791: real time    8.9947

 eigenvalue-minimisations  :  9080
 total energy-change (2. order) : 0.5836573E+02  (-0.1444560E+04)
 number of electron      32.0000000 magnetization 
 augmentation part       32.0000000 magnetization 

 Free energy of the ion-electron system (eV)
  ---------------------------------------------------
  alpha Z        PSCENC =       113.11724448
  Ewald energy   TEWEN  =     -1382.63944866
  -Hartree energ DENC   =       -72.76532976
  -exchange      EXHF   =         0.00000000
  -V(xc)+E(xc)   XCENC  =       114.01845009
  PAW double counting   =       302.65154477     -311.85538214
  entropy T*S    EENTRO =         0.00000000
  eigenvalues    EBANDS =       118.82086242
  atomic energy  EATOM  =      1177.01779097
  Solvation  Ediel_sol  =         0.00000000
  ---------------------------------------------------
  free energy    TOTEN  =        58.36573217 eV

  energy without entropy =       58.36573217  energy(sigma->0) =       58.36573217


--------------------------------------------------------------------------------------------------------




--------------------------------------- Iteration      1(   2)  ---------------------------------------


     EDDAV:  cpu time   10.7597: real time   10.7669
 BZINTS: Fermi energy:  8.780630; 32.000000 electrons
         Band energy:  -9.886524;  BLOECHL correction:  0.000000
       DOS:  cpu time    0.0411: real time    0.0411
    --------------------------------------------
      LOOP:  cpu time   10.8008: real time   10.8080

 eigenvalue-minimisations  : 12432
 total energy-change (2. order) :-0.1287074E+03  (-0.1219961E+03)
 number of electron      32.0000000 magnetization 
 augmentation part       32.0000000 magnetization 

 Free energy of the ion-electron system (eV)
  ---------------------------------------------------
  alpha Z        PSCENC =       113.11724448
  Ewald energy   TEWEN  =     -1382.63944866
  -Hartree energ DENC   =       -72.76532976
  -exchange      EXHF   =         0.00000000
  -V(xc)+E(xc)   XCENC  =       114.01845009
  PAW double counting   =       302.65154477     -311.85538214
  entropy T*S    EENTRO =         0.00000000
  eigenvalues    EBANDS =        -9.88652394
  atomic energy  EATOM  =      1177.01779097
  Solvation  Ediel_sol  =         0.00000000
  ---------------------------------------------------
  free energy    TOTEN  =       -70.34165419 eV

  energy without entropy =      -70.34165419  energy(sigma->0) =      -70.34165419


--------------------------------------------------------------------------------------------------------




--------------------------------------- Iteration      1(   3)  ---------------------------------------


     EDDAV:  cpu time   10.6218: real time   10.6229
 BZINTS: Fermi energy:  8.218156; 32.000000 electrons
         Band energy: -14.197864;  BLOECHL correction:  0.000000
       DOS:  cpu time    0.0366: real time    0.0366
    --------------------------------------------
      LOOP:  cpu time   10.6583: real time   10.6595

 eigenvalue-minimisations  : 11912
 total energy-change (2. order) :-0.4311340E+01  (-0.4289314E+01)
 number of electron      32.0000000 magnetization 
 augmentation part       32.0000000 magnetization 

 Free energy of the ion-electron system (eV)
  ---------------------------------------------------
  alpha Z        PSCENC =       113.11724448
  Ewald energy   TEWEN  =     -1382.63944866
  -Hartree energ DENC   =       -72.76532976
  -exchange      EXHF   =         0.00000000
  -V(xc)+E(xc)   XCENC  =       114.01845009
  PAW double counting   =       302.65154477     -311.85538214
  entropy T*S    EENTRO =         0.00000000
  eigenvalues    EBANDS =       -14.19786391
  atomic energy  EATOM  =      1177.01779097
  Solvation  Ediel_sol  =         0.00000000
  ---------------------------------------------------
  free energy    TOTEN  =       -74.65299416 eV

  energy without entropy =      -74.65299416  energy(sigma->0) =      -74.65299416


--------------------------------------------------------------------------------------------------------




--------------------------------------- Iteration      1(   4)  ---------------------------------------


     EDDAV:  cpu time   10.1263: real time   10.2157
 BZINTS: Fermi energy:  8.212479; 32.000000 electrons
         Band energy: -14.242919;  BLOECHL correction:  0.000000
       DOS:  cpu time    0.0409: real time    0.0409
    --------------------------------------------
      LOOP:  cpu time   10.1671: real time   10.2566

 eigenvalue-minimisations  : 11344
 total energy-change (2. order) :-0.4505464E-01  (-0.4501671E-01)
 number of electron      32.0000000 magnetization 
 augmentation part       32.0000000 magnetization 

 Free energy of the ion-electron system (eV)
  ---------------------------------------------------
  alpha Z        PSCENC =       113.11724448
  Ewald energy   TEWEN  =     -1382.63944866
  -Hartree energ DENC   =       -72.76532976
  -exchange      EXHF   =         0.00000000
  -V(xc)+E(xc)   XCENC  =       114.01845009
  PAW double counting   =       302.65154477     -311.85538214
  entropy T*S    EENTRO =         0.00000000
  eigenvalues    EBANDS =       -14.24291855
  atomic energy  EATOM  =      1177.01779097
  Solvation  Ediel_sol  =         0.00000000
  ---------------------------------------------------
  free energy    TOTEN  =       -74.69804880 eV

  energy without entropy =      -74.69804880  energy(sigma->0) =      -74.69804880


--------------------------------------------------------------------------------------------------------




--------------------------------------- Iteration      1(   5)  ---------------------------------------


     EDDAV:  cpu time   10.3532: real time   10.3544
 BZINTS: Fermi energy:  8.188813; 32.000000 electrons
         Band energy: -14.243877;  BLOECHL correction:  0.000000
       DOS:  cpu time    0.0363: real time    0.0363
    CHARGE:  cpu time    0.2473: real time    0.2474
    MIXING:  cpu time    0.0016: real time    0.0016
    --------------------------------------------
      LOOP:  cpu time   10.6385: real time   10.6397

 eigenvalue-minimisations  : 11888
 total energy-change (2. order) :-0.9581842E-03  (-0.9573779E-03)
 number of electron      32.0000016 magnetization 
 augmentation part        0.7778462 magnetization 

 Broyden mixing:
  rms(total) = 0.94280E+00    rms(broyden)= 0.94260E+00
  rms(prec ) = 0.22268E+01
  weight for this iteration     100.00

 Free energy of the ion-electron system (eV)
  ---------------------------------------------------
  alpha Z        PSCENC =       113.11724448
  Ewald energy   TEWEN  =     -1382.63944866
  -Hartree energ DENC   =       -72.76532976
  -exchange      EXHF   =         0.00000000
  -V(xc)+E(xc)   XCENC  =       114.01845009
  PAW double counting   =       302.65154477     -311.85538214
  entropy T*S    EENTRO =         0.00000000
  eigenvalues    EBANDS =       -14.24387673
  atomic energy  EATOM  =      1177.01779097
  Solvation  Ediel_sol  =         0.00000000
  ---------------------------------------------------
  free energy    TOTEN  =       -74.69900699 eV

  energy without entropy =      -74.69900699  energy(sigma->0) =      -74.69900699


--------------------------------------------------------------------------------------------------------




--------------------------------------- Iteration      1(   6)  ---------------------------------------


    POTLOK:  cpu time    0.0204: real time    0.0206
    SETDIJ:  cpu time    0.0062: real time    0.0062
     EDDAV:  cpu time   10.0777: real time   10.0785
 BZINTS: Fermi energy:  8.878866; 32.000000 electrons
         Band energy:   1.959314;  BLOECHL correction:  0.000000
       DOS:  cpu time    0.0363: real time    0.0363
    CHARGE:  cpu time    0.2702: real time    0.2702
    MIXING:  cpu time    0.0018: real time    0.0017
    --------------------------------------------
      LOOP:  cpu time   10.4124: real time   10.4134

 eigenvalue-minimisations  : 10440
 total energy-change (2. order) : 0.1879249E+01  (-0.1268359E+00)
 number of electron      32.0000016 magnetization 
 augmentation part        0.7601301 magnetization 

 Broyden mixing:
  rms(total) = 0.51714E+00    rms(broyden)= 0.51712E+00
  rms(prec ) = 0.12030E+01
  weight for this iteration     100.00

 eigenvalues of (default mixing * dielectric matrix)
  average eigenvalue GAMMA=   2.1673
  2.1673

 Free energy of the ion-electron system (eV)
  ---------------------------------------------------
  alpha Z        PSCENC =       113.11724448
  Ewald energy   TEWEN  =     -1382.63944866
  -Hartree energ DENC   =       -87.96863776
  -exchange      EXHF   =         0.00000000
  -V(xc)+E(xc)   XCENC  =       115.42711641
  PAW double counting   =       391.81555808     -401.54869603
  entropy T*S    EENTRO =         0.00000000
  eigenvalues    EBANDS =         1.95931438
  atomic energy  EATOM  =      1177.01779097
  Solvation  Ediel_sol  =         0.00000000
  ---------------------------------------------------
  free energy    TOTEN  =       -72.81975813 eV

  energy without entropy =      -72.81975813  energy(sigma->0) =      -72.81975813


--------------------------------------------------------------------------------------------------------




--------------------------------------- Iteration      1(   7)  ---------------------------------------


    POTLOK:  cpu time    0.0197: real time    0.0201
    SETDIJ:  cpu time    0.0059: real time    0.0059
     EDDAV:  cpu time   11.3821: real time   11.3830
 BZINTS: Fermi energy:  9.649383; 32.000000 electrons
         Band energy:  20.611492;  BLOECHL correction:  0.000000
       DOS:  cpu time    0.0367: real time    0.0367
    CHARGE:  cpu time    0.2504: real time    0.2504
    MIXING:  cpu time    0.0021: real time    0.0021
    --------------------------------------------
      LOOP:  cpu time   11.6969: real time   11.6983

 eigenvalue-minimisations  : 10928
 total energy-change (2. order) : 0.6304317E+00  (-0.1458204E+00)
 number of electron      32.0000015 magnetization 
 augmentation part        0.7411674 magnetization 

 Broyden mixing:
  rms(total) = 0.70826E-01    rms(broyden)= 0.70482E-01
  rms(prec ) = 0.12439E+00
  weight for this iteration     100.00

 eigenvalues of (default mixing * dielectric matrix)
  average eigenvalue GAMMA=   2.2764
  2.0353  2.5174

 Free energy of the ion-electron system (eV)
  ---------------------------------------------------
  alpha Z        PSCENC =       113.11724448
  Ewald energy   TEWEN  =     -1382.63944866
  -Hartree energ DENC   =      -107.30341862
  -exchange      EXHF   =         0.00000000
  -V(xc)+E(xc)   XCENC  =       117.24145659
  PAW double counting   =       512.51158554     -522.74602854
  entropy T*S    EENTRO =         0.00000000
  eigenvalues    EBANDS =        20.61149181
  atomic energy  EATOM  =      1177.01779097
  Solvation  Ediel_sol  =         0.00000000
  ---------------------------------------------------
  free energy    TOTEN  =       -72.18932644 eV

  energy without entropy =      -72.18932644  energy(sigma->0) =      -72.18932644


--------------------------------------------------------------------------------------------------------




--------------------------------------- Iteration      1(   8)  ---------------------------------------


    POTLOK:  cpu time    0.0196: real time    0.0201
    SETDIJ:  cpu time    0.0058: real time    0.0058
     EDDAV:  cpu time   10.4260: real time   10.4268
 BZINTS: Fermi energy:  9.662179; 32.000000 electrons
         Band energy:  20.823659;  BLOECHL correction:  0.000000
       DOS:  cpu time    0.0364: real time    0.0364
    CHARGE:  cpu time    0.2427: real time    0.2428
    MIXING:  cpu time    0.0018: real time    0.0018
    --------------------------------------------
      LOOP:  cpu time   10.7324: real time   10.7337

 eigenvalue-minimisations  : 11304
 total energy-change (2. order) :-0.7985251E-02  (-0.3793633E-02)
 number of electron      32.0000015 magnetization 
 augmentation part        0.7416962 magnetization 

 Broyden mixing:
  rms(total) = 0.75045E-02    rms(broyden)= 0.73935E-02
  rms(prec ) = 0.12772E-01
  weight for this iteration     100.00

 eigenvalues of (default mixing * dielectric matrix)
  average eigenvalue GAMMA=   2.0458
  1.3974  2.6452  2.0949

 Free energy of the ion-electron system (eV)
  ---------------------------------------------------
  alpha Z        PSCENC =       113.11724448
  Ewald energy   TEWEN  =     -1382.63944866
  -Hartree energ DENC   =      -107.69663226
  -exchange      EXHF   =         0.00000000
  -V(xc)+E(xc)   XCENC  =       117.28425057
  PAW double counting   =       521.44874208     -531.55291801
[...]

 k-point   177 :       0.5000    0.4167    0.3333
  band No.  band energies     occupation 
      1      -7.7280      2.00000
      2      -6.8558      2.00000
      3      -5.8070      2.00000
      4      -5.6511      2.00000
      5      -3.2680      2.00000
      6      -3.1083      2.00000
      7      -2.3801      2.00000
      8      -2.1024      2.00000
      9       5.3131      2.00000
     10       5.4367      2.00000
     11       6.1193      2.00000
     12       6.1352      2.00000
     13       6.1714      2.00000
     14       6.6738      2.00000
     15       6.8637      2.00000
     16       7.3629      2.00000
     17      16.4831      0.00000
     18      16.7536      0.00000
     19      17.1650      0.00000
     20      18.1410      0.00000
     21      18.3629      0.00000
     22      18.5576      0.00000
     23      18.7181      0.00000
     24      18.7546      0.00000

 k-point   178 :      -0.4167    0.4167    0.3333
  band No.  band energies     occupation 
      1      -7.5395      2.00000
      2      -7.1776      2.00000
      3      -6.2844      2.00000
      4      -5.3961      2.00000
      5      -3.3622      2.00000
      6      -2.7704      2.00000
      7      -2.4903      2.00000
      8      -1.2911      2.00000
      9       5.0346      2.00000
     10       5.5371      2.00000
     11       5.9675      2.00000
     12       6.0235      2.00000
     13       6.2619      2.00000
     14       6.4383      2.00000
     15       6.8551      2.00000
     16       6.9625      2.00000
     17      16.2702      0.00000
     18      16.4835      0.00000
     19      16.7500      0.00000
     20      17.9786      0.00000
     21      18.3888      0.00000
     22      18.6057      0.00000
     23      18.6117      0.00000
     24      18.9331      0.00000

 k-point   179 :      -0.3333    0.4167    0.3333
  band No.  band energies     occupation 
      1      -8.1284      2.00000
      2      -6.7331      2.00000
      3      -6.6495      2.00000
      4      -5.4819      2.00000
      5      -2.9088      2.00000
      6      -2.9083      2.00000
      7      -1.6961      2.00000
      8      -0.3638      2.00000
      9       4.4604      2.00000
     10       5.3234      2.00000
     11       5.4444      2.00000
     12       5.7746      2.00000
     13       5.8128      2.00000
     14       6.4087      2.00000
     15       6.6181      2.00000
     16       6.8810      2.00000
     17      16.2723      0.00000
     18      16.3342      0.00000
     19      16.3865      0.00000
     20      17.7769      0.00000
     21      18.3396      0.00000
     22      18.4232      0.00000
     23      18.4877      0.00000
     24      18.9025      0.00000

 k-point   180 :       0.5000    0.5000    0.3333
  band No.  band energies     occupation 
      1      -7.3006      2.00000
      2      -6.4079      2.00000
      3      -6.2649      2.00000
      4      -6.2649      2.00000
      5      -2.8917      2.00000
      6      -2.7503      2.00000
      7      -2.7503      2.00000
      8      -2.6012      2.00000
      9       5.6713      2.00000
     10       5.7399      2.00000
     11       5.7399      2.00000
     12       6.5160      2.00000
     13       6.5497      2.00000
     14       6.5895      2.00000
     15       6.5895      2.00000
     16       7.3029      2.00000
     17      16.4968      0.00000
     18      16.4968      0.00000
     19      17.0883      0.00000
     20      18.3263      0.00000
     21      18.4238      0.00000
     22      18.4364      0.00000
     23      18.4364      0.00000
     24      18.7012      0.00000

 k-point   181 :      -0.4167    0.5000    0.3333
  band No.  band energies     occupation 
      1      -6.9836      2.00000
      2      -6.9056      2.00000
      3      -6.8911      2.00000
      4      -5.6719      2.00000
      5      -3.1879      2.00000
      6      -3.1553      2.00000
      7      -1.9905      2.00000
      8      -1.9080      2.00000
      9       5.2003      2.00000
     10       5.9823      2.00000
     11       5.9889      2.00000
     12       6.1001      2.00000
     13       6.3180      2.00000
     14       6.5356      2.00000
     15       6.6653      2.00000
     16       6.9434      2.00000
     17      16.3904      0.00000
     18      16.5790      0.00000
     19      16.8051      0.00000
     20      18.0122      0.00000
     21      18.2340      0.00000
     22      18.3158      0.00000
     23      18.5807      0.00000
     24      18.6916      0.00000

 k-point   182 :      -0.3333    0.5000    0.3333
  band No.  band energies     occupation 
      1      -7.4789      2.00000
      2      -7.4789      2.00000
      3      -6.5814      2.00000
      4      -5.2615      2.00000
      5      -3.2322      2.00000
      6      -3.0894      2.00000
      7      -1.0871      2.00000
      8      -1.0871      2.00000
      9       4.4760      2.00000
     10       5.4289      2.00000
     11       5.9637      2.00000
     12       6.1444      2.00000
     13       6.1444      2.00000
     14       6.3500      2.00000
     15       6.3500      2.00000
     16       6.4645      2.00000
     17      16.4413      0.00000
     18      16.4413      0.00000
     19      16.7620      0.00000
     20      17.6581      0.00000
     21      18.2567      0.00000
     22      18.5574      0.00000
     23      18.5574      0.00000
     24      19.0983      0.00000

 k-point   183 :      -0.4167   -0.4167    0.3333
  band No.  band energies     occupation 
      1      -7.6058      2.00000
      2      -6.7008      2.00000
      3      -6.1983      2.00000
      4      -6.1983      2.00000
      5      -3.2152      2.00000
      6      -2.5507      2.00000
      7      -2.5507      2.00000
      8      -1.1901      2.00000
      9       5.3366      2.00000
     10       5.3366      2.00000
     11       5.7850      2.00000
     12       6.2313      2.00000
     13       6.2313      2.00000
     14       6.3708      2.00000
     15       6.7850      2.00000
     16       6.8408      2.00000
     17      16.4499      0.00000
     18      16.4499      0.00000
     19      16.6461      0.00000
     20      17.9030      0.00000
     21      18.1775      0.00000
     22      18.1775      0.00000
     23      18.3742      0.00000
     24      18.5134      0.00000

 k-point   184 :       0.4167    0.4167    0.4167
  band No.  band energies     occupation 
      1      -7.8526      2.00000
      2      -5.7697      2.00000
      3      -5.7697      2.00000
      4      -5.7697      2.00000
      5      -3.3889      2.00000
      6      -3.3889      2.00000
      7      -3.3889      2.00000
      8      -2.5012      2.00000
      9       6.0181      2.00000
     10       6.0181      2.00000
     11       6.0181      2.00000
     12       6.2541      2.00000
     13       6.2541      2.00000
     14       6.2541      2.00000
     15       7.5280      2.00000
     16       7.5280      2.00000
     17      16.7978      0.00000
     18      16.7978      0.00000
     19      16.7978      0.00000
     20      18.2824      0.00000
     21      18.2824      0.00000
     22      18.3382      0.00000
     23      18.3382      0.00000
     24      18.3382      0.00000

 k-point   185 :       0.5000    0.4167    0.4167
  band No.  band energies     occupation 
      1      -7.4229      2.00000
      2      -6.3868      2.00000
      3      -5.6324      2.00000
      4      -5.6324      2.00000
      5      -3.6024      2.00000
      6      -3.6024      2.00000
      7      -3.0171      2.00000
      8      -2.8673      2.00000
      9       6.0946      2.00000
     10       6.0946      2.00000
     11       6.3147      2.00000
     12       6.3147      2.00000
     13       6.4386      2.00000
     14       6.6421      2.00000
     15       7.3161      2.00000
     16       7.3381      2.00000
     17      16.4011      0.00000
     18      16.6810      0.00000
     19      16.6810      0.00000
     20      18.1998      0.00000
     21      18.2952      0.00000
     22      18.5192      0.00000
     23      18.5193      0.00000
     24      18.5435      0.00000

 k-point   186 :      -0.4167    0.4167    0.4167
  band No.  band energies     occupation 
      1      -7.0304      2.00000
      2      -7.0113      2.00000
      3      -5.8423      2.00000
      4      -5.8423      2.00000
      5      -3.2825      2.00000
      6      -3.2549      2.00000
      7      -3.2549      2.00000
      8      -2.1018      2.00000
      9       5.8885      2.00000
     10       5.8885      2.00000
     11       6.2695      2.00000
     12       6.2695      2.00000
     13       6.6398      2.00000
     14       6.7243      2.00000
     15       6.7692      2.00000
     16       7.0603      2.00000
     17      16.3184      0.00000
     18      16.5194      0.00000
     19      16.5194      0.00000
     20      18.0808      0.00000
     21      18.3336      0.00000
     22      18.4693      0.00000
     23      18.4694      0.00000
     24      18.5778      0.00000

 k-point   187 :       0.5000    0.5000    0.4167
  band No.  band energies     occupation 
      1      -7.1323      2.00000
      2      -5.9628      2.00000
      3      -5.9110      2.00000
      4      -5.9110      2.00000
      5      -3.4272      2.00000
      6      -3.4272      2.00000
      7      -3.4089      2.00000
      8      -3.3738      2.00000
      9       6.3103      2.00000
     10       6.3103      2.00000
     11       6.3946      2.00000
     12       6.5048      2.00000
     13       6.6334      2.00000
     14       6.6334      2.00000
     15       7.1934      2.00000
     16       7.3928      2.00000
     17      16.3804      0.00000
     18      16.3804      0.00000
     19      16.5510      0.00000
     20      18.3475      0.00000
     21      18.3878      0.00000
     22      18.4447      0.00000
     23      18.5179      0.00000
     24      18.5383      0.00000

 k-point   188 :      -0.4167    0.5000    0.4167
  band No.  band energies     occupation 
      1      -6.9404      2.00000
      2      -6.4438      2.00000
      3      -6.4438      2.00000
      4      -5.6154      2.00000
      5      -3.5903      2.00000
      6      -3.4692      2.00000
      7      -2.7784      2.00000
      8      -2.7784      2.00000
      9       5.9042      2.00000
     10       6.4241      2.00000
     11       6.4241      2.00000
     12       6.4929      2.00000
     13       6.5531      2.00000
     14       6.5531      2.00000
     15       6.8384      2.00000
     16       7.1792      2.00000
     17      16.4295      0.00000
     18      16.4295      0.00000
     19      16.4480      0.00000
     20      18.2531      0.00000
     21      18.2815      0.00000
     22      18.5110      0.00000
     23      18.5453      0.00000
     24      18.5818      0.00000

 k-point   189 :       0.5000    0.5000    0.5000
  band No.  band energies     occupation 
      1      -7.0604      2.00000
      2      -5.7337      2.00000
      3      -5.7337      2.00000
      4      -5.7337      2.00000
      5      -3.7127      2.00000
      6      -3.7127      2.00000
      7      -3.7127      2.00000
      8      -3.5974      2.00000
      9       6.5036      2.00000
     10       6.5036      2.00000
     11       6.5036      2.00000
     12       6.6638      2.00000
     13       6.6638      2.00000
     14       6.6638      2.00000
     15       7.4256      2.00000
     16       7.4256      2.00000
     17      16.3331      0.00000
     18      16.3331      0.00000
     19      16.3331      0.00000
     20      18.3542      0.00000
     21      18.3545      0.00000
     22      18.3892      0.00000
     23      18.3892      0.00000
     24      18.3896      0.00000


--------------------------------------------------------------------------------------------------------


 soft charge-density along one line, spin component           1
         0         1         2         3         4         5         6         7         8         9
 total charge-density along one line
 
 pseudopotential strength for first ion, spin component:           1
  9.452  -0.004   0.000   0.000   0.000  -0.000  -0.000  -0.000
 -0.004  -0.002   0.000   0.000   0.000  -0.000  -0.000  -0.000
  0.000   0.000  -3.672  -0.000  -0.000  -0.009   0.000   0.000
  0.000   0.000  -0.000  -3.672  -0.000   0.000  -0.009   0.000
  0.000   0.000  -0.000  -0.000  -3.672   0.000   0.000  -0.009
 -0.000  -0.000  -0.009   0.000   0.000  -0.757  -0.000  -0.000
 -0.000  -0.000   0.000  -0.009   0.000  -0.000  -0.757  -0.000
 -0.000  -0.000   0.000   0.000  -0.009  -0.000  -0.000  -0.757
 total augmentation occupancy for first ion, spin component:           1
  1.425  -1.016   0.014   0.013   0.014   0.008   0.008   0.008
 -1.016   1.009  -0.040  -0.038  -0.042  -0.013  -0.012  -0.013
  0.014  -0.040   1.093  -0.030  -0.034   0.182  -0.004  -0.005
  0.013  -0.038  -0.030   1.095  -0.032  -0.004   0.183  -0.005
  0.014  -0.042  -0.034  -0.032   1.089  -0.005  -0.005   0.182
  0.008  -0.013   0.182  -0.004  -0.005   0.036  -0.001  -0.001
  0.008  -0.012  -0.004   0.183  -0.005  -0.001   0.036  -0.001
  0.008  -0.013  -0.005  -0.005   0.182  -0.001  -0.001   0.036


------------------------ aborting loop because EDIFF is reached ----------------------------------------


    CHARGE:  cpu time    0.2445: real time    0.2446
    FORLOC:  cpu time    0.0017: real time    0.0017
    FORNL :  cpu time    0.4086: real time    0.4086
    STRESS:  cpu time    0.9860: real time    0.9862
    FORHAR:  cpu time    0.0055: real time    0.0055
    MIXING:  cpu time    0.0020: real time    0.0020
    OFIELD:  cpu time    0.0001: real time    0.0001

  FORCE on cell =-STRESS in cart. coord.  units (eV):
  Direction    XX          YY          ZZ          XY          YZ          ZX
  --------------------------------------------------------------------------------------
  Alpha Z   113.11724   113.11724   113.11724
  Ewald    -463.45843  -460.75788  -458.42552   -26.97215   -24.46178   -25.71693
  Hartree    35.17583    35.94202    36.60375    -7.65243    -6.94018    -7.29631
  E(xc)    -119.33193  -119.32860  -119.32573    -0.03324    -0.03014    -0.03169
  Local     -45.48566   -48.74350   -51.55715    32.53810    29.50960    31.02385
  n-local   -27.52550   -27.94017   -27.71254     1.12105     1.46758     0.71593
  augment    -2.79426    -2.79427    -2.79429     0.00015     0.00014     0.00014
  Kinetic   502.47048   508.06619   515.50524    -6.51026    -9.40596    -3.01567
  Fock        0.00000     0.00000     0.00000     0.00000     0.00000     0.00000
  -------------------------------------------------------------------------------------
  Total      -2.35897    -1.58488    -0.91634    -7.73132    -7.01172    -7.37153
  in kB     -81.98428   -55.08119   -31.84652  -268.69613  -243.68695  -256.19170
  external pressure =      -56.30 kB  Pullay stress =        0.00 kB


 VOLUME and BASIS-vectors are now :
 -----------------------------------------------------------------------------
  energy-cutoff  :      400.00
  volume of cell :       46.10
      direct lattice vectors                 reciprocal lattice vectors
     3.589999359  0.000000000  0.000000000     0.278551582 -0.013944983 -0.013296018
     0.179499466  3.585508984  0.000000000     0.000000000  0.278900431 -0.013296071
     0.179499466  0.170738714  3.581441528     0.000000000  0.000000000  0.279217179

  length of vectors
     3.589999359  3.589999267  3.589999330     0.279217174  0.279217184  0.279217179


 FORCES acting on ions
    electron-ion (+dipol)            ewald-force                    non-local-force                 convergence-correction
 -----------------------------------------------------------------------------------------------
   0.911E+01 0.866E+01 0.826E+01   -.918E+01 -.873E+01 -.833E+01   0.140E+00 0.134E+00 0.127E+00   0.202E-04 0.192E-04 0.183E-04
   -.911E+01 -.866E+01 -.826E+01   0.918E+01 0.873E+01 0.833E+01   -.140E+00 -.134E+00 -.127E+00   -.202E-04 -.192E-04 -.183E-04
   0.911E+01 0.866E+01 0.826E+01   -.918E+01 -.873E+01 -.833E+01   0.140E+00 0.134E+00 0.127E+00   0.202E-04 0.192E-04 0.183E-04
   -.911E+01 -.866E+01 -.826E+01   0.918E+01 0.873E+01 0.833E+01   -.140E+00 -.134E+00 -.127E+00   -.202E-04 -.192E-04 -.183E-04
   0.911E+01 0.866E+01 0.826E+01   -.918E+01 -.873E+01 -.833E+01   0.140E+00 0.134E+00 0.127E+00   0.202E-04 0.192E-04 0.183E-04
   -.911E+01 -.866E+01 -.826E+01   0.918E+01 0.873E+01 0.833E+01   -.140E+00 -.134E+00 -.127E+00   -.202E-04 -.192E-04 -.183E-04
   0.911E+01 0.866E+01 0.826E+01   -.918E+01 -.873E+01 -.833E+01   0.140E+00 0.134E+00 0.127E+00   0.202E-04 0.192E-04 0.183E-04
   -.911E+01 -.866E+01 -.826E+01   0.918E+01 0.873E+01 0.833E+01   -.140E+00 -.134E+00 -.127E+00   -.202E-04 -.192E-04 -.183E-04
 -----------------------------------------------------------------------------------------------
   -.373E-13 -.149E-12 -.247E-12   0.178E-14 0.000E+00 0.000E+00   0.164E-14 0.194E-15 -.111E-15   -.159E-13 -.154E-13 0.278E-13
 
 
 POSITION                                       TOTAL-FORCE (eV/Angst)
 -----------------------------------------------------------------------------------
      1.07700      2.73182      0.89536         0.063689      0.060581      0.057761
      0.08975      0.08537      1.79072        -0.063689     -0.060581     -0.057761
      1.07700      1.02443      2.68608         0.063689      0.060581      0.057761
      0.08975      1.79275      0.00000        -0.063689     -0.060581     -0.057761
      2.96175      2.81719      2.68608         0.063689      0.060581      0.057761
      1.79500      0.00000      0.00000        -0.063689     -0.060581     -0.057761
      2.78225      0.93906      0.89536         0.063689      0.060581      0.057761
      1.97450      1.87812      1.79072        -0.063689     -0.060581     -0.057761
 -----------------------------------------------------------------------------------
    total drift:                               -0.000000     -0.000000     -0.000000


--------------------------------------------------------------------------------------------------------



  FREE ENERGIE OF THE ION-ELECTRON SYSTEM (eV)
  ---------------------------------------------------
  free  energy   TOTEN  =       -72.19761781 eV

  energy  without entropy=      -72.19761781  energy(sigma->0) =      -72.19761781
 


--------------------------------------------------------------------------------------------------------


    POTLOK:  cpu time    0.0266: real time    0.0266


--------------------------------------------------------------------------------------------------------


     LOOP+:  cpu time  125.5722: real time  125.7234
    4ORBIT:  cpu time    0.0000: real time    0.0000
 BZINTS: Fermi energy:  9.664607; 32.000000 electrons
         Band energy:  20.838958;  BLOECHL correction:  0.000000

 total amount of memory used by VASP MPI-rank0    37682. kBytes
=======================================================================

   base      :      30000. kBytes
   nonl-proj :       2640. kBytes
   fftplans  :        346. kBytes
   grid      :        481. kBytes
   one-center:          6. kBytes
   wavefun   :       4209. kBytes
 
  
  
 General timing and accounting informations for this job:
 ========================================================
  
                  Total CPU time used (sec):      128.910
                            User time (sec):      125.394
                          System time (sec):        3.516
                         Elapsed time (sec):      133.081
  
                   Maximum memory used (kb):      193692.
                   Average memory used (kb):           0.
  
                          Minor page faults:        36884
                          Major page faults:           36
                 Voluntary context switches:          786
