<?xml version="1.0" encoding="ISO-8859-1"?>
<modeling>
 <generator>
  <i name="program" type="string">vasp </i>
  <i name="version" type="string">5.4.4.18Apr17-6-g9f103f2a35  </i>
  <i name="subversion" type="string">(build Mar 12 2022 03:36:41) complex            parallel </i>
  <i name="platform" type="string">IFC19.0.3.199_CrayMPICH7.7.19 </i>
  <i name="date" type="string">2022 12 01 </i>
  <i name="time" type="string">11:14:06 </i>
 </generator>
 <incar>
  <i type="int" name="ISTART">     0</i>
  <i type="string" name="PREC">accurate</i>
  <i name="EDIFF">      0.00000100</i>
  <i name="POTIM">      0.02000000</i>
  <i type="int" name="ISMEAR">    -5</i>
  <i name="SIGMA">      0.06000000</i>
  <i type="logical" name="LWAVE"> F  </i>
  <i type="logical" name="LCHARG"> F  </i>
  <v type="int" name="KPOINT_BSE">    -1     0     0     0</v>
 </incar>
 <structure name="primitive_cell" >
  <crystal>
   <varray name="basis" >
    <v>      -0.17949947      -1.87812385      -1.79072076 </v>
    <v>      -1.88474941      -1.79275449      -0.00000000 </v>
    <v>      -1.88474941      -0.08536936      -1.79072076 </v>
   </varray>
   <i name="volume">     11.52505641 </i>
   <varray name="rec_basis" >
    <v>       0.27855158      -0.29284541      -0.27921713 </v>
    <v>      -0.27855158      -0.26495545       0.30580927 </v>
    <v>      -0.27855158       0.29284541      -0.27921723 </v>
   </varray>
  </crystal>
  <varray name="positions" >
   <v>       0.25000000       0.25000000       0.25000000 </v>
   <v>      -0.50000000      -0.50000000      -0.50000000 </v>
  </varray>
 </structure>
 <varray name="primitive_index" >
  <v type="int" >        1 </v>
  <v type="int" >        6 </v>
 </varray>
 <kpoints>
  <generation param="Gamma">
   <v type="int" name="divisions">      12       12       12 </v>
   <v name="usershift">      0.00000000       0.00000000       0.00000000 </v>
   <v name="genvec1">      0.08333333      -0.00000000      -0.00000000 </v>
   <v name="genvec2">      0.00000000       0.08333333      -0.00000000 </v>
   <v name="genvec3">      0.00000000       0.00000000       0.08333333 </v>
   <v name="shift">      0.00000000       0.00000000       0.00000000 </v>
  </generation>
  <varray name="kpointlist" >
   <v>       0.00000000       0.00000000       0.00000000 </v>
   <v>       0.08333333       0.00000000      -0.00000000 </v>
   <v>       0.16666667       0.00000000      -0.00000000 </v>
   <v>       0.25000000       0.00000000       0.00000000 </v>
   <v>       0.33333333       0.00000000       0.00000000 </v>
   <v>       0.41666667       0.00000000       0.00000000 </v>
   <v>       0.50000000       0.00000000       0.00000000 </v>
   <v>       0.08333333       0.08333333      -0.00000000 </v>
   <v>       0.16666667       0.08333333       0.00000000 </v>
   <v>       0.25000000       0.08333333      -0.00000000 </v>
   <v>       0.33333333       0.08333333       0.00000000 </v>
   <v>       0.41666667       0.08333333      -0.00000000 </v>
   <v>       0.50000000       0.08333333      -0.00000000 </v>
   <v>      -0.41666667       0.08333333      -0.00000000 </v>
   <v>      -0.33333333       0.08333333       0.00000000 </v>
   <v>      -0.25000000       0.08333333       0.00000000 </v>
   <v>      -0.16666667       0.08333333      -0.00000000 </v>
   <v>      -0.08333333       0.08333333      -0.00000000 </v>
   <v>       0.16666667       0.16666667      -0.00000000 </v>
   <v>       0.25000000       0.16666667      -0.00000000 </v>
   <v>       0.33333333       0.16666667       0.00000000 </v>
   <v>       0.41666667       0.16666667      -0.00000000 </v>
   <v>       0.50000000       0.16666667       0.00000000 </v>
   <v>      -0.41666667       0.16666667      -0.00000000 </v>
   <v>      -0.33333333       0.16666667      -0.00000000 </v>
   <v>      -0.25000000       0.16666667      -0.00000000 </v>
   <v>      -0.16666667       0.16666667      -0.00000000 </v>
   <v>       0.25000000       0.25000000      -0.00000000 </v>
   <v>       0.33333333       0.25000000      -0.00000000 </v>
   <v>       0.41666667       0.25000000      -0.00000000 </v>
   <v>       0.50000000       0.25000000      -0.00000000 </v>
   <v>      -0.41666667       0.25000000       0.00000000 </v>
   <v>      -0.33333333       0.25000000       0.00000000 </v>
   <v>      -0.25000000       0.25000000      -0.00000000 </v>
   <v>       0.33333333       0.33333333       0.00000000 </v>
   <v>       0.41666667       0.33333333       0.00000000 </v>
   <v>       0.50000000       0.33333333      -0.00000000 </v>
   <v>      -0.41666667       0.33333333      -0.00000000 </v>
   <v>      -0.33333333       0.33333333       0.00000000 </v>
   <v>       0.41666667       0.41666667       0.00000000 </v>
   <v>       0.50000000       0.41666667      -0.00000000 </v>
   <v>      -0.41666667       0.41666667       0.00000000 </v>
   <v>       0.50000000       0.50000000      -0.00000000 </v>
   <v>       0.08333333       0.08333333       0.08333333 </v>
   <v>       0.16666667       0.08333333       0.08333333 </v>
   <v>       0.25000000       0.08333333       0.08333333 </v>
   <v>       0.33333333       0.08333333       0.08333333 </v>
   <v>       0.41666667       0.08333333       0.08333333 </v>
   <v>       0.50000000       0.08333333       0.08333333 </v>
   <v>      -0.41666667       0.08333333       0.08333333 </v>
   <v>      -0.33333333       0.08333333       0.08333333 </v>
   <v>      -0.25000000       0.08333333       0.08333333 </v>
   <v>      -0.16666667       0.08333333       0.08333333 </v>
   <v>      -0.08333333       0.08333333       0.08333333 </v>
   <v>       0.16666667       0.16666667       0.08333333 </v>
   <v>       0.25000000       0.16666667       0.08333333 </v>
   <v>       0.33333333       0.16666667       0.08333333 </v>
   <v>       0.41666667       0.16666667       0.08333333 </v>
   <v>       0.50000000       0.16666667       0.08333333 </v>
   <v>      -0.41666667       0.16666667       0.08333333 </v>
   <v>      -0.33333333       0.16666667       0.08333333 </v>
   <v>      -0.25000000       0.16666667       0.08333333 </v>
   <v>      -0.16666667       0.16666667       0.08333333 </v>
   <v>      -0.08333333       0.16666667       0.08333333 </v>
   <v>       0.25000000       0.25000000       0.08333333 </v>
   <v>       0.33333333       0.25000000       0.08333333 </v>
   <v>       0.41666667       0.25000000       0.08333333 </v>
   <v>       0.50000000       0.25000000       0.08333333 </v>
   <v>      -0.41666667       0.25000000       0.08333333 </v>
   <v>      -0.33333333       0.25000000       0.08333333 </v>
   <v>      -0.25000000       0.25000000       0.08333333 </v>
   <v>      -0.16666667       0.25000000       0.08333333 </v>
   <v>      -0.08333333       0.25000000       0.08333333 </v>
   <v>       0.33333333       0.33333333       0.08333333 </v>
   <v>       0.41666667       0.33333333       0.08333333 </v>
   <v>       0.50000000       0.33333333       0.08333333 </v>
   <v>      -0.41666667       0.33333333       0.08333333 </v>
   <v>      -0.33333333       0.33333333       0.08333333 </v>
   <v>      -0.25000000       0.33333333       0.08333333 </v>
   <v>      -0.16666667       0.33333333       0.08333333 </v>
   <v>      -0.08333333       0.33333333       0.08333333 </v>
   <v>       0.41666667       0.41666667       0.08333333 </v>
   <v>       0.50000000       0.41666667       0.08333333 </v>
   <v>      -0.41666667       0.41666667       0.08333333 </v>
   <v>      -0.33333333       0.41666667       0.08333333 </v>
   <v>      -0.25000000       0.41666667       0.08333333 </v>
   <v>      -0.16666667       0.41666667       0.08333333 </v>
   <v>      -0.08333333       0.41666667       0.08333333 </v>
   <v>       0.50000000       0.50000000       0.08333333 </v>
   <v>      -0.41666667       0.50000000       0.08333333 </v>
   <v>      -0.33333333       0.50000000       0.08333333 </v>
   <v>      -0.25000000       0.50000000       0.08333333 </v>
   <v>      -0.16666667       0.50000000       0.08333333 </v>
   <v>      -0.08333333       0.50000000       0.08333333 </v>
   <v>      -0.41666667      -0.41666667       0.08333333 </v>
   <v>      -0.33333333      -0.41666667       0.08333333 </v>
   <v>      -0.25000000      -0.41666667       0.08333333 </v>
   <v>      -0.16666667      -0.41666667       0.08333333 </v>
   <v>      -0.33333333      -0.33333333       0.08333333 </v>
   <v>      -0.25000000      -0.33333333       0.08333333 </v>
   <v>      -0.16666667      -0.33333333       0.08333333 </v>
   <v>      -0.25000000      -0.25000000       0.08333333 </v>
   <v>      -0.16666667      -0.25000000       0.08333333 </v>
   <v>      -0.16666667      -0.16666667       0.08333333 </v>
   <v>       0.16666667       0.16666667       0.16666667 </v>
   <v>       0.25000000       0.16666667       0.16666667 </v>
   <v>       0.33333333       0.16666667       0.16666667 </v>
   <v>       0.41666667       0.16666667       0.16666667 </v>
   <v>       0.50000000       0.16666667       0.16666667 </v>
   <v>      -0.41666667       0.16666667       0.16666667 </v>
   <v>      -0.33333333       0.16666667       0.16666667 </v>
   <v>      -0.25000000       0.16666667       0.16666667 </v>
   <v>      -0.16666667       0.16666667       0.16666667 </v>
   <v>       0.25000000       0.25000000       0.16666667 </v>
   <v>       0.33333333       0.25000000       0.16666667 </v>
   <v>       0.41666667       0.25000000       0.16666667 </v>
   <v>       0.50000000       0.25000000       0.16666667 </v>
   <v>      -0.41666667       0.25000000       0.16666667 </v>
   <v>      -0.33333333       0.25000000       0.16666667 </v>
   <v>      -0.25000000       0.25000000       0.16666667 </v>
   <v>      -0.16666667       0.25000000       0.16666667 </v>
   <v>       0.33333333       0.33333333       0.16666667 </v>
   <v>       0.41666667       0.33333333       0.16666667 </v>
   <v>       0.50000000       0.33333333       0.16666667 </v>
   <v>      -0.41666667       0.33333333       0.16666667 </v>
   <v>      -0.33333333       0.33333333       0.16666667 </v>
   <v>      -0.25000000       0.33333333       0.16666667 </v>
   <v>      -0.16666667       0.33333333       0.16666667 </v>
   <v>       0.41666667       0.41666667       0.16666667 </v>
   <v>       0.50000000       0.41666667       0.16666667 </v>
   <v>      -0.41666667       0.41666667       0.16666667 </v>
   <v>      -0.33333333       0.41666667       0.16666667 </v>
   <v>      -0.25000000       0.41666667       0.16666667 </v>
   <v>      -0.16666667       0.41666667       0.16666667 </v>
   <v>       0.50000000       0.50000000       0.16666667 </v>
   <v>      -0.41666667       0.50000000       0.16666667 </v>
   <v>      -0.33333333       0.50000000       0.16666667 </v>
   <v>      -0.25000000       0.50000000       0.16666667 </v>
   <v>      -0.16666667       0.50000000       0.16666667 </v>
   <v>      -0.41666667      -0.41666667       0.16666667 </v>
   <v>      -0.33333333      -0.41666667       0.16666667 </v>
   <v>      -0.25000000      -0.41666667       0.16666667 </v>
   <v>      -0.33333333      -0.33333333       0.16666667 </v>
   <v>      -0.25000000      -0.33333333       0.16666667 </v>
   <v>      -0.25000000      -0.25000000       0.16666667 </v>
   <v>       0.25000000       0.25000000       0.25000000 </v>
   <v>       0.33333333       0.25000000       0.25000000 </v>
   <v>       0.41666667       0.25000000       0.25000000 </v>
   <v>       0.50000000       0.25000000       0.25000000 </v>
   <v>      -0.41666667       0.25000000       0.25000000 </v>
   <v>      -0.33333333       0.25000000       0.25000000 </v>
   <v>      -0.25000000       0.25000000       0.25000000 </v>
   <v>       0.33333333       0.33333333       0.25000000 </v>
   <v>       0.41666667       0.33333333       0.25000000 </v>
   <v>       0.50000000       0.33333333       0.25000000 </v>
   <v>      -0.41666667       0.33333333       0.25000000 </v>
   <v>      -0.33333333       0.33333333       0.25000000 </v>
   <v>      -0.25000000       0.33333333       0.25000000 </v>
   <v>       0.41666667       0.41666667       0.25000000 </v>
   <v>       0.50000000       0.41666667       0.25000000 </v>
   <v>      -0.41666667       0.41666667       0.25000000 </v>
   <v>      -0.33333333       0.41666667       0.25000000 </v>
   <v>      -0.25000000       0.41666667       0.25000000 </v>
   <v>       0.50000000       0.50000000       0.25000000 </v>
   <v>      -0.41666667       0.50000000       0.25000000 </v>
   <v>      -0.33333333       0.50000000       0.25000000 </v>
   <v>      -0.25000000       0.50000000       0.25000000 </v>
   <v>      -0.41666667      -0.41666667       0.25000000 </v>
   <v>      -0.33333333      -0.41666667       0.25000000 </v>
   <v>      -0.33333333      -0.33333333       0.25000000 </v>
   <v>       0.33333333       0.33333333       0.33333333 </v>
   <v>       0.41666667       0.33333333       0.33333333 </v>
   <v>       0.50000000       0.33333333       0.33333333 </v>
   <v>      -0.41666667       0.33333333       0.33333333 </v>
   <v>      -0.33333333       0.33333333       0.33333333 </v>
   <v>       0.41666667       0.41666667       0.33333333 </v>
   <v>       0.50000000       0.41666667       0.33333333 </v>
   <v>      -0.41666667       0.41666667       0.33333333 </v>
   <v>      -0.33333333       0.41666667       0.33333333 </v>
   <v>       0.50000000       0.50000000       0.33333333 </v>
   <v>      -0.41666667       0.50000000       0.33333333 </v>
   <v>      -0.33333333       0.50000000       0.33333333 </v>
   <v>      -0.41666667      -0.41666667       0.33333333 </v>
   <v>       0.41666667       0.41666667       0.41666667 </v>
   <v>       0.50000000       0.41666667       0.41666667 </v>
   <v>      -0.41666667       0.41666667       0.41666667 </v>
   <v>       0.50000000       0.50000000       0.41666667 </v>
   <v>      -0.41666667       0.50000000       0.41666667 </v>
   <v>       0.50000000       0.50000000       0.50000000 </v>
  </varray>
  <varray name="weights" >
   <v>       0.00057870 </v>
   <v>       0.00347222 </v>
   <v>       0.00347222 </v>
   <v>       0.00347222 </v>
   <v>       0.00347222 </v>
   <v>       0.00347222 </v>
   <v>       0.00173611 </v>
   <v>       0.00347222 </v>
   <v>       0.00694444 </v>
   <v>       0.00694444 </v>
   <v>       0.00694444 </v>
   <v>       0.00694444 </v>
   <v>       0.00694444 </v>
   <v>       0.00694444 </v>
   <v>       0.00694444 </v>
   <v>       0.00694444 </v>
   <v>       0.00694444 </v>
   <v>       0.00347222 </v>
   <v>       0.00347222 </v>
   <v>       0.00694444 </v>
   <v>       0.00694444 </v>
   <v>       0.00694444 </v>
   <v>       0.00694444 </v>
   <v>       0.00694444 </v>
   <v>       0.00694444 </v>
   <v>       0.00694444 </v>
   <v>       0.00347222 </v>
   <v>       0.00347222 </v>
   <v>       0.00694444 </v>
   <v>       0.00694444 </v>
   <v>       0.00694444 </v>
   <v>       0.00694444 </v>
   <v>       0.00694444 </v>
   <v>       0.00347222 </v>
   <v>       0.00347222 </v>
   <v>       0.00694444 </v>
   <v>       0.00694444 </v>
   <v>       0.00694444 </v>
   <v>       0.00347222 </v>
   <v>       0.00347222 </v>
   <v>       0.00694444 </v>
   <v>       0.00347222 </v>
   <v>       0.00173611 </v>
   <v>       0.00115741 </v>
   <v>       0.00347222 </v>
   <v>       0.00347222 </v>
   <v>       0.00347222 </v>
   <v>       0.00347222 </v>
   <v>       0.00347222 </v>
   <v>       0.00347222 </v>
   <v>       0.00347222 </v>
   <v>       0.00347222 </v>
   <v>       0.00347222 </v>
   <v>       0.00347222 </v>
   <v>       0.00347222 </v>
   <v>       0.00694444 </v>
   <v>       0.00694444 </v>
   <v>       0.00694444 </v>
   <v>       0.00694444 </v>
   <v>       0.00694444 </v>
   <v>       0.00694444 </v>
   <v>       0.00694444 </v>
   <v>       0.00694444 </v>
   <v>       0.00694444 </v>
   <v>       0.00347222 </v>
   <v>       0.00694444 </v>
   <v>       0.00694444 </v>
   <v>       0.00694444 </v>
   <v>       0.00694444 </v>
   <v>       0.00694444 </v>
   <v>       0.00694444 </v>
   <v>       0.00694444 </v>
   <v>       0.00694444 </v>
   <v>       0.00347222 </v>
   <v>       0.00694444 </v>
   <v>       0.00694444 </v>
   <v>       0.00694444 </v>
   <v>       0.00694444 </v>
   <v>       0.00694444 </v>
   <v>       0.00694444 </v>
   <v>       0.00694444 </v>
   <v>       0.00347222 </v>
   <v>       0.00694444 </v>
   <v>       0.00694444 </v>
   <v>       0.00694444 </v>
   <v>       0.00694444 </v>
   <v>       0.00694444 </v>
   <v>       0.00694444 </v>
   <v>       0.00347222 </v>
   <v>       0.00694444 </v>
   <v>       0.00694444 </v>
   <v>       0.00694444 </v>
   <v>       0.00694444 </v>
   <v>       0.00347222 </v>
   <v>       0.00347222 </v>
   <v>       0.00694444 </v>
   <v>       0.00694444 </v>
   <v>       0.00694444 </v>
   <v>       0.00347222 </v>
   <v>       0.00694444 </v>
   <v>       0.00694444 </v>
   <v>       0.00347222 </v>
   <v>       0.00694444 </v>
   <v>       0.00347222 </v>
   <v>       0.00115741 </v>
   <v>       0.00347222 </v>
   <v>       0.00347222 </v>
   <v>       0.00347222 </v>
   <v>       0.00347222 </v>
   <v>       0.00347222 </v>
   <v>       0.00347222 </v>
   <v>       0.00347222 </v>
   <v>       0.00347222 </v>
   <v>       0.00347222 </v>
   <v>       0.00694444 </v>
   <v>       0.00694444 </v>
   <v>       0.00694444 </v>
   <v>       0.00694444 </v>
   <v>       0.00694444 </v>
   <v>       0.00694444 </v>
   <v>       0.00694444 </v>
   <v>       0.00347222 </v>
   <v>       0.00694444 </v>
   <v>       0.00694444 </v>
   <v>       0.00694444 </v>
   <v>       0.00694444 </v>
   <v>       0.00694444 </v>
   <v>       0.00694444 </v>
   <v>       0.00347222 </v>
   <v>       0.00694444 </v>
   <v>       0.00694444 </v>
   <v>       0.00694444 </v>
   <v>       0.00694444 </v>
   <v>       0.00694444 </v>
   <v>       0.00347222 </v>
   <v>       0.00694444 </v>
   <v>       0.00694444 </v>
   <v>       0.00694444 </v>
   <v>       0.00347222 </v>
   <v>       0.00347222 </v>
   <v>       0.00694444 </v>
   <v>       0.00694444 </v>
   <v>       0.00347222 </v>
   <v>       0.00694444 </v>
   <v>       0.00347222 </v>
   <v>       0.00115741 </v>
   <v>       0.00347222 </v>
   <v>       0.00347222 </v>
   <v>       0.00347222 </v>
   <v>       0.00347222 </v>
   <v>       0.00347222 </v>
   <v>       0.00347222 </v>
   <v>       0.00347222 </v>
   <v>       0.00694444 </v>
   <v>       0.00694444 </v>
   <v>       0.00694444 </v>
   <v>       0.00694444 </v>
   <v>       0.00694444 </v>
   <v>       0.00347222 </v>
   <v>       0.00694444 </v>
   <v>       0.00694444 </v>
   <v>       0.00694444 </v>
   <v>       0.00694444 </v>
   <v>       0.00347222 </v>
   <v>       0.00694444 </v>
   <v>       0.00694444 </v>
   <v>       0.00347222 </v>
   <v>       0.00347222 </v>
   <v>       0.00694444 </v>
   <v>       0.00347222 </v>
   <v>       0.00115741 </v>
   <v>       0.00347222 </v>
   <v>       0.00347222 </v>
   <v>       0.00347222 </v>
   <v>       0.00347222 </v>
   <v>       0.00347222 </v>
   <v>       0.00694444 </v>
   <v>       0.00694444 </v>
   <v>       0.00694444 </v>
   <v>       0.00347222 </v>
   <v>       0.00694444 </v>
   <v>       0.00347222 </v>
   <v>       0.00347222 </v>
   <v>       0.00115741 </v>
   <v>       0.00347222 </v>
   <v>       0.00347222 </v>
   <v>       0.00347222 </v>
   <v>       0.00347222 </v>
   <v>       0.00057870 </v>
  </varray>
  <varray name="tetrahedronlist"  type="int" >
   <v type="int" >       12        1        2        8       44 </v>
   <v type="int" >       12        2        8        9       45 </v>
   <v type="int" >       12        2        3        9       45 </v>
   <v type="int" >       12        2        8       44       45 </v>
   <v type="int" >       12        3        9       10       46 </v>
   <v type="int" >       12        3        4       10       46 </v>
   <v type="int" >       12        3        9       45       46 </v>
   <v type="int" >       12        4       10       11       47 </v>
   <v type="int" >       12        4        5       11       47 </v>
   <v type="int" >       12        4       10       46       47 </v>
   <v type="int" >       12        5       11       12       48 </v>
   <v type="int" >       12        5        6       12       48 </v>
   <v type="int" >       12        5       11       47       48 </v>
   <v type="int" >       12        6       12       13       49 </v>
   <v type="int" >       12        6        7       13       49 </v>
   <v type="int" >       12        6       12       48       49 </v>
   <v type="int" >       12        7       13       14       50 </v>
   <v type="int" >       12        6        7       14       50 </v>
   <v type="int" >       12        7       13       49       50 </v>
   <v type="int" >       12        6       14       15       51 </v>
   <v type="int" >       12        5        6       15       51 </v>
   <v type="int" >       12        6       14       50       51 </v>
   <v type="int" >       12        5       15       16       52 </v>
   <v type="int" >       12        4        5       16       52 </v>
   <v type="int" >       12        5       15       51       52 </v>
   <v type="int" >       12        4       16       17       53 </v>
   <v type="int" >       12        3        4       17       53 </v>
   <v type="int" >       12        4       16       52       53 </v>
   <v type="int" >       12        3       17       18       54 </v>
   <v type="int" >       12        2        3       18       54 </v>
   <v type="int" >       12        3       17       53       54 </v>
   <v type="int" >       12        2        2        8       18 </v>
   <v type="int" >       12        1        2        2        8 </v>
   <v type="int" >       12        2        8       18       54 </v>
   <v type="int" >       12        8        9       19       55 </v>
   <v type="int" >       12        8        9       45       55 </v>
   <v type="int" >       12        8       44       45       55 </v>
   <v type="int" >       12        9       19       20       56 </v>
   <v type="int" >       12        9       10       20       56 </v>
   <v type="int" >       12        9       10       46       56 </v>
   <v type="int" >       12        9       19       55       56 </v>
   <v type="int" >       12        9       45       55       56 </v>
   <v type="int" >       12        9       45       46       56 </v>
   <v type="int" >       12       10       20       21       57 </v>
   <v type="int" >       12       10       11       21       57 </v>
   <v type="int" >       12       10       11       47       57 </v>
   <v type="int" >       12       10       20       56       57 </v>
   <v type="int" >       12       10       46       56       57 </v>
   <v type="int" >       12       10       46       47       57 </v>
   <v type="int" >       12       11       21       22       58 </v>
   <v type="int" >       12       11       12       22       58 </v>
   <v type="int" >       12       11       12       48       58 </v>
   <v type="int" >       12       11       21       57       58 </v>
   <v type="int" >       12       11       47       57       58 </v>
   <v type="int" >       12       11       47       48       58 </v>
   <v type="int" >       12       12       22       23       59 </v>
   <v type="int" >       12       12       13       23       59 </v>
   <v type="int" >       12       12       13       49       59 </v>
   <v type="int" >       12       12       22       58       59 </v>
   <v type="int" >       12       12       48       58       59 </v>
   <v type="int" >       12       12       48       49       59 </v>
   <v type="int" >       12       13       23       24       60 </v>
   <v type="int" >       12       13       14       24       60 </v>
   <v type="int" >       12       13       14       50       60 </v>
   <v type="int" >       12       13       23       59       60 </v>
   <v type="int" >       12       13       49       59       60 </v>
   <v type="int" >       12       13       49       50       60 </v>
   <v type="int" >       12       14       24       25       61 </v>
   <v type="int" >       12       14       15       25       61 </v>
   <v type="int" >       12       14       15       51       61 </v>
   <v type="int" >       12       14       24       60       61 </v>
   <v type="int" >       12       14       50       60       61 </v>
   <v type="int" >       12       14       50       51       61 </v>
   <v type="int" >       12       15       25       26       62 </v>
   <v type="int" >       12       15       16       26       62 </v>
   <v type="int" >       12       15       16       52       62 </v>
   <v type="int" >       12       15       25       61       62 </v>
   <v type="int" >       12       15       51       61       62 </v>
   <v type="int" >       12       15       51       52       62 </v>
   <v type="int" >       12       16       26       27       63 </v>
   <v type="int" >       12       16       17       27       63 </v>
   <v type="int" >       12       16       17       53       63 </v>
   <v type="int" >       12       16       26       62       63 </v>
   <v type="int" >       12       16       52       62       63 </v>
   <v type="int" >       12       16       52       53       63 </v>
   <v type="int" >       12       17       17       27       64 </v>
   <v type="int" >       12       17       17       18       64 </v>
   <v type="int" >       12       17       18       54       64 </v>
   <v type="int" >       12       17       27       63       64 </v>
   <v type="int" >       12       17       53       63       64 </v>
   <v type="int" >       12       17       53       54       64 </v>
   <v type="int" >       12        3        9       17       18 </v>
   <v type="int" >       12        2        3        9       18 </v>
   <v type="int" >       12        2        8        9       18 </v>
   <v type="int" >       12        9       17       18       64 </v>
   <v type="int" >       12        9       18       54       64 </v>
   <v type="int" >       12        8        9       18       54 </v>
   <v type="int" >       12       19       20       28       65 </v>
   <v type="int" >       12       19       20       56       65 </v>
   <v type="int" >       12       19       55       56       65 </v>
   <v type="int" >       12       20       28       29       66 </v>
   <v type="int" >       12       20       21       29       66 </v>
   <v type="int" >       12       20       21       57       66 </v>
   <v type="int" >       12       20       28       65       66 </v>
   <v type="int" >       12       20       56       65       66 </v>
   <v type="int" >       12       20       56       57       66 </v>
   <v type="int" >       12       21       29       30       67 </v>
   <v type="int" >       12       21       22       30       67 </v>
   <v type="int" >       12       21       22       58       67 </v>
   <v type="int" >       12       21       29       66       67 </v>
   <v type="int" >       12       21       57       66       67 </v>
   <v type="int" >       12       21       57       58       67 </v>
   <v type="int" >       12       22       30       31       68 </v>
   <v type="int" >       12       22       23       31       68 </v>
   <v type="int" >       12       22       23       59       68 </v>
   <v type="int" >       12       22       30       67       68 </v>
   <v type="int" >       12       22       58       67       68 </v>
   <v type="int" >       12       22       58       59       68 </v>
   <v type="int" >       12       23       31       32       69 </v>
   <v type="int" >       12       23       24       32       69 </v>
   <v type="int" >       12       23       24       60       69 </v>
   <v type="int" >       12       23       31       68       69 </v>
   <v type="int" >       12       23       59       68       69 </v>
   <v type="int" >       12       23       59       60       69 </v>
   <v type="int" >       12       24       32       33       70 </v>
   <v type="int" >       12       24       25       33       70 </v>
   <v type="int" >       12       24       25       61       70 </v>
   <v type="int" >       12       24       32       69       70 </v>
   <v type="int" >       12       24       60       69       70 </v>
   <v type="int" >       12       24       60       61       70 </v>
   <v type="int" >       12       25       33       34       71 </v>
   <v type="int" >       12       25       26       34       71 </v>
   <v type="int" >       12       25       26       62       71 </v>
   <v type="int" >       12       25       33       70       71 </v>
   <v type="int" >       12       25       61       70       71 </v>
   <v type="int" >       12       25       61       62       71 </v>
   <v type="int" >       12       26       26       34       72 </v>
   <v type="int" >       12       26       26       27       72 </v>
   <v type="int" >       12       26       27       63       72 </v>
   <v type="int" >       12       26       34       71       72 </v>
   <v type="int" >       12       26       62       71       72 </v>
   <v type="int" >       12       26       62       63       72 </v>
   <v type="int" >       12       16       26       27       73 </v>
   <v type="int" >       12       16       17       27       73 </v>
   <v type="int" >       12       17       27       64       73 </v>
   <v type="int" >       12       26       27       72       73 </v>
   <v type="int" >       12       27       63       72       73 </v>
   <v type="int" >       12       27       63       64       73 </v>
   <v type="int" >       12        4       10       16       17 </v>
   <v type="int" >       12        3        4       10       17 </v>
   <v type="int" >       12        3        9       10       17 </v>
   <v type="int" >       12       10       16       17       73 </v>
   <v type="int" >       12       10       17       64       73 </v>
   <v type="int" >       12        9       10       17       64 </v>
   <v type="int" >       12       28       29       35       74 </v>
   <v type="int" >       12       28       29       66       74 </v>
   <v type="int" >       12       28       65       66       74 </v>
   <v type="int" >       12       29       35       36       75 </v>
   <v type="int" >       12       29       30       36       75 </v>
   <v type="int" >       12       29       30       67       75 </v>
   <v type="int" >       12       29       35       74       75 </v>
   <v type="int" >       12       29       66       74       75 </v>
   <v type="int" >       12       29       66       67       75 </v>
   <v type="int" >       12       30       36       37       76 </v>
   <v type="int" >       12       30       31       37       76 </v>
   <v type="int" >       12       30       31       68       76 </v>
   <v type="int" >       12       30       36       75       76 </v>
   <v type="int" >       12       30       67       75       76 </v>
   <v type="int" >       12       30       67       68       76 </v>
   <v type="int" >       12       31       37       38       77 </v>
   <v type="int" >       12       31       32       38       77 </v>
   <v type="int" >       12       31       32       69       77 </v>
   <v type="int" >       12       31       37       76       77 </v>
   <v type="int" >       12       31       68       76       77 </v>
   <v type="int" >       12       31       68       69       77 </v>
   <v type="int" >       12       32       38       39       78 </v>
   <v type="int" >       12       32       33       39       78 </v>
   <v type="int" >       12       32       33       70       78 </v>
   <v type="int" >       12       32       38       77       78 </v>
   <v type="int" >       12       32       69       77       78 </v>
   <v type="int" >       12       32       69       70       78 </v>
   <v type="int" >       12       33       33       39       79 </v>
   <v type="int" >       12       33       33       34       79 </v>
   <v type="int" >       12       33       34       71       79 </v>
   <v type="int" >       12       33       39       78       79 </v>
   <v type="int" >       12       33       70       78       79 </v>
   <v type="int" >       12       33       70       71       79 </v>
   <v type="int" >       12       25       33       34       80 </v>
   <v type="int" >       12       25       26       34       80 </v>
   <v type="int" >       12       26       34       72       80 </v>
   <v type="int" >       12       33       34       79       80 </v>
   <v type="int" >       12       34       71       79       80 </v>
   <v type="int" >       12       34       71       72       80 </v>
   <v type="int" >       12       15       25       26       81 </v>
   <v type="int" >       12       15       16       26       81 </v>
   <v type="int" >       12       16       26       73       81 </v>
   <v type="int" >       12       25       26       80       81 </v>
   <v type="int" >       12       26       72       80       81 </v>
   <v type="int" >       12       26       72       73       81 </v>
   <v type="int" >       12        5       11       15       16 </v>
   <v type="int" >       12        4        5       11       16 </v>
   <v type="int" >       12        4       10       11       16 </v>
   <v type="int" >       12       11       15       16       81 </v>
   <v type="int" >       12       11       16       73       81 </v>
   <v type="int" >       12       10       11       16       73 </v>
   <v type="int" >       12       35       36       40       82 </v>
   <v type="int" >       12       35       36       75       82 </v>
   <v type="int" >       12       35       74       75       82 </v>
   <v type="int" >       12       36       40       41       83 </v>
   <v type="int" >       12       36       37       41       83 </v>
   <v type="int" >       12       36       37       76       83 </v>
   <v type="int" >       12       36       40       82       83 </v>
   <v type="int" >       12       36       75       82       83 </v>
   <v type="int" >       12       36       75       76       83 </v>
   <v type="int" >       12       37       41       42       84 </v>
   <v type="int" >       12       37       38       42       84 </v>
   <v type="int" >       12       37       38       77       84 </v>
   <v type="int" >       12       37       41       83       84 </v>
   <v type="int" >       12       37       76       83       84 </v>
   <v type="int" >       12       37       76       77       84 </v>
   <v type="int" >       12       38       38       42       85 </v>
   <v type="int" >       12       38       38       39       85 </v>
   <v type="int" >       12       38       39       78       85 </v>
   <v type="int" >       12       38       42       84       85 </v>
   <v type="int" >       12       38       77       84       85 </v>
   <v type="int" >       12       38       77       78       85 </v>
   <v type="int" >       12       32       38       39       86 </v>
   <v type="int" >       12       32       33       39       86 </v>
   <v type="int" >       12       33       39       79       86 </v>
   <v type="int" >       12       38       39       85       86 </v>
   <v type="int" >       12       39       78       85       86 </v>
   <v type="int" >       12       39       78       79       86 </v>
   <v type="int" >       12       24       32       33       87 </v>
   <v type="int" >       12       24       25       33       87 </v>
   <v type="int" >       12       25       33       80       87 </v>
   <v type="int" >       12       32       33       86       87 </v>
   <v type="int" >       12       33       79       86       87 </v>
   <v type="int" >       12       33       79       80       87 </v>
   <v type="int" >       12       14       24       25       88 </v>
   <v type="int" >       12       14       15       25       88 </v>
   <v type="int" >       12       15       25       81       88 </v>
   <v type="int" >       12       24       25       87       88 </v>
   <v type="int" >       12       25       80       87       88 </v>
   <v type="int" >       12       25       80       81       88 </v>
   <v type="int" >       12        6       12       14       15 </v>
   <v type="int" >       12        5        6       12       15 </v>
   <v type="int" >       12        5       11       12       15 </v>
   <v type="int" >       12       12       14       15       88 </v>
   <v type="int" >       12       12       15       81       88 </v>
   <v type="int" >       12       11       12       15       81 </v>
   <v type="int" >       12       40       41       43       89 </v>
   <v type="int" >       12       40       41       83       89 </v>
   <v type="int" >       12       40       82       83       89 </v>
   <v type="int" >       12       41       41       43       90 </v>
   <v type="int" >       12       41       41       42       90 </v>
   <v type="int" >       12       41       42       84       90 </v>
   <v type="int" >       12       41       43       89       90 </v>
   <v type="int" >       12       41       83       89       90 </v>
   <v type="int" >       12       41       83       84       90 </v>
   <v type="int" >       12       37       41       42       91 </v>
   <v type="int" >       12       37       38       42       91 </v>
   <v type="int" >       12       38       42       85       91 </v>
   <v type="int" >       12       41       42       90       91 </v>
   <v type="int" >       12       42       84       90       91 </v>
   <v type="int" >       12       42       84       85       91 </v>
   <v type="int" >       12       31       37       38       92 </v>
   <v type="int" >       12       31       32       38       92 </v>
   <v type="int" >       12       32       38       86       92 </v>
   <v type="int" >       12       37       38       91       92 </v>
   <v type="int" >       12       38       85       91       92 </v>
   <v type="int" >       12       38       85       86       92 </v>
   <v type="int" >       12       23       31       32       93 </v>
   <v type="int" >       12       23       24       32       93 </v>
   <v type="int" >       12       24       32       87       93 </v>
   <v type="int" >       12       31       32       92       93 </v>
   <v type="int" >       12       32       86       92       93 </v>
   <v type="int" >       12       32       86       87       93 </v>
   <v type="int" >       12       13       23       24       94 </v>
   <v type="int" >       12       13       14       24       94 </v>
   <v type="int" >       12       14       24       88       94 </v>
   <v type="int" >       12       23       24       93       94 </v>
   <v type="int" >       12       24       87       93       94 </v>
   <v type="int" >       12       24       87       88       94 </v>
   <v type="int" >       12        7       13       13       14 </v>
   <v type="int" >       12        6        7       13       14 </v>
   <v type="int" >       12        6       12       13       14 </v>
   <v type="int" >       12       13       13       14       94 </v>
   <v type="int" >       12       13       14       88       94 </v>
   <v type="int" >       12       12       13       14       88 </v>
   <v type="int" >       12       40       41       43       95 </v>
   <v type="int" >       12       41       43       90       95 </v>
   <v type="int" >       12       43       89       90       95 </v>
   <v type="int" >       12       36       40       41       96 </v>
   <v type="int" >       12       36       37       41       96 </v>
   <v type="int" >       12       37       41       91       96 </v>
   <v type="int" >       12       40       41       95       96 </v>
   <v type="int" >       12       41       90       95       96 </v>
   <v type="int" >       12       41       90       91       96 </v>
   <v type="int" >       12       30       36       37       97 </v>
   <v type="int" >       12       30       31       37       97 </v>
   <v type="int" >       12       31       37       92       97 </v>
   <v type="int" >       12       36       37       96       97 </v>
   <v type="int" >       12       37       91       96       97 </v>
   <v type="int" >       12       37       91       92       97 </v>
   <v type="int" >       12       22       30       31       98 </v>
   <v type="int" >       12       22       23       31       98 </v>
   <v type="int" >       12       23       31       93       98 </v>
   <v type="int" >       12       30       31       97       98 </v>
   <v type="int" >       12       31       92       97       98 </v>
   <v type="int" >       12       31       92       93       98 </v>
   <v type="int" >       12       12       22       23       88 </v>
   <v type="int" >       12       12       13       23       88 </v>
   <v type="int" >       12       13       23       88       94 </v>
   <v type="int" >       12       22       23       88       98 </v>
   <v type="int" >       12       23       88       93       98 </v>
   <v type="int" >       12       23       88       93       94 </v>
   <v type="int" >       12       35       36       40       99 </v>
   <v type="int" >       12       36       40       96       99 </v>
   <v type="int" >       12       40       95       96       99 </v>
   <v type="int" >       12       29       35       36      100 </v>
   <v type="int" >       12       29       30       36      100 </v>
   <v type="int" >       12       30       36       97      100 </v>
   <v type="int" >       12       35       36       99      100 </v>
   <v type="int" >       12       36       96       99      100 </v>
   <v type="int" >       12       36       96       97      100 </v>
   <v type="int" >       12       21       29       30      101 </v>
   <v type="int" >       12       21       22       30      101 </v>
   <v type="int" >       12       22       30       98      101 </v>
   <v type="int" >       12       29       30      100      101 </v>
   <v type="int" >       12       30       97      100      101 </v>
   <v type="int" >       12       30       97       98      101 </v>
   <v type="int" >       12       11       21       22       81 </v>
   <v type="int" >       12       11       12       22       81 </v>
   <v type="int" >       12       12       22       81       88 </v>
   <v type="int" >       12       21       22       81      101 </v>
   <v type="int" >       12       22       81       98      101 </v>
   <v type="int" >       12       22       81       88       98 </v>
   <v type="int" >       12       28       29       35      102 </v>
   <v type="int" >       12       29       35      100      102 </v>
   <v type="int" >       12       35       99      100      102 </v>
   <v type="int" >       12       20       28       29      103 </v>
   <v type="int" >       12       20       21       29      103 </v>
   <v type="int" >       12       21       29      101      103 </v>
   <v type="int" >       12       28       29      102      103 </v>
   <v type="int" >       12       29      100      102      103 </v>
   <v type="int" >       12       29      100      101      103 </v>
   <v type="int" >       12       10       20       21       73 </v>
   <v type="int" >       12       10       11       21       73 </v>
   <v type="int" >       12       11       21       73       81 </v>
   <v type="int" >       12       20       21       73      103 </v>
   <v type="int" >       12       21       73      101      103 </v>
   <v type="int" >       12       21       73       81      101 </v>
   <v type="int" >       12       19       20       28      104 </v>
   <v type="int" >       12       20       28      103      104 </v>
   <v type="int" >       12       28      102      103      104 </v>
   <v type="int" >       12        9       19       20       64 </v>
   <v type="int" >       12        9       10       20       64 </v>
   <v type="int" >       12       10       20       64       73 </v>
   <v type="int" >       12       19       20       64      104 </v>
   <v type="int" >       12       20       64      103      104 </v>
   <v type="int" >       12       20       64       73      103 </v>
   <v type="int" >       12        8        9       19       54 </v>
   <v type="int" >       12        9       19       54       64 </v>
   <v type="int" >       12       19       54       64      104 </v>
   <v type="int" >       12       44       45       55      105 </v>
   <v type="int" >       12       45       55       56      106 </v>
   <v type="int" >       12       45       46       56      106 </v>
   <v type="int" >       12       45       55      105      106 </v>
   <v type="int" >       12       46       56       57      107 </v>
   <v type="int" >       12       46       47       57      107 </v>
   <v type="int" >       12       46       56      106      107 </v>
   <v type="int" >       12       47       57       58      108 </v>
   <v type="int" >       12       47       48       58      108 </v>
   <v type="int" >       12       47       57      107      108 </v>
   <v type="int" >       12       48       58       59      109 </v>
   <v type="int" >       12       48       49       59      109 </v>
   <v type="int" >       12       48       58      108      109 </v>
   <v type="int" >       12       49       59       60      110 </v>
   <v type="int" >       12       49       50       60      110 </v>
   <v type="int" >       12       49       59      109      110 </v>
   <v type="int" >       12       50       60       61      111 </v>
   <v type="int" >       12       50       51       61      111 </v>
   <v type="int" >       12       50       60      110      111 </v>
   <v type="int" >       12       51       61       62      112 </v>
   <v type="int" >       12       51       52       62      112 </v>
   <v type="int" >       12       51       61      111      112 </v>
   <v type="int" >       12       52       62       63      113 </v>
   <v type="int" >       12       52       53       63      113 </v>
   <v type="int" >       12       52       62      112      113 </v>
   <v type="int" >       12       53       63       64      104 </v>
   <v type="int" >       12       53       54       64      104 </v>
   <v type="int" >       12       53       63      104      113 </v>
   <v type="int" >       12       55       56       65      114 </v>
   <v type="int" >       12       55       56      106      114 </v>
   <v type="int" >       12       55      105      106      114 </v>
   <v type="int" >       12       56       65       66      115 </v>
   <v type="int" >       12       56       57       66      115 </v>
   <v type="int" >       12       56       57      107      115 </v>
   <v type="int" >       12       56       65      114      115 </v>
   <v type="int" >       12       56      106      114      115 </v>
   <v type="int" >       12       56      106      107      115 </v>
   <v type="int" >       12       57       66       67      116 </v>
   <v type="int" >       12       57       58       67      116 </v>
   <v type="int" >       12       57       58      108      116 </v>
   <v type="int" >       12       57       66      115      116 </v>
   <v type="int" >       12       57      107      115      116 </v>
   <v type="int" >       12       57      107      108      116 </v>
   <v type="int" >       12       58       67       68      117 </v>
   <v type="int" >       12       58       59       68      117 </v>
   <v type="int" >       12       58       59      109      117 </v>
   <v type="int" >       12       58       67      116      117 </v>
   <v type="int" >       12       58      108      116      117 </v>
   <v type="int" >       12       58      108      109      117 </v>
   <v type="int" >       12       59       68       69      118 </v>
   <v type="int" >       12       59       60       69      118 </v>
   <v type="int" >       12       59       60      110      118 </v>
   <v type="int" >       12       59       68      117      118 </v>
   <v type="int" >       12       59      109      117      118 </v>
   <v type="int" >       12       59      109      110      118 </v>
   <v type="int" >       12       60       69       70      119 </v>
   <v type="int" >       12       60       61       70      119 </v>
   <v type="int" >       12       60       61      111      119 </v>
   <v type="int" >       12       60       69      118      119 </v>
   <v type="int" >       12       60      110      118      119 </v>
   <v type="int" >       12       60      110      111      119 </v>
   <v type="int" >       12       61       70       71      120 </v>
   <v type="int" >       12       61       62       71      120 </v>
   <v type="int" >       12       61       62      112      120 </v>
   <v type="int" >       12       61       70      119      120 </v>
   <v type="int" >       12       61      111      119      120 </v>
   <v type="int" >       12       61      111      112      120 </v>
   <v type="int" >       12       62       71       72      121 </v>
   <v type="int" >       12       62       63       72      121 </v>
   <v type="int" >       12       62       63      113      121 </v>
   <v type="int" >       12       62       71      120      121 </v>
   <v type="int" >       12       62      112      120      121 </v>
   <v type="int" >       12       62      112      113      121 </v>
   <v type="int" >       12       63       72       73      103 </v>
   <v type="int" >       12       63       64       73      103 </v>
   <v type="int" >       12       63       64      103      104 </v>
   <v type="int" >       12       63       72      103      121 </v>
   <v type="int" >       12       63      103      113      121 </v>
   <v type="int" >       12       63      103      104      113 </v>
   <v type="int" >       12       65       66       74      122 </v>
   <v type="int" >       12       65       66      115      122 </v>
   <v type="int" >       12       65      114      115      122 </v>
   <v type="int" >       12       66       74       75      123 </v>
   <v type="int" >       12       66       67       75      123 </v>
   <v type="int" >       12       66       67      116      123 </v>
   <v type="int" >       12       66       74      122      123 </v>
   <v type="int" >       12       66      115      122      123 </v>
   <v type="int" >       12       66      115      116      123 </v>
   <v type="int" >       12       67       75       76      124 </v>
   <v type="int" >       12       67       68       76      124 </v>
   <v type="int" >       12       67       68      117      124 </v>
   <v type="int" >       12       67       75      123      124 </v>
   <v type="int" >       12       67      116      123      124 </v>
   <v type="int" >       12       67      116      117      124 </v>
   <v type="int" >       12       68       76       77      125 </v>
   <v type="int" >       12       68       69       77      125 </v>
   <v type="int" >       12       68       69      118      125 </v>
   <v type="int" >       12       68       76      124      125 </v>
   <v type="int" >       12       68      117      124      125 </v>
   <v type="int" >       12       68      117      118      125 </v>
   <v type="int" >       12       69       77       78      126 </v>
   <v type="int" >       12       69       70       78      126 </v>
   <v type="int" >       12       69       70      119      126 </v>
   <v type="int" >       12       69       77      125      126 </v>
   <v type="int" >       12       69      118      125      126 </v>
   <v type="int" >       12       69      118      119      126 </v>
   <v type="int" >       12       70       78       79      127 </v>
   <v type="int" >       12       70       71       79      127 </v>
   <v type="int" >       12       70       71      120      127 </v>
   <v type="int" >       12       70       78      126      127 </v>
   <v type="int" >       12       70      119      126      127 </v>
   <v type="int" >       12       70      119      120      127 </v>
   <v type="int" >       12       71       79       80      128 </v>
   <v type="int" >       12       71       72       80      128 </v>
   <v type="int" >       12       71       72      121      128 </v>
   <v type="int" >       12       71       79      127      128 </v>
   <v type="int" >       12       71      120      127      128 </v>
   <v type="int" >       12       71      120      121      128 </v>
   <v type="int" >       12       72       80       81      101 </v>
   <v type="int" >       12       72       73       81      101 </v>
   <v type="int" >       12       72       73      101      103 </v>
   <v type="int" >       12       72       80      101      128 </v>
   <v type="int" >       12       72      101      121      128 </v>
   <v type="int" >       12       72      101      103      121 </v>
   <v type="int" >       12       74       75       82      129 </v>
   <v type="int" >       12       74       75      123      129 </v>
   <v type="int" >       12       74      122      123      129 </v>
   <v type="int" >       12       75       82       83      130 </v>
   <v type="int" >       12       75       76       83      130 </v>
   <v type="int" >       12       75       76      124      130 </v>
   <v type="int" >       12       75       82      129      130 </v>
   <v type="int" >       12       75      123      129      130 </v>
   <v type="int" >       12       75      123      124      130 </v>
   <v type="int" >       12       76       83       84      131 </v>
   <v type="int" >       12       76       77       84      131 </v>
   <v type="int" >       12       76       77      125      131 </v>
   <v type="int" >       12       76       83      130      131 </v>
   <v type="int" >       12       76      124      130      131 </v>
   <v type="int" >       12       76      124      125      131 </v>
   <v type="int" >       12       77       84       85      132 </v>
   <v type="int" >       12       77       78       85      132 </v>
   <v type="int" >       12       77       78      126      132 </v>
   <v type="int" >       12       77       84      131      132 </v>
   <v type="int" >       12       77      125      131      132 </v>
   <v type="int" >       12       77      125      126      132 </v>
   <v type="int" >       12       78       85       86      133 </v>
   <v type="int" >       12       78       79       86      133 </v>
   <v type="int" >       12       78       79      127      133 </v>
   <v type="int" >       12       78       85      132      133 </v>
   <v type="int" >       12       78      126      132      133 </v>
   <v type="int" >       12       78      126      127      133 </v>
   <v type="int" >       12       79       86       87      134 </v>
   <v type="int" >       12       79       80       87      134 </v>
   <v type="int" >       12       79       80      128      134 </v>
   <v type="int" >       12       79       86      133      134 </v>
   <v type="int" >       12       79      127      133      134 </v>
   <v type="int" >       12       79      127      128      134 </v>
   <v type="int" >       12       80       87       88       98 </v>
   <v type="int" >       12       80       81       88       98 </v>
   <v type="int" >       12       80       81       98      101 </v>
   <v type="int" >       12       80       87       98      134 </v>
   <v type="int" >       12       80       98      128      134 </v>
   <v type="int" >       12       80       98      101      128 </v>
   <v type="int" >       12       82       83       89      135 </v>
   <v type="int" >       12       82       83      130      135 </v>
   <v type="int" >       12       82      129      130      135 </v>
   <v type="int" >       12       83       89       90      136 </v>
   <v type="int" >       12       83       84       90      136 </v>
   <v type="int" >       12       83       84      131      136 </v>
   <v type="int" >       12       83       89      135      136 </v>
   <v type="int" >       12       83      130      135      136 </v>
   <v type="int" >       12       83      130      131      136 </v>
   <v type="int" >       12       84       90       91      137 </v>
   <v type="int" >       12       84       85       91      137 </v>
   <v type="int" >       12       84       85      132      137 </v>
   <v type="int" >       12       84       90      136      137 </v>
   <v type="int" >       12       84      131      136      137 </v>
   <v type="int" >       12       84      131      132      137 </v>
   <v type="int" >       12       85       91       92      138 </v>
   <v type="int" >       12       85       86       92      138 </v>
   <v type="int" >       12       85       86      133      138 </v>
   <v type="int" >       12       85       91      137      138 </v>
   <v type="int" >       12       85      132      137      138 </v>
   <v type="int" >       12       85      132      133      138 </v>
   <v type="int" >       12       86       92       93      139 </v>
   <v type="int" >       12       86       87       93      139 </v>
   <v type="int" >       12       86       87      134      139 </v>
   <v type="int" >       12       86       92      138      139 </v>
   <v type="int" >       12       86      133      138      139 </v>
   <v type="int" >       12       86      133      134      139 </v>
   <v type="int" >       12       87       93       93       94 </v>
   <v type="int" >       12       87       88       93       94 </v>
   <v type="int" >       12       87       88       93       98 </v>
   <v type="int" >       12       87       93       93      139 </v>
   <v type="int" >       12       87       93      134      139 </v>
   <v type="int" >       12       87       93       98      134 </v>
   <v type="int" >       12       89       90       95      140 </v>
   <v type="int" >       12       89       90      136      140 </v>
   <v type="int" >       12       89      135      136      140 </v>
   <v type="int" >       12       90       95       96      141 </v>
   <v type="int" >       12       90       91       96      141 </v>
   <v type="int" >       12       90       91      137      141 </v>
   <v type="int" >       12       90       95      140      141 </v>
   <v type="int" >       12       90      136      140      141 </v>
   <v type="int" >       12       90      136      137      141 </v>
   <v type="int" >       12       91       96       97      142 </v>
   <v type="int" >       12       91       92       97      142 </v>
   <v type="int" >       12       91       92      138      142 </v>
   <v type="int" >       12       91       96      141      142 </v>
   <v type="int" >       12       91      137      141      142 </v>
   <v type="int" >       12       91      137      138      142 </v>
   <v type="int" >       12       92       97       98      134 </v>
   <v type="int" >       12       92       93       98      134 </v>
   <v type="int" >       12       92       93      134      139 </v>
   <v type="int" >       12       92       97      134      142 </v>
   <v type="int" >       12       92      134      138      142 </v>
   <v type="int" >       12       92      134      138      139 </v>
   <v type="int" >       12       95       96       99      143 </v>
   <v type="int" >       12       95       96      141      143 </v>
   <v type="int" >       12       95      140      141      143 </v>
   <v type="int" >       12       96       99      100      144 </v>
   <v type="int" >       12       96       97      100      144 </v>
   <v type="int" >       12       96       97      142      144 </v>
   <v type="int" >       12       96       99      143      144 </v>
   <v type="int" >       12       96      141      143      144 </v>
   <v type="int" >       12       96      141      142      144 </v>
   <v type="int" >       12       97      100      101      128 </v>
   <v type="int" >       12       97       98      101      128 </v>
   <v type="int" >       12       97       98      128      134 </v>
   <v type="int" >       12       97      100      128      144 </v>
   <v type="int" >       12       97      128      142      144 </v>
   <v type="int" >       12       97      128      134      142 </v>
   <v type="int" >       12       99      100      102      145 </v>
   <v type="int" >       12       99      100      144      145 </v>
   <v type="int" >       12       99      143      144      145 </v>
   <v type="int" >       12      100      102      103      121 </v>
   <v type="int" >       12      100      101      103      121 </v>
   <v type="int" >       12      100      101      121      128 </v>
   <v type="int" >       12      100      102      121      145 </v>
   <v type="int" >       12      100      121      144      145 </v>
   <v type="int" >       12      100      121      128      144 </v>
   <v type="int" >       12      102      103      104      113 </v>
   <v type="int" >       12      102      103      113      121 </v>
   <v type="int" >       12      102      113      121      145 </v>
   <v type="int" >       12      105      106      114      146 </v>
   <v type="int" >       12      106      114      115      147 </v>
   <v type="int" >       12      106      107      115      147 </v>
   <v type="int" >       12      106      114      146      147 </v>
   <v type="int" >       12      107      115      116      148 </v>
   <v type="int" >       12      107      108      116      148 </v>
   <v type="int" >       12      107      115      147      148 </v>
   <v type="int" >       12      108      116      117      149 </v>
   <v type="int" >       12      108      109      117      149 </v>
   <v type="int" >       12      108      116      148      149 </v>
   <v type="int" >       12      109      117      118      150 </v>
   <v type="int" >       12      109      110      118      150 </v>
   <v type="int" >       12      109      117      149      150 </v>
   <v type="int" >       12      110      118      119      151 </v>
   <v type="int" >       12      110      111      119      151 </v>
   <v type="int" >       12      110      118      150      151 </v>
   <v type="int" >       12      111      119      120      152 </v>
   <v type="int" >       12      111      112      120      152 </v>
   <v type="int" >       12      111      119      151      152 </v>
   <v type="int" >       12      112      120      121      145 </v>
   <v type="int" >       12      112      113      121      145 </v>
   <v type="int" >       12      112      120      145      152 </v>
   <v type="int" >       12      114      115      122      153 </v>
   <v type="int" >       12      114      115      147      153 </v>
   <v type="int" >       12      114      146      147      153 </v>
   <v type="int" >       12      115      122      123      154 </v>
   <v type="int" >       12      115      116      123      154 </v>
   <v type="int" >       12      115      116      148      154 </v>
   <v type="int" >       12      115      122      153      154 </v>
   <v type="int" >       12      115      147      153      154 </v>
   <v type="int" >       12      115      147      148      154 </v>
   <v type="int" >       12      116      123      124      155 </v>
   <v type="int" >       12      116      117      124      155 </v>
   <v type="int" >       12      116      117      149      155 </v>
   <v type="int" >       12      116      123      154      155 </v>
   <v type="int" >       12      116      148      154      155 </v>
   <v type="int" >       12      116      148      149      155 </v>
   <v type="int" >       12      117      124      125      156 </v>
   <v type="int" >       12      117      118      125      156 </v>
   <v type="int" >       12      117      118      150      156 </v>
   <v type="int" >       12      117      124      155      156 </v>
   <v type="int" >       12      117      149      155      156 </v>
   <v type="int" >       12      117      149      150      156 </v>
   <v type="int" >       12      118      125      126      157 </v>
   <v type="int" >       12      118      119      126      157 </v>
   <v type="int" >       12      118      119      151      157 </v>
   <v type="int" >       12      118      125      156      157 </v>
   <v type="int" >       12      118      150      156      157 </v>
   <v type="int" >       12      118      150      151      157 </v>
   <v type="int" >       12      119      126      127      158 </v>
   <v type="int" >       12      119      120      127      158 </v>
   <v type="int" >       12      119      120      152      158 </v>
   <v type="int" >       12      119      126      157      158 </v>
   <v type="int" >       12      119      151      157      158 </v>
   <v type="int" >       12      119      151      152      158 </v>
   <v type="int" >       12      120      127      128      144 </v>
   <v type="int" >       12      120      121      128      144 </v>
   <v type="int" >       12      120      121      144      145 </v>
   <v type="int" >       12      120      127      144      158 </v>
   <v type="int" >       12      120      144      152      158 </v>
   <v type="int" >       12      120      144      145      152 </v>
   <v type="int" >       12      122      123      129      159 </v>
   <v type="int" >       12      122      123      154      159 </v>
   <v type="int" >       12      122      153      154      159 </v>
   <v type="int" >       12      123      129      130      160 </v>
   <v type="int" >       12      123      124      130      160 </v>
   <v type="int" >       12      123      124      155      160 </v>
   <v type="int" >       12      123      129      159      160 </v>
   <v type="int" >       12      123      154      159      160 </v>
   <v type="int" >       12      123      154      155      160 </v>
   <v type="int" >       12      124      130      131      161 </v>
   <v type="int" >       12      124      125      131      161 </v>
   <v type="int" >       12      124      125      156      161 </v>
   <v type="int" >       12      124      130      160      161 </v>
   <v type="int" >       12      124      155      160      161 </v>
   <v type="int" >       12      124      155      156      161 </v>
   <v type="int" >       12      125      131      132      162 </v>
   <v type="int" >       12      125      126      132      162 </v>
   <v type="int" >       12      125      126      157      162 </v>
   <v type="int" >       12      125      131      161      162 </v>
   <v type="int" >       12      125      156      161      162 </v>
   <v type="int" >       12      125      156      157      162 </v>
   <v type="int" >       12      126      132      133      163 </v>
   <v type="int" >       12      126      127      133      163 </v>
   <v type="int" >       12      126      127      158      163 </v>
   <v type="int" >       12      126      132      162      163 </v>
   <v type="int" >       12      126      157      162      163 </v>
   <v type="int" >       12      126      157      158      163 </v>
   <v type="int" >       12      127      133      134      142 </v>
   <v type="int" >       12      127      128      134      142 </v>
   <v type="int" >       12      127      128      142      144 </v>
   <v type="int" >       12      127      133      142      163 </v>
   <v type="int" >       12      127      142      158      163 </v>
   <v type="int" >       12      127      142      144      158 </v>
   <v type="int" >       12      129      130      135      164 </v>
   <v type="int" >       12      129      130      160      164 </v>
   <v type="int" >       12      129      159      160      164 </v>
   <v type="int" >       12      130      135      136      165 </v>
   <v type="int" >       12      130      131      136      165 </v>
   <v type="int" >       12      130      131      161      165 </v>
   <v type="int" >       12      130      135      164      165 </v>
   <v type="int" >       12      130      160      164      165 </v>
   <v type="int" >       12      130      160      161      165 </v>
   <v type="int" >       12      131      136      137      166 </v>
   <v type="int" >       12      131      132      137      166 </v>
   <v type="int" >       12      131      132      162      166 </v>
   <v type="int" >       12      131      136      165      166 </v>
   <v type="int" >       12      131      161      165      166 </v>
   <v type="int" >       12      131      161      162      166 </v>
   <v type="int" >       12      132      137      138      167 </v>
   <v type="int" >       12      132      133      138      167 </v>
   <v type="int" >       12      132      133      163      167 </v>
   <v type="int" >       12      132      137      166      167 </v>
   <v type="int" >       12      132      162      166      167 </v>
   <v type="int" >       12      132      162      163      167 </v>
   <v type="int" >       12      133      138      138      139 </v>
   <v type="int" >       12      133      134      138      139 </v>
   <v type="int" >       12      133      134      138      142 </v>
   <v type="int" >       12      133      138      138      167 </v>
   <v type="int" >       12      133      138      163      167 </v>
   <v type="int" >       12      133      138      142      163 </v>
   <v type="int" >       12      135      136      140      168 </v>
   <v type="int" >       12      135      136      165      168 </v>
   <v type="int" >       12      135      164      165      168 </v>
   <v type="int" >       12      136      140      141      169 </v>
   <v type="int" >       12      136      137      141      169 </v>
   <v type="int" >       12      136      137      166      169 </v>
   <v type="int" >       12      136      140      168      169 </v>
   <v type="int" >       12      136      165      168      169 </v>
   <v type="int" >       12      136      165      166      169 </v>
   <v type="int" >       12      137      141      142      163 </v>
   <v type="int" >       12      137      138      142      163 </v>
   <v type="int" >       12      137      138      163      167 </v>
   <v type="int" >       12      137      141      163      169 </v>
   <v type="int" >       12      137      163      166      169 </v>
   <v type="int" >       12      137      163      166      167 </v>
   <v type="int" >       12      140      141      143      170 </v>
   <v type="int" >       12      140      141      169      170 </v>
   <v type="int" >       12      140      168      169      170 </v>
   <v type="int" >       12      141      143      144      158 </v>
   <v type="int" >       12      141      142      144      158 </v>
   <v type="int" >       12      141      142      158      163 </v>
   <v type="int" >       12      141      143      158      170 </v>
   <v type="int" >       12      141      158      169      170 </v>
   <v type="int" >       12      141      158      163      169 </v>
   <v type="int" >       12      143      144      145      152 </v>
   <v type="int" >       12      143      144      152      158 </v>
   <v type="int" >       12      143      152      158      170 </v>
   <v type="int" >       12      146      147      153      171 </v>
   <v type="int" >       12      147      153      154      172 </v>
   <v type="int" >       12      147      148      154      172 </v>
   <v type="int" >       12      147      153      171      172 </v>
   <v type="int" >       12      148      154      155      173 </v>
   <v type="int" >       12      148      149      155      173 </v>
   <v type="int" >       12      148      154      172      173 </v>
   <v type="int" >       12      149      155      156      174 </v>
   <v type="int" >       12      149      150      156      174 </v>
   <v type="int" >       12      149      155      173      174 </v>
   <v type="int" >       12      150      156      157      175 </v>
   <v type="int" >       12      150      151      157      175 </v>
   <v type="int" >       12      150      156      174      175 </v>
   <v type="int" >       12      151      157      158      170 </v>
   <v type="int" >       12      151      152      158      170 </v>
   <v type="int" >       12      151      157      170      175 </v>
   <v type="int" >       12      153      154      159      176 </v>
   <v type="int" >       12      153      154      172      176 </v>
   <v type="int" >       12      153      171      172      176 </v>
   <v type="int" >       12      154      159      160      177 </v>
   <v type="int" >       12      154      155      160      177 </v>
   <v type="int" >       12      154      155      173      177 </v>
   <v type="int" >       12      154      159      176      177 </v>
   <v type="int" >       12      154      172      176      177 </v>
   <v type="int" >       12      154      172      173      177 </v>
   <v type="int" >       12      155      160      161      178 </v>
   <v type="int" >       12      155      156      161      178 </v>
   <v type="int" >       12      155      156      174      178 </v>
   <v type="int" >       12      155      160      177      178 </v>
   <v type="int" >       12      155      173      177      178 </v>
   <v type="int" >       12      155      173      174      178 </v>
   <v type="int" >       12      156      161      162      179 </v>
   <v type="int" >       12      156      157      162      179 </v>
   <v type="int" >       12      156      157      175      179 </v>
   <v type="int" >       12      156      161      178      179 </v>
   <v type="int" >       12      156      174      178      179 </v>
   <v type="int" >       12      156      174      175      179 </v>
   <v type="int" >       12      157      162      163      169 </v>
   <v type="int" >       12      157      158      163      169 </v>
   <v type="int" >       12      157      158      169      170 </v>
   <v type="int" >       12      157      162      169      179 </v>
   <v type="int" >       12      157      169      175      179 </v>
   <v type="int" >       12      157      169      170      175 </v>
   <v type="int" >       12      159      160      164      180 </v>
   <v type="int" >       12      159      160      177      180 </v>
   <v type="int" >       12      159      176      177      180 </v>
   <v type="int" >       12      160      164      165      181 </v>
   <v type="int" >       12      160      161      165      181 </v>
   <v type="int" >       12      160      161      178      181 </v>
   <v type="int" >       12      160      164      180      181 </v>
   <v type="int" >       12      160      177      180      181 </v>
   <v type="int" >       12      160      177      178      181 </v>
   <v type="int" >       12      161      165      166      182 </v>
   <v type="int" >       12      161      162      166      182 </v>
   <v type="int" >       12      161      162      179      182 </v>
   <v type="int" >       12      161      165      181      182 </v>
   <v type="int" >       12      161      178      181      182 </v>
   <v type="int" >       12      161      178      179      182 </v>
   <v type="int" >       12      162      166      166      167 </v>
   <v type="int" >       12      162      163      166      167 </v>
   <v type="int" >       12      162      163      166      169 </v>
   <v type="int" >       12      162      166      166      182 </v>
   <v type="int" >       12      162      166      179      182 </v>
   <v type="int" >       12      162      166      169      179 </v>
   <v type="int" >       12      164      165      168      183 </v>
   <v type="int" >       12      164      165      181      183 </v>
   <v type="int" >       12      164      180      181      183 </v>
   <v type="int" >       12      165      168      169      179 </v>
   <v type="int" >       12      165      166      169      179 </v>
   <v type="int" >       12      165      166      179      182 </v>
   <v type="int" >       12      165      168      179      183 </v>
   <v type="int" >       12      165      179      181      183 </v>
   <v type="int" >       12      165      179      181      182 </v>
   <v type="int" >       12      168      169      170      175 </v>
   <v type="int" >       12      168      169      175      179 </v>
   <v type="int" >       12      168      175      179      183 </v>
   <v type="int" >       12      171      172      176      184 </v>
   <v type="int" >       12      172      176      177      185 </v>
   <v type="int" >       12      172      173      177      185 </v>
   <v type="int" >       12      172      176      184      185 </v>
   <v type="int" >       12      173      177      178      186 </v>
   <v type="int" >       12      173      174      178      186 </v>
   <v type="int" >       12      173      177      185      186 </v>
   <v type="int" >       12      174      178      179      183 </v>
   <v type="int" >       12      174      175      179      183 </v>
   <v type="int" >       12      174      178      183      186 </v>
   <v type="int" >       12      176      177      180      187 </v>
   <v type="int" >       12      176      177      185      187 </v>
   <v type="int" >       12      176      184      185      187 </v>
   <v type="int" >       12      177      180      181      188 </v>
   <v type="int" >       12      177      178      181      188 </v>
   <v type="int" >       12      177      178      186      188 </v>
   <v type="int" >       12      177      180      187      188 </v>
   <v type="int" >       12      177      185      187      188 </v>
   <v type="int" >       12      177      185      186      188 </v>
   <v type="int" >       12      178      181      181      182 </v>
   <v type="int" >       12      178      179      181      182 </v>
   <v type="int" >       12      178      179      181      183 </v>
   <v type="int" >       12      178      181      181      188 </v>
   <v type="int" >       12      178      181      186      188 </v>
   <v type="int" >       12      178      181      183      186 </v>
   <v type="int" >       12      180      181      183      186 </v>
   <v type="int" >       12      180      181      186      188 </v>
   <v type="int" >       12      180      186      187      188 </v>
   <v type="int" >       12      184      185      187      189 </v>
   <v type="int" >       12      185      187      187      188 </v>
   <v type="int" >       12      185      186      187      188 </v>
   <v type="int" >       12      185      187      187      189 </v>
  </varray>
  <i name="volumeweight">      0.00009645 </i>
 </kpoints>
 <parameters>
  <separator name="general" >
   <i type="string" name="SYSTEM">unknown system</i>
   <i type="logical" name="LCOMPAT"> F  </i>
  </separator>
  <separator name="electronic" >
   <i type="string" name="PREC">accura</i>
   <i name="ENMAX">    400.00000000</i>
   <i name="ENAUG">    644.87300000</i>
   <i name="EDIFF">      0.00000100</i>
   <i type="int" name="IALGO">    38</i>
   <i type="int" name="IWAVPR">    10</i>
   <i type="int" name="NBANDS">    24</i>
   <i name="NELECT">     32.00000000</i>
   <i type="int" name="TURBO">     0</i>
[...]
       <r>   -5.8423    1.0000 </r>
       <r>   -5.8423    1.0000 </r>
       <r>   -3.2825    1.0000 </r>
       <r>   -3.2549    1.0000 </r>
       <r>   -3.2549    1.0000 </r>
       <r>   -2.1018    1.0000 </r>
       <r>    5.8885    1.0000 </r>
       <r>    5.8885    1.0000 </r>
       <r>    6.2695    1.0000 </r>
       <r>    6.2695    1.0000 </r>
       <r>    6.6398    1.0000 </r>
       <r>    6.7243    1.0000 </r>
       <r>    6.7692    1.0000 </r>
       <r>    7.0603    1.0000 </r>
       <r>   16.3184    0.0000 </r>
       <r>   16.5194    0.0000 </r>
       <r>   16.5194    0.0000 </r>
       <r>   18.0808    0.0000 </r>
       <r>   18.3336    0.0000 </r>
       <r>   18.4693    0.0000 </r>
       <r>   18.4694    0.0000 </r>
       <r>   18.5778    0.0000 </r>
      </set>
      <set comment="kpoint 187">
       <r>   -7.1323    1.0000 </r>
       <r>   -5.9628    1.0000 </r>
       <r>   -5.9110    1.0000 </r>
       <r>   -5.9110    1.0000 </r>
       <r>   -3.4272    1.0000 </r>
       <r>   -3.4272    1.0000 </r>
       <r>   -3.4089    1.0000 </r>
       <r>   -3.3738    1.0000 </r>
       <r>    6.3103    1.0000 </r>
       <r>    6.3103    1.0000 </r>
       <r>    6.3946    1.0000 </r>
       <r>    6.5048    1.0000 </r>
       <r>    6.6334    1.0000 </r>
       <r>    6.6334    1.0000 </r>
       <r>    7.1934    1.0000 </r>
       <r>    7.3928    1.0000 </r>
       <r>   16.3804    0.0000 </r>
       <r>   16.3804    0.0000 </r>
       <r>   16.5510    0.0000 </r>
       <r>   18.3475    0.0000 </r>
       <r>   18.3878    0.0000 </r>
       <r>   18.4447    0.0000 </r>
       <r>   18.5179    0.0000 </r>
       <r>   18.5383    0.0000 </r>
      </set>
      <set comment="kpoint 188">
       <r>   -6.9404    1.0000 </r>
       <r>   -6.4438    1.0000 </r>
       <r>   -6.4438    1.0000 </r>
       <r>   -5.6154    1.0000 </r>
       <r>   -3.5903    1.0000 </r>
       <r>   -3.4692    1.0000 </r>
       <r>   -2.7784    1.0000 </r>
       <r>   -2.7784    1.0000 </r>
       <r>    5.9042    1.0000 </r>
       <r>    6.4241    1.0000 </r>
       <r>    6.4241    1.0000 </r>
       <r>    6.4929    1.0000 </r>
       <r>    6.5531    1.0000 </r>
       <r>    6.5531    1.0000 </r>
       <r>    6.8384    1.0000 </r>
       <r>    7.1792    1.0000 </r>
       <r>   16.4295    0.0000 </r>
       <r>   16.4295    0.0000 </r>
       <r>   16.4480    0.0000 </r>
       <r>   18.2531    0.0000 </r>
       <r>   18.2815    0.0000 </r>
       <r>   18.5110    0.0000 </r>
       <r>   18.5453    0.0000 </r>
       <r>   18.5818    0.0000 </r>
      </set>
      <set comment="kpoint 189">
       <r>   -7.0604    1.0000 </r>
       <r>   -5.7337    1.0000 </r>
       <r>   -5.7337    1.0000 </r>
       <r>   -5.7337    1.0000 </r>
       <r>   -3.7127    1.0000 </r>
       <r>   -3.7127    1.0000 </r>
       <r>   -3.7127    1.0000 </r>
       <r>   -3.5974    1.0000 </r>
       <r>    6.5036    1.0000 </r>
       <r>    6.5036    1.0000 </r>
       <r>    6.5036    1.0000 </r>
       <r>    6.6638    1.0000 </r>
       <r>    6.6638    1.0000 </r>
       <r>    6.6638    1.0000 </r>
       <r>    7.4256    1.0000 </r>
       <r>    7.4256    1.0000 </r>
       <r>   16.3331    0.0000 </r>
       <r>   16.3331    0.0000 </r>
       <r>   16.3331    0.0000 </r>
       <r>   18.3542    0.0000 </r>
       <r>   18.3545    0.0000 </r>
       <r>   18.3892    0.0000 </r>
       <r>   18.3892    0.0000 </r>
       <r>   18.3896    0.0000 </r>
      </set>
     </set>
    </set>
   </array>
  </eigenvalues>
  <separator name="orbital magnetization" >
   <v name="MAGDIPOLOUT">      0.00000000      0.00000000      0.00000000</v>
  </separator>
  <dos>
   <i name="efermi">      9.66460678 </i>
   <total>
    <array>
     <dimension dim="1">gridpoints</dimension>
     <dimension dim="2">spin</dimension>
     <field>energy</field>
     <field>total</field>
     <field>integrated</field>
     <set>
      <set comment="spin 1">
       <r>   -13.4295     0.0000     0.0000 </r>
       <r>   -13.3074     0.0000     0.0000 </r>
       <r>   -13.1853     0.0000     0.0000 </r>
       <r>   -13.0632     0.0000     0.0000 </r>
       <r>   -12.9410     0.0000     0.0000 </r>
       <r>   -12.8189     0.0000     0.0000 </r>
       <r>   -12.6968     0.0000     0.0000 </r>
       <r>   -12.5747     0.0000     0.0000 </r>
       <r>   -12.4526     0.0000     0.0000 </r>
       <r>   -12.3305     0.0000     0.0000 </r>
       <r>   -12.2084     0.0000     0.0000 </r>
       <r>   -12.0863     0.0000     0.0000 </r>
       <r>   -11.9642     0.0000     0.0000 </r>
       <r>   -11.8420     0.0000     0.0000 </r>
       <r>   -11.7199     0.0389     0.0006 </r>
       <r>   -11.5978     0.1593     0.0155 </r>
       <r>   -11.4757     0.2440     0.0403 </r>
       <r>   -11.3536     0.2785     0.0719 </r>
       <r>   -11.2315     0.3280     0.1088 </r>
       <r>   -11.1094     0.3660     0.1517 </r>
       <r>   -10.9873     0.3963     0.1982 </r>
       <r>   -10.8652     0.4300     0.2486 </r>
       <r>   -10.7431     0.4680     0.3034 </r>
       <r>   -10.6209     0.4906     0.3619 </r>
       <r>   -10.4988     0.5155     0.4233 </r>
       <r>   -10.3767     0.5422     0.4879 </r>
       <r>   -10.2546     0.5710     0.5558 </r>
       <r>   -10.1325     0.5971     0.6273 </r>
       <r>   -10.0104     0.6178     0.7014 </r>
       <r>    -9.8883     0.6430     0.7784 </r>
       <r>    -9.7662     0.6736     0.8587 </r>
       <r>    -9.6441     0.7106     0.9431 </r>
       <r>    -9.5220     0.7532     1.0325 </r>
       <r>    -9.3998     0.7368     1.1229 </r>
       <r>    -9.2777     0.7456     1.2136 </r>
       <r>    -9.1556     0.7588     1.3055 </r>
       <r>    -9.0335     0.7778     1.3989 </r>
       <r>    -8.9114     0.8064     1.4957 </r>
       <r>    -8.7893     0.8276     1.5956 </r>
       <r>    -8.6672     0.8427     1.6975 </r>
       <r>    -8.5451     0.8689     1.8019 </r>
       <r>    -8.4230     0.8987     1.9098 </r>
       <r>    -8.3009     0.9297     2.0215 </r>
       <r>    -8.1787     0.9478     2.1366 </r>
       <r>    -8.0566     0.9557     2.2525 </r>
       <r>    -7.9345     0.9946     2.3708 </r>
       <r>    -7.8124     1.0576     2.4967 </r>
       <r>    -7.6903     1.1722     2.6343 </r>
       <r>    -7.5682     1.1410     2.7757 </r>
       <r>    -7.4461     1.0334     2.9058 </r>
       <r>    -7.3240     1.0712     3.0352 </r>
       <r>    -7.2019     1.0620     3.1655 </r>
       <r>    -7.0798     1.0012     3.2923 </r>
       <r>    -6.9576     1.2295     3.4312 </r>
       <r>    -6.8355     1.2043     3.5764 </r>
       <r>    -6.7134     1.2767     3.7279 </r>
       <r>    -6.5913     1.3582     3.8913 </r>
       <r>    -6.4692     1.2386     4.0509 </r>
       <r>    -6.3471     1.2285     4.2001 </r>
       <r>    -6.2250     1.4260     4.3606 </r>
       <r>    -6.1029     1.3404     4.5286 </r>
       <r>    -5.9808     1.3257     4.6901 </r>
       <r>    -5.8587     1.3916     4.8550 </r>
       <r>    -5.7365     1.4567     5.0300 </r>
       <r>    -5.6144     1.5373     5.2130 </r>
       <r>    -5.4923     1.4981     5.3937 </r>
       <r>    -5.3702     1.4165     5.5717 </r>
       <r>    -5.2481     1.3646     5.7408 </r>
       <r>    -5.1260     1.3092     5.9051 </r>
       <r>    -5.0039     1.2362     6.0599 </r>
       <r>    -4.8818     1.2122     6.2096 </r>
       <r>    -4.7597     1.1961     6.3567 </r>
       <r>    -4.6375     1.1721     6.5014 </r>
       <r>    -4.5154     1.1633     6.6426 </r>
       <r>    -4.3933     1.1570     6.7909 </r>
       <r>    -4.2712     1.0755     6.9273 </r>
       <r>    -4.1491     0.9991     7.0536 </r>
       <r>    -4.0270     0.9652     7.1732 </r>
       <r>    -3.9049     0.9409     7.2899 </r>
       <r>    -3.7828     0.9391     7.4040 </r>
       <r>    -3.6607     0.9560     7.5201 </r>
       <r>    -3.5386     0.9777     7.6370 </r>
       <r>    -3.4164     1.0385     7.7587 </r>
       <r>    -3.2943     1.0065     7.8825 </r>
       <r>    -3.1722     0.8913     7.9988 </r>
       <r>    -3.0501     0.8532     8.1053 </r>
       <r>    -2.9280     0.8813     8.2091 </r>
       <r>    -2.8059     0.9528     8.3226 </r>
       <r>    -2.6838     0.8609     8.4275 </r>
       <r>    -2.5617     0.9759     8.5385 </r>
       <r>    -2.4396     1.2071     8.6696 </r>
       <r>    -2.3175     1.4102     8.8289 </r>
       <r>    -2.1953     1.8410     9.0262 </r>
       <r>    -2.0732     2.1570     9.2694 </r>
       <r>    -1.9511     2.7846     9.5720 </r>
       <r>    -1.8290     2.2021     9.8674 </r>
       <r>    -1.7069     1.9907    10.1235 </r>
       <r>    -1.5848     1.9218    10.3622 </r>
       <r>    -1.4627     1.8926    10.5946 </r>
       <r>    -1.3406     1.9233    10.8260 </r>
       <r>    -1.2185     1.7902    11.0514 </r>
       <r>    -1.0964     1.7430    11.2702 </r>
       <r>    -0.9742     1.5464    11.4700 </r>
       <r>    -0.8521     1.4510    11.6523 </r>
       <r>    -0.7300     1.3821    11.8252 </r>
       <r>    -0.6079     1.3547    11.9916 </r>
       <r>    -0.4858     1.3249    12.1556 </r>
       <r>    -0.3637     1.2371    12.3118 </r>
       <r>    -0.2416     1.2455    12.4625 </r>
       <r>    -0.1195     1.1495    12.6092 </r>
       <r>     0.0026     1.1198    12.7466 </r>
       <r>     0.1247     1.1243    12.8833 </r>
       <r>     0.2469     1.0530    13.0179 </r>
       <r>     0.3690     0.9868    13.1410 </r>
       <r>     0.4911     1.2190    13.2699 </r>
       <r>     0.6132     1.7441    13.4499 </r>
       <r>     0.7353     2.0304    13.6873 </r>
       <r>     0.8574     2.1116    13.9401 </r>
       <r>     0.9795     2.1648    14.2067 </r>
       <r>     1.1016     2.1648    14.4714 </r>
       <r>     1.2237     2.2519    14.7422 </r>
       <r>     1.3459     2.2252    15.0143 </r>
       <r>     1.4680     1.9826    15.2839 </r>
       <r>     1.5901     1.5119    15.4968 </r>
       <r>     1.7122     1.4450    15.6713 </r>
       <r>     1.8343     1.6154    15.8533 </r>
       <r>     1.9564     2.0380    16.0755 </r>
       <r>     2.0785     2.5312    16.3612 </r>
       <r>     2.2006     2.5740    16.6776 </r>
       <r>     2.3227     2.3207    16.9738 </r>
       <r>     2.4448     2.2527    17.2527 </r>
       <r>     2.5670     2.2181    17.5243 </r>
       <r>     2.6891     2.4838    17.8087 </r>
       <r>     2.8112     2.6010    18.1305 </r>
       <r>     2.9333     2.5395    18.4425 </r>
       <r>     3.0554     2.9381    18.7777 </r>
       <r>     3.1775     2.8200    19.1415 </r>
       <r>     3.2996     2.7091    19.4731 </r>
       <r>     3.4217     2.8093    19.8145 </r>
       <r>     3.5438     2.8946    20.1578 </r>
       <r>     3.6659     2.9015    20.5008 </r>
       <r>     3.7881     3.2222    20.8752 </r>
       <r>     3.9102     3.2849    21.2833 </r>
       <r>     4.0323     3.1455    21.6728 </r>
       <r>     4.1544     3.0186    22.0489 </r>
       <r>     4.2765     3.2324    22.4410 </r>
       <r>     4.3986     3.0008    22.8225 </r>
       <r>     4.5207     2.9352    23.1850 </r>
       <r>     4.6428     2.7478    23.5336 </r>
       <r>     4.7649     2.6652    23.8597 </r>
       <r>     4.8870     2.8672    24.1958 </r>
       <r>     5.0092     3.0840    24.5675 </r>
       <r>     5.1313     3.1093    24.9519 </r>
       <r>     5.2534     2.8944    25.3212 </r>
       <r>     5.3755     2.7170    25.6675 </r>
       <r>     5.4976     2.5677    25.9913 </r>
       <r>     5.6197     2.6242    26.3042 </r>
       <r>     5.7418     2.5870    26.6197 </r>
       <r>     5.8639     2.6262    26.9372 </r>
       <r>     5.9860     2.9631    27.2779 </r>
       <r>     6.1081     2.8947    27.6347 </r>
       <r>     6.2303     2.7500    27.9769 </r>
       <r>     6.3524     2.7111    28.3077 </r>
       <r>     6.4745     2.5454    28.6322 </r>
       <r>     6.5966     2.5805    28.9375 </r>
       <r>     6.7187     2.3726    29.2446 </r>
       <r>     6.8408     1.6549    29.4732 </r>
       <r>     6.9629     1.7849    29.6826 </r>
       <r>     7.0850     1.8906    29.9081 </r>
       <r>     7.2071     1.9378    30.1444 </r>
       <r>     7.3292     1.6206    30.3566 </r>
       <r>     7.4514     1.4790    30.5484 </r>
       <r>     7.5735     1.3409    30.7196 </r>
       <r>     7.6956     1.1954    30.8748 </r>
       <r>     7.8177     1.0786    31.0130 </r>
       <r>     7.9398     1.0001    31.1399 </r>
       <r>     8.0619     0.9253    31.2572 </r>
       <r>     8.1840     0.8933    31.3691 </r>
       <r>     8.3061     0.7926    31.4723 </r>
       <r>     8.4282     0.7003    31.5633 </r>
       <r>     8.5504     0.6341    31.6442 </r>
       <r>     8.6725     0.6134    31.7207 </r>
       <r>     8.7946     0.5093    31.7906 </r>
       <r>     8.9167     0.4066    31.8458 </r>
       <r>     9.0388     0.3852    31.8936 </r>
       <r>     9.1609     0.2861    31.9376 </r>
       <r>     9.2830     0.2002    31.9674 </r>
       <r>     9.4051     0.1793    31.9883 </r>
       <r>     9.5272     0.0249    31.9994 </r>
       <r>     9.6493     0.0000    32.0000 </r>
       <r>     9.7715     0.0000    32.0000 </r>
       <r>     9.8936     0.0000    32.0000 </r>
       <r>    10.0157     0.0000    32.0000 </r>
       <r>    10.1378     0.0000    32.0000 </r>
       <r>    10.2599     0.0000    32.0000 </r>
       <r>    10.3820     0.0000    32.0000 </r>
       <r>    10.5041     0.0000    32.0000 </r>
       <r>    10.6262     0.0000    32.0000 </r>
       <r>    10.7483     0.0000    32.0000 </r>
       <r>    10.8704     0.0000    32.0000 </r>
       <r>    10.9926     0.0000    32.0000 </r>
       <r>    11.1147     0.0000    32.0000 </r>
       <r>    11.2368     0.0000    32.0000 </r>
       <r>    11.3589     0.0000    32.0000 </r>
       <r>    11.4810     0.0000    32.0000 </r>
       <r>    11.6031     0.0000    32.0000 </r>
       <r>    11.7252     0.0000    32.0000 </r>
       <r>    11.8473     0.0000    32.0000 </r>
       <r>    11.9694     0.0000    32.0000 </r>
       <r>    12.0915     0.0000    32.0000 </r>
       <r>    12.2137     0.0000    32.0000 </r>
       <r>    12.3358     0.0000    32.0000 </r>
       <r>    12.4579     0.0000    32.0000 </r>
       <r>    12.5800     0.0000    32.0000 </r>
       <r>    12.7021     0.0000    32.0000 </r>
       <r>    12.8242     0.0000    32.0000 </r>
       <r>    12.9463     0.0000    32.0000 </r>
       <r>    13.0684     0.0000    32.0000 </r>
       <r>    13.1905     0.0000    32.0000 </r>
       <r>    13.3126     0.0000    32.0000 </r>
       <r>    13.4348     0.1544    32.0066 </r>
       <r>    13.5569     0.3855    32.0398 </r>
       <r>    13.6790     0.5576    32.1002 </r>
       <r>    13.8011     0.6999    32.1782 </r>
       <r>    13.9232     0.8257    32.2679 </r>
       <r>    14.0453     0.8800    32.3754 </r>
       <r>    14.1674     0.9596    32.4852 </r>
       <r>    14.2895     1.3334    32.6207 </r>
       <r>    14.4116     1.2797    32.7824 </r>
       <r>    14.5338     1.2999    32.9397 </r>
       <r>    14.6559     1.3085    33.0987 </r>
       <r>    14.7780     1.3102    33.2589 </r>
       <r>    14.9001     1.3243    33.4201 </r>
       <r>    15.0222     1.4643    33.5895 </r>
       <r>    15.1443     1.5602    33.7747 </r>
       <r>    15.2664     1.6029    33.9678 </r>
       <r>    15.3885     1.6774    34.1677 </r>
       <r>    15.5106     1.7693    34.3780 </r>
       <r>    15.6327     1.8061    34.5973 </r>
       <r>    15.7549     1.9273    34.8233 </r>
       <r>    15.8770     2.1442    35.0692 </r>
       <r>    15.9991     2.3729    35.3444 </r>
       <r>    16.1212     2.5248    35.6424 </r>
       <r>    16.2433     2.7352    35.9631 </r>
       <r>    16.3654     3.1429    36.3140 </r>
       <r>    16.4875     3.4093    36.7180 </r>
       <r>    16.6096     3.5459    37.1435 </r>
       <r>    16.7317     3.2189    37.5598 </r>
       <r>    16.8538     2.7251    37.9182 </r>
       <r>    16.9760     2.5752    38.2417 </r>
       <r>    17.0981     2.4859    38.5474 </r>
       <r>    17.2202     2.1742    38.8302 </r>
       <r>    17.3423     2.2762    39.0983 </r>
       <r>    17.4644     2.5076    39.3936 </r>
       <r>    17.5865     2.5518    39.7030 </r>
       <r>    17.7086     2.6780    40.0237 </r>
       <r>    17.8307     2.8416    40.3518 </r>
       <r>    17.9528     3.1092    40.7150 </r>
       <r>    18.0749     3.3054    41.0966 </r>
       <r>    18.1971     3.8152    41.5355 </r>
       <r>    18.3192     4.8082    42.0655 </r>
       <r>    18.4413     4.3172    42.6071 </r>
       <r>    18.5634     4.3942    43.1729 </r>
       <r>    18.6855     3.7739    43.6583 </r>
       <r>    18.8076     3.4469    44.0940 </r>
       <r>    18.9297     3.5875    44.5229 </r>
       <r>    19.0518     3.2478    44.9445 </r>
       <r>    19.1739     3.0294    45.3256 </r>
       <r>    19.2960     2.7014    45.6748 </r>
       <r>    19.4182     2.5666    45.9943 </r>
       <r>    19.5403     2.5212    46.3059 </r>
       <r>    19.6624     2.5131    46.6098 </r>
       <r>    19.7845     2.4780    46.9288 </r>
       <r>    19.9066     2.0945    47.2048 </r>
       <r>    20.0287     1.6313    47.4333 </r>
       <r>    20.1508     1.3423    47.6122 </r>
       <r>    20.2729     0.8931    47.7484 </r>
       <r>    20.3950     0.5016    47.8314 </r>
       <r>    20.5171     0.3148    47.8784 </r>
       <r>    20.6393     0.2449    47.9143 </r>
       <r>    20.7614     0.1780    47.9395 </r>
       <r>    20.8835     0.1342    47.9585 </r>
       <r>    21.0056     0.1006    47.9727 </r>
       <r>    21.1277     0.0771    47.9834 </r>
       <r>    21.2498     0.0613    47.9918 </r>
       <r>    21.3719     0.0331    47.9982 </r>
       <r>    21.4940     0.0024    48.0000 </r>
       <r>    21.6161     0.0000    48.0000 </r>
       <r>    21.7383     0.0000    48.0000 </r>
       <r>    21.8604     0.0000    48.0000 </r>
       <r>    21.9825     0.0000    48.0000 </r>
       <r>    22.1046     0.0000    48.0000 </r>
       <r>    22.2267     0.0000    48.0000 </r>
       <r>    22.3488     0.0000    48.0000 </r>
       <r>    22.4709     0.0000    48.0000 </r>
       <r>    22.5930     0.0000    48.0000 </r>
       <r>    22.7151     0.0000    48.0000 </r>
       <r>    22.8372     0.0000    48.0000 </r>
       <r>    22.9594     0.0000    48.0000 </r>
       <r>    23.0815     0.0000    48.0000 </r>
       <r>    23.2036     0.0000    48.0000 </r>
      </set>
     </set>
    </array>
   </total>
  </dos>
 </calculation>
 <structure name="finalpos" >
  <crystal>
   <varray name="basis" >
    <v>       3.58999936       0.00000000       0.00000000 </v>
    <v>       0.17949947       3.58550898       0.00000000 </v>
    <v>       0.17949947       0.17073871       3.58144153 </v>
   </varray>
   <i name="volume">     46.10022566 </i>
   <varray name="rec_basis" >
    <v>       0.27855158      -0.01394498      -0.01329602 </v>
    <v>       0.00000000       0.27890043      -0.01329607 </v>
    <v>       0.00000000       0.00000000       0.27921718 </v>
   </varray>
  </crystal>
  <varray name="positions" >
   <v>       0.25000000       0.75000000       0.25000000 </v>
   <v>       0.00000000       0.00000000       0.50000000 </v>
   <v>       0.25000000       0.25000000       0.75000000 </v>
   <v>       0.00000000       0.50000000       0.00000000 </v>
   <v>       0.75000000       0.75000000       0.75000000 </v>
   <v>       0.50000000       0.00000000       0.00000000 </v>
   <v>       0.75000000       0.25000000       0.25000000 </v>
   <v>       0.50000000       0.50000000       0.50000000 </v>
  </varray>
 </structure>
</modeling>
