   8   8   0   0
  0.5476954E+01  0.3501506E-09  0.3501506E-09  0.3573710E-09  0.2000000E-16
  1.000000000000000E-004
  CAR 
 unknown system                          
     24.01654315    -13.38306295  301     10.44360277      1.00000000
    -13.383  0.0000E+00  0.0000E+00
    -13.258  0.0000E+00  0.0000E+00
    -13.134  0.0000E+00  0.0000E+00
    -13.009  0.0000E+00  0.0000E+00
    -12.884  0.0000E+00  0.0000E+00
    -12.760  0.0000E+00  0.0000E+00
    -12.635  0.0000E+00  0.0000E+00
    -12.510  0.0000E+00  0.0000E+00
    -12.386  0.0000E+00  0.0000E+00
    -12.261  0.0000E+00  0.0000E+00
    -12.136  0.0000E+00  0.0000E+00
    -12.012  0.0000E+00  0.0000E+00
    -11.887  0.0000E+00  0.0000E+00
    -11.762  0.0000E+00  0.0000E+00
    -11.638  0.3358E-01  0.5075E-03
    -11.513  0.1494E+00  0.1482E-01
    -11.388  0.2339E+00  0.3868E-01
    -11.264  0.2646E+00  0.6947E-01
    -11.139  0.3105E+00  0.1053E+00
    -11.014  0.3500E+00  0.1469E+00
    -10.890  0.3778E+00  0.1922E+00
    -10.765  0.4076E+00  0.2411E+00
    -10.640  0.4444E+00  0.2942E+00
    -10.516  0.4675E+00  0.3512E+00
    -10.391  0.4899E+00  0.4109E+00
    -10.266  0.5147E+00  0.4735E+00
    -10.142  0.5420E+00  0.5393E+00
    -10.017  0.5678E+00  0.6086E+00
     -9.892  0.5868E+00  0.6805E+00
     -9.768  0.6062E+00  0.7549E+00
     -9.643  0.6270E+00  0.8318E+00
     -9.518  0.6488E+00  0.9113E+00
     -9.394  0.6720E+00  0.9936E+00
     -9.269  0.6933E+00  0.1079E+01
     -9.144  0.7099E+00  0.1166E+01
     -9.020  0.7269E+00  0.1256E+01
     -8.895  0.7458E+00  0.1348E+01
     -8.770  0.7655E+00  0.1442E+01
     -8.646  0.7859E+00  0.1538E+01
     -8.521  0.8061E+00  0.1638E+01
     -8.396  0.8241E+00  0.1739E+01
     -8.272  0.8406E+00  0.1843E+01
     -8.147  0.8581E+00  0.1949E+01
     -8.022  0.8766E+00  0.2057E+01
     -7.898  0.8954E+00  0.2168E+01
     -7.773  0.9248E+00  0.2280E+01
     -7.648  0.9776E+00  0.2399E+01
     -7.524  0.1012E+01  0.2523E+01
     -7.399  0.1053E+01  0.2652E+01
     -7.274  0.1055E+01  0.2784E+01
     -7.150  0.1033E+01  0.2914E+01
     -7.025  0.1007E+01  0.3041E+01
     -6.900  0.1026E+01  0.3168E+01
     -6.776  0.1031E+01  0.3296E+01
     -6.651  0.1029E+01  0.3424E+01
     -6.526  0.1052E+01  0.3554E+01
     -6.402  0.1107E+01  0.3688E+01
     -6.277  0.1167E+01  0.3830E+01
     -6.152  0.1240E+01  0.3980E+01
     -6.028  0.1257E+01  0.4135E+01
     -5.903  0.1306E+01  0.4295E+01
     -5.778  0.1457E+01  0.4466E+01
     -5.654  0.1601E+01  0.4657E+01
     -5.529  0.1505E+01  0.4850E+01
     -5.404  0.1459E+01  0.5035E+01
     -5.280  0.1396E+01  0.5216E+01
     -5.155  0.1350E+01  0.5385E+01
     -5.030  0.1305E+01  0.5550E+01
     -4.906  0.1399E+01  0.5718E+01
     -4.781  0.1303E+01  0.5888E+01
     -4.656  0.1181E+01  0.6040E+01
     -4.532  0.1177E+01  0.6187E+01
     -4.407  0.1138E+01  0.6332E+01
     -4.282  0.1140E+01  0.6472E+01
     -4.158  0.1100E+01  0.6615E+01
     -4.033  0.1028E+01  0.6746E+01
     -3.908  0.1059E+01  0.6877E+01
     -3.784  0.9798E+00  0.7003E+01
     -3.659  0.9452E+00  0.7124E+01
     -3.535  0.9230E+00  0.7240E+01
     -3.410  0.9439E+00  0.7356E+01
     -3.285  0.1095E+01  0.7482E+01
     -3.161  0.1027E+01  0.7613E+01
     -3.036  0.1096E+01  0.7746E+01
     -2.911  0.1032E+01  0.7878E+01
     -2.787  0.1022E+01  0.8007E+01
     -2.662  0.1090E+01  0.8136E+01
     -2.537  0.1071E+01  0.8273E+01
     -2.413  0.9835E+00  0.8400E+01
     -2.288  0.9761E+00  0.8521E+01
     -2.163  0.1055E+01  0.8646E+01
     -2.039  0.1193E+01  0.8787E+01
     -1.914  0.1338E+01  0.8943E+01
     -1.789  0.1540E+01  0.9123E+01
     -1.665  0.1825E+01  0.9330E+01
     -1.540  0.2230E+01  0.9581E+01
     -1.415  0.2688E+01  0.9890E+01
     -1.291  0.2555E+01  0.1023E+02
     -1.166  0.2174E+01  0.1052E+02
     -1.041  0.1855E+01  0.1078E+02
     -0.917  0.1631E+01  0.1099E+02
     -0.792  0.1522E+01  0.1119E+02
     -0.667  0.1440E+01  0.1137E+02
     -0.543  0.1373E+01  0.1155E+02
     -0.418  0.1333E+01  0.1171E+02
     -0.293  0.1306E+01  0.1188E+02
     -0.169  0.1286E+01  0.1204E+02
     -0.044  0.1222E+01  0.1220E+02
      0.081  0.1176E+01  0.1235E+02
      0.205  0.1184E+01  0.1249E+02
      0.330  0.1109E+01  0.1263E+02
      0.455  0.1096E+01  0.1277E+02
      0.579  0.1052E+01  0.1291E+02
      0.704  0.1032E+01  0.1304E+02
      0.829  0.1311E+01  0.1318E+02
      0.953  0.1620E+01  0.1336E+02
      1.078  0.1817E+01  0.1358E+02
      1.203  0.2152E+01  0.1383E+02
      1.327  0.2221E+01  0.1411E+02
      1.452  0.2057E+01  0.1437E+02
      1.577  0.2142E+01  0.1463E+02
      1.701  0.2141E+01  0.1490E+02
      1.826  0.2142E+01  0.1517E+02
      1.951  0.1999E+01  0.1543E+02
      2.075  0.1443E+01  0.1564E+02
      2.200  0.1426E+01  0.1581E+02
      2.325  0.1701E+01  0.1600E+02
      2.449  0.2051E+01  0.1624E+02
      2.574  0.2257E+01  0.1651E+02
      2.699  0.2265E+01  0.1679E+02
      2.823  0.2264E+01  0.1708E+02
      2.948  0.2297E+01  0.1736E+02
      3.073  0.2280E+01  0.1765E+02
      3.197  0.2477E+01  0.1794E+02
      3.322  0.2903E+01  0.1828E+02
      3.447  0.2907E+01  0.1864E+02
      3.571  0.2729E+01  0.1899E+02
      3.696  0.2529E+01  0.1931E+02
      3.821  0.2428E+01  0.1963E+02
      3.945  0.2627E+01  0.1995E+02
      4.070  0.2874E+01  0.2029E+02
      4.195  0.3233E+01  0.2067E+02
      4.319  0.3533E+01  0.2110E+02
      4.444  0.3415E+01  0.2154E+02
      4.569  0.3085E+01  0.2194E+02
      4.693  0.2753E+01  0.2231E+02
      4.818  0.2662E+01  0.2264E+02
      4.943  0.2663E+01  0.2298E+02
      5.067  0.2685E+01  0.2331E+02
      5.192  0.2650E+01  0.2364E+02
      5.317  0.2903E+01  0.2399E+02
      5.441  0.2925E+01  0.2435E+02
      5.566  0.2888E+01  0.2472E+02
      5.691  0.2939E+01  0.2508E+02
      5.815  0.2973E+01  0.2545E+02
      5.940  0.2705E+01  0.2581E+02
      6.065  0.2423E+01  0.2612E+02
      6.189  0.2316E+01  0.2642E+02
      6.314  0.2301E+01  0.2670E+02
      6.439  0.2546E+01  0.2700E+02
      6.563  0.2631E+01  0.2733E+02
      6.688  0.2664E+01  0.2765E+02
      6.813  0.2680E+01  0.2799E+02
      6.937  0.2532E+01  0.2832E+02
      7.062  0.2424E+01  0.2863E+02
      7.187  0.2246E+01  0.2891E+02
      7.311  0.2653E+01  0.2921E+02
      7.436  0.2199E+01  0.2951E+02
      7.561  0.2036E+01  0.2978E+02
      7.685  0.1649E+01  0.3001E+02
      7.810  0.1491E+01  0.3020E+02
      7.935  0.1383E+01  0.3038E+02
      8.059  0.1312E+01  0.3055E+02
      8.184  0.1214E+01  0.3071E+02
      8.309  0.1128E+01  0.3085E+02
      8.433  0.1026E+01  0.3099E+02
      8.558  0.9460E+00  0.3111E+02
      8.683  0.8773E+00  0.3122E+02
      8.807  0.8308E+00  0.3133E+02
      8.932  0.7648E+00  0.3143E+02
      9.057  0.7033E+00  0.3152E+02
      9.181  0.6247E+00  0.3160E+02
      9.306  0.5671E+00  0.3168E+02
      9.431  0.5340E+00  0.3175E+02
      9.555  0.4524E+00  0.3181E+02
      9.680  0.3837E+00  0.3186E+02
      9.805  0.3306E+00  0.3190E+02
      9.929  0.2733E+00  0.3194E+02
     10.054  0.1915E+00  0.3197E+02
     10.179  0.1265E+00  0.3199E+02
     10.303  0.2336E-01  0.3200E+02
     10.428  0.0000E+00  0.3200E+02
     10.553  0.0000E+00  0.3200E+02
     10.677  0.0000E+00  0.3200E+02
     10.802  0.0000E+00  0.3200E+02
     10.927  0.0000E+00  0.3200E+02
     11.051  0.0000E+00  0.3200E+02
     11.176  0.0000E+00  0.3200E+02
     11.301  0.0000E+00  0.3200E+02
     11.425  0.0000E+00  0.3200E+02
     11.550  0.0000E+00  0.3200E+02
     11.675  0.0000E+00  0.3200E+02
     11.799  0.0000E+00  0.3200E+02
     11.924  0.0000E+00  0.3200E+02
     12.049  0.0000E+00  0.3200E+02
     12.173  0.0000E+00  0.3200E+02
     12.298  0.0000E+00  0.3200E+02
     12.423  0.0000E+00  0.3200E+02
     12.547  0.0000E+00  0.3200E+02
     12.672  0.0000E+00  0.3200E+02
     12.797  0.0000E+00  0.3200E+02
     12.921  0.0000E+00  0.3200E+02
     13.046  0.0000E+00  0.3200E+02
     13.171  0.0000E+00  0.3200E+02
     13.295  0.0000E+00  0.3200E+02
     13.420  0.0000E+00  0.3200E+02
     13.545  0.0000E+00  0.3200E+02
     13.669  0.0000E+00  0.3200E+02
     13.794  0.0000E+00  0.3200E+02
     13.919  0.0000E+00  0.3200E+02
     14.043  0.0000E+00  0.3200E+02
     14.168  0.0000E+00  0.3200E+02
     14.293  0.0000E+00  0.3200E+02
     14.417  0.3967E-01  0.3200E+02
     14.542  0.1457E+00  0.3201E+02
     14.667  0.2959E+00  0.3204E+02
     14.791  0.3683E+00  0.3208E+02
     14.916  0.4273E+00  0.3213E+02
     15.041  0.5787E+00  0.3219E+02
     15.165  0.7287E+00  0.3228E+02
     15.290  0.8221E+00  0.3237E+02
     15.415  0.1273E+01  0.3249E+02
     15.539  0.1142E+01  0.3263E+02
     15.664  0.1235E+01  0.3278E+02
     15.789  0.1308E+01  0.3294E+02
     15.913  0.1521E+01  0.3311E+02
     16.038  0.1576E+01  0.3330E+02
     16.163  0.1636E+01  0.3351E+02
     16.287  0.1710E+01  0.3371E+02
     16.412  0.1855E+01  0.3394E+02
     16.537  0.1923E+01  0.3417E+02
     16.661  0.2016E+01  0.3442E+02
     16.786  0.2051E+01  0.3467E+02
     16.911  0.2083E+01  0.3493E+02
     17.035  0.2098E+01  0.3519E+02
     17.160  0.2173E+01  0.3546E+02
     17.285  0.2260E+01  0.3573E+02
     17.409  0.2340E+01  0.3602E+02
     17.534  0.2503E+01  0.3632E+02
     17.659  0.2607E+01  0.3664E+02
     17.783  0.2712E+01  0.3697E+02
     17.908  0.2815E+01  0.3732E+02
     18.033  0.3036E+01  0.3768E+02
     18.157  0.3205E+01  0.3807E+02
     18.282  0.3468E+01  0.3848E+02
     18.407  0.3971E+01  0.3895E+02
     18.531  0.4392E+01  0.3946E+02
     18.656  0.4877E+01  0.4006E+02
     18.781  0.3460E+01  0.4055E+02
     18.905  0.2621E+01  0.4091E+02
     19.030  0.3502E+01  0.4127E+02
     19.155  0.3161E+01  0.4168E+02
     19.279  0.3139E+01  0.4208E+02
     19.404  0.3464E+01  0.4248E+02
     19.529  0.3544E+01  0.4292E+02
     19.653  0.3496E+01  0.4336E+02
     19.778  0.3168E+01  0.4378E+02
     19.903  0.3046E+01  0.4416E+02
     20.027  0.2889E+01  0.4453E+02
     20.152  0.2801E+01  0.4489E+02
     20.277  0.2694E+01  0.4523E+02
     20.401  0.2677E+01  0.4556E+02
     20.526  0.2693E+01  0.4590E+02
     20.651  0.2681E+01  0.4624E+02
     20.775  0.2702E+01  0.4657E+02
     20.900  0.2619E+01  0.4691E+02
     21.025  0.2208E+01  0.4721E+02
     21.149  0.1694E+01  0.4745E+02
     21.274  0.1424E+01  0.4765E+02
     21.399  0.9538E+00  0.4780E+02
     21.523  0.5013E+00  0.4789E+02
     21.648  0.2919E+00  0.4793E+02
     21.773  0.1853E+00  0.4796E+02
     21.897  0.1221E+00  0.4798E+02
     22.022  0.6659E-01  0.4799E+02
     22.147  0.2662E-01  0.4800E+02
     22.271  0.3591E-02  0.4800E+02
     22.396  0.0000E+00  0.4800E+02
     22.521  0.0000E+00  0.4800E+02
     22.645  0.0000E+00  0.4800E+02
     22.770  0.0000E+00  0.4800E+02
     22.895  0.0000E+00  0.4800E+02
     23.019  0.0000E+00  0.4800E+02
     23.144  0.0000E+00  0.4800E+02
     23.269  0.0000E+00  0.4800E+02
     23.393  0.0000E+00  0.4800E+02
     23.518  0.0000E+00  0.4800E+02
     23.643  0.0000E+00  0.4800E+02
     23.767  0.0000E+00  0.4800E+02
     23.892  0.0000E+00  0.4800E+02
     24.017  0.0000E+00  0.4800E+02
