       N       E                     dE             d eps       ncg     rms          rms(c)
DAV:   1     0.575245512748E+02    0.57525E+02   -0.14480E+04  9408   0.106E+03
DAV:   2    -0.712579938331E+02   -0.12878E+03   -0.12242E+03 12920   0.224E+02
DAV:   3    -0.753829776012E+02   -0.41250E+01   -0.41061E+01 12136   0.373E+01
DAV:   4    -0.754226752004E+02   -0.39698E-01   -0.39660E-01 11928   0.401E+00
DAV:   5    -0.754234235890E+02   -0.74839E-03   -0.74812E-03 12136   0.489E-01    0.991E+00
DAV:   6    -0.733150707906E+02    0.21084E+01   -0.13849E+00 10632   0.677E+00    0.540E+00
DAV:   7    -0.726038201589E+02    0.71125E+00   -0.15482E+00 10936   0.736E+00    0.706E-01
DAV:   8    -0.726116578568E+02   -0.78377E-02   -0.29727E-02 11728   0.101E+00    0.826E-02
DAV:   9    -0.726118616945E+02   -0.20384E-03   -0.42550E-04 11512   0.140E-01    0.287E-02
DAV:  10    -0.726119135793E+02   -0.51885E-04   -0.42962E-05 11792   0.504E-02    0.270E-03
DAV:  11    -0.726119142489E+02   -0.66957E-06   -0.10123E-06  8696   0.714E-03
   1 F= -.72611914E+02 E0= -.72611914E+02  d E =0.000000E+00
