   8   8   0   0
  0.5697300E+01  0.3573710E-09  0.3573710E-09  0.3573710E-09  0.2000000E-16
  1.000000000000000E-004
  CAR 
 unknown system                          
     23.65602748    -13.42119535  301      9.82158871      1.00000000
    -13.421  0.0000E+00  0.0000E+00
    -13.298  0.0000E+00  0.0000E+00
    -13.174  0.0000E+00  0.0000E+00
    -13.050  0.0000E+00  0.0000E+00
    -12.927  0.0000E+00  0.0000E+00
    -12.803  0.0000E+00  0.0000E+00
    -12.680  0.0000E+00  0.0000E+00
    -12.556  0.0000E+00  0.0000E+00
    -12.432  0.0000E+00  0.0000E+00
    -12.309  0.0000E+00  0.0000E+00
    -12.185  0.0000E+00  0.0000E+00
    -12.062  0.0000E+00  0.0000E+00
    -11.938  0.0000E+00  0.0000E+00
    -11.815  0.0000E+00  0.0000E+00
    -11.691  0.3642E-01  0.5456E-03
    -11.567  0.1556E+00  0.1536E-01
    -11.444  0.2427E+00  0.4012E-01
    -11.320  0.2755E+00  0.7176E-01
    -11.197  0.3241E+00  0.1088E+00
    -11.073  0.3622E+00  0.1517E+00
    -10.949  0.3924E+00  0.1983E+00
    -10.826  0.4252E+00  0.2487E+00
    -10.702  0.4638E+00  0.3037E+00
    -10.579  0.4856E+00  0.3624E+00
    -10.455  0.5095E+00  0.4239E+00
    -10.331  0.5365E+00  0.4885E+00
    -10.208  0.5652E+00  0.5565E+00
    -10.084  0.5909E+00  0.6281E+00
     -9.961  0.6124E+00  0.7024E+00
     -9.837  0.6363E+00  0.7796E+00
     -9.713  0.6639E+00  0.8599E+00
     -9.590  0.6941E+00  0.9438E+00
     -9.466  0.7271E+00  0.1032E+01
     -9.343  0.7286E+00  0.1121E+01
     -9.219  0.7342E+00  0.1212E+01
     -9.096  0.7543E+00  0.1304E+01
     -8.972  0.7711E+00  0.1398E+01
     -8.848  0.7949E+00  0.1495E+01
     -8.725  0.8191E+00  0.1594E+01
     -8.601  0.8386E+00  0.1697E+01
     -8.478  0.8586E+00  0.1802E+01
     -8.354  0.8813E+00  0.1909E+01
     -8.230  0.9016E+00  0.2019E+01
     -8.107  0.9205E+00  0.2132E+01
     -7.983  0.9324E+00  0.2246E+01
     -7.860  0.9496E+00  0.2363E+01
     -7.736  0.1057E+01  0.2486E+01
     -7.612  0.1094E+01  0.2619E+01
     -7.489  0.1106E+01  0.2755E+01
     -7.365  0.1076E+01  0.2891E+01
     -7.242  0.1054E+01  0.3021E+01
     -7.118  0.1051E+01  0.3151E+01
     -6.994  0.1086E+01  0.3283E+01
     -6.871  0.1119E+01  0.3419E+01
     -6.747  0.1182E+01  0.3561E+01
     -6.624  0.1169E+01  0.3706E+01
     -6.500  0.1248E+01  0.3854E+01
     -6.377  0.1274E+01  0.4010E+01
     -6.253  0.1383E+01  0.4174E+01
     -6.129  0.1475E+01  0.4350E+01
     -6.006  0.1525E+01  0.4534E+01
     -5.882  0.1512E+01  0.4724E+01
     -5.759  0.1410E+01  0.4902E+01
     -5.635  0.1377E+01  0.5074E+01
     -5.511  0.1433E+01  0.5246E+01
     -5.388  0.1458E+01  0.5425E+01
     -5.264  0.1400E+01  0.5600E+01
     -5.141  0.1335E+01  0.5769E+01
     -5.017  0.1295E+01  0.5930E+01
     -4.893  0.1241E+01  0.6087E+01
     -4.770  0.1232E+01  0.6240E+01
     -4.646  0.1175E+01  0.6391E+01
     -4.523  0.1130E+01  0.6533E+01
     -4.399  0.1069E+01  0.6669E+01
     -4.275  0.1184E+01  0.6808E+01
     -4.152  0.1044E+01  0.6943E+01
     -4.028  0.1041E+01  0.7071E+01
     -3.905  0.1005E+01  0.7198E+01
     -3.781  0.9762E+00  0.7322E+01
     -3.658  0.8985E+00  0.7438E+01
     -3.534  0.8907E+00  0.7547E+01
     -3.410  0.1023E+01  0.7666E+01
     -3.287  0.1032E+01  0.7791E+01
     -3.163  0.1088E+01  0.7931E+01
     -3.040  0.9567E+00  0.8056E+01
     -2.916  0.8268E+00  0.8165E+01
     -2.792  0.9979E+00  0.8273E+01
     -2.669  0.7949E+00  0.8383E+01
     -2.545  0.8824E+00  0.8486E+01
     -2.422  0.1025E+01  0.8604E+01
     -2.298  0.1215E+01  0.8741E+01
     -2.174  0.1461E+01  0.8907E+01
     -2.051  0.1872E+01  0.9114E+01
     -1.927  0.2101E+01  0.9362E+01
     -1.804  0.2250E+01  0.9629E+01
     -1.680  0.2743E+01  0.9935E+01
     -1.556  0.2418E+01  0.1026E+02
     -1.433  0.2227E+01  0.1055E+02
     -1.309  0.1931E+01  0.1081E+02
     -1.186  0.1717E+01  0.1104E+02
     -1.062  0.1572E+01  0.1124E+02
     -0.939  0.1486E+01  0.1143E+02
     -0.815  0.1427E+01  0.1161E+02
     -0.691  0.1373E+01  0.1178E+02
     -0.568  0.1326E+01  0.1195E+02
     -0.444  0.1239E+01  0.1210E+02
     -0.321  0.1215E+01  0.1226E+02
     -0.197  0.1198E+01  0.1241E+02
     -0.073  0.1185E+01  0.1256E+02
      0.050  0.1101E+01  0.1269E+02
      0.174  0.1060E+01  0.1283E+02
      0.297  0.1005E+01  0.1295E+02
      0.421  0.1035E+01  0.1308E+02
      0.545  0.1279E+01  0.1322E+02
      0.668  0.1591E+01  0.1340E+02
      0.792  0.1859E+01  0.1361E+02
      0.915  0.2386E+01  0.1387E+02
      1.039  0.2239E+01  0.1415E+02
      1.163  0.2165E+01  0.1442E+02
      1.286  0.2198E+01  0.1469E+02
      1.410  0.2226E+01  0.1496E+02
      1.533  0.2169E+01  0.1524E+02
      1.657  0.1772E+01  0.1548E+02
      1.780  0.1537E+01  0.1567E+02
      1.904  0.1452E+01  0.1585E+02
      2.028  0.1801E+01  0.1605E+02
      2.151  0.2261E+01  0.1630E+02
      2.275  0.2462E+01  0.1661E+02
      2.398  0.2326E+01  0.1690E+02
      2.522  0.2264E+01  0.1718E+02
      2.646  0.2336E+01  0.1746E+02
      2.769  0.2361E+01  0.1776E+02
      2.893  0.2671E+01  0.1806E+02
      3.016  0.3025E+01  0.1841E+02
      3.140  0.2923E+01  0.1877E+02
      3.264  0.2663E+01  0.1911E+02
      3.387  0.2734E+01  0.1945E+02
      3.511  0.2580E+01  0.1978E+02
      3.634  0.2692E+01  0.2010E+02
      3.758  0.3080E+01  0.2046E+02
      3.882  0.3717E+01  0.2087E+02
      4.005  0.3328E+01  0.2132E+02
      4.129  0.3116E+01  0.2171E+02
      4.252  0.3053E+01  0.2210E+02
      4.376  0.2844E+01  0.2246E+02
      4.499  0.2873E+01  0.2281E+02
      4.623  0.2784E+01  0.2316E+02
      4.747  0.3080E+01  0.2352E+02
      4.870  0.2825E+01  0.2389E+02
      4.994  0.2879E+01  0.2424E+02
      5.117  0.2894E+01  0.2460E+02
      5.241  0.2995E+01  0.2496E+02
      5.365  0.3043E+01  0.2533E+02
      5.488  0.2857E+01  0.2570E+02
      5.612  0.2610E+01  0.2603E+02
      5.735  0.2419E+01  0.2634E+02
      5.859  0.2535E+01  0.2664E+02
      5.983  0.2663E+01  0.2696E+02
      6.106  0.2763E+01  0.2730E+02
      6.230  0.2714E+01  0.2764E+02
      6.353  0.2796E+01  0.2799E+02
      6.477  0.2645E+01  0.2833E+02
      6.601  0.2459E+01  0.2864E+02
      6.724  0.2182E+01  0.2893E+02
      6.848  0.2258E+01  0.2919E+02
      6.971  0.2257E+01  0.2947E+02
      7.095  0.2320E+01  0.2976E+02
      7.218  0.1830E+01  0.3001E+02
      7.342  0.1628E+01  0.3022E+02
      7.466  0.1452E+01  0.3041E+02
      7.589  0.1345E+01  0.3059E+02
      7.713  0.1256E+01  0.3075E+02
      7.836  0.1151E+01  0.3090E+02
      7.960  0.1050E+01  0.3103E+02
      8.084  0.9564E+00  0.3116E+02
      8.207  0.8831E+00  0.3127E+02
      8.331  0.8388E+00  0.3137E+02
      8.454  0.7891E+00  0.3148E+02
      8.578  0.6885E+00  0.3157E+02
      8.702  0.6143E+00  0.3165E+02
      8.825  0.5667E+00  0.3172E+02
      8.949  0.5224E+00  0.3179E+02
      9.072  0.4072E+00  0.3185E+02
      9.196  0.3685E+00  0.3189E+02
      9.320  0.3724E+00  0.3194E+02
      9.443  0.1854E+00  0.3197E+02
      9.567  0.1444E+00  0.3199E+02
      9.690  0.6750E-02  0.3200E+02
      9.814  0.0000E+00  0.3200E+02
      9.937  0.0000E+00  0.3200E+02
     10.061  0.0000E+00  0.3200E+02
     10.185  0.0000E+00  0.3200E+02
     10.308  0.0000E+00  0.3200E+02
     10.432  0.0000E+00  0.3200E+02
     10.555  0.0000E+00  0.3200E+02
     10.679  0.0000E+00  0.3200E+02
     10.803  0.0000E+00  0.3200E+02
     10.926  0.0000E+00  0.3200E+02
     11.050  0.0000E+00  0.3200E+02
     11.173  0.0000E+00  0.3200E+02
     11.297  0.0000E+00  0.3200E+02
     11.421  0.0000E+00  0.3200E+02
     11.544  0.0000E+00  0.3200E+02
     11.668  0.0000E+00  0.3200E+02
     11.791  0.0000E+00  0.3200E+02
     11.915  0.0000E+00  0.3200E+02
     12.038  0.0000E+00  0.3200E+02
     12.162  0.0000E+00  0.3200E+02
     12.286  0.0000E+00  0.3200E+02
     12.409  0.0000E+00  0.3200E+02
     12.533  0.0000E+00  0.3200E+02
     12.656  0.0000E+00  0.3200E+02
     12.780  0.0000E+00  0.3200E+02
     12.904  0.0000E+00  0.3200E+02
     13.027  0.0000E+00  0.3200E+02
     13.151  0.0000E+00  0.3200E+02
     13.274  0.0000E+00  0.3200E+02
     13.398  0.0000E+00  0.3200E+02
     13.522  0.0000E+00  0.3200E+02
     13.645  0.0000E+00  0.3200E+02
     13.769  0.3293E-01  0.3200E+02
     13.892  0.2922E+00  0.3202E+02
     14.016  0.5898E+00  0.3208E+02
     14.140  0.5723E+00  0.3215E+02
     14.263  0.6545E+00  0.3223E+02
     14.387  0.7556E+00  0.3231E+02
     14.510  0.8387E+00  0.3241E+02
     14.634  0.9489E+00  0.3252E+02
     14.757  0.1044E+01  0.3265E+02
     14.881  0.1265E+01  0.3279E+02
     15.005  0.1355E+01  0.3296E+02
     15.128  0.1380E+01  0.3313E+02
     15.252  0.1479E+01  0.3330E+02
     15.375  0.1570E+01  0.3349E+02
     15.499  0.1658E+01  0.3369E+02
     15.623  0.1760E+01  0.3390E+02
     15.746  0.1896E+01  0.3413E+02
     15.870  0.1995E+01  0.3437E+02
     15.993  0.2104E+01  0.3462E+02
     16.117  0.2201E+01  0.3489E+02
     16.241  0.2151E+01  0.3517E+02
     16.364  0.2175E+01  0.3543E+02
     16.488  0.2271E+01  0.3571E+02
     16.611  0.2384E+01  0.3600E+02
     16.735  0.2518E+01  0.3630E+02
     16.859  0.2677E+01  0.3662E+02
     16.982  0.2817E+01  0.3696E+02
     17.106  0.3323E+01  0.3733E+02
     17.229  0.3236E+01  0.3774E+02
     17.353  0.3363E+01  0.3814E+02
     17.476  0.4016E+01  0.3859E+02
     17.600  0.3682E+01  0.3908E+02
     17.724  0.4331E+01  0.3957E+02
     17.847  0.4257E+01  0.4012E+02
     17.971  0.3508E+01  0.4062E+02
     18.094  0.3491E+01  0.4106E+02
     18.218  0.3469E+01  0.4150E+02
     18.342  0.3075E+01  0.4191E+02
     18.465  0.3229E+01  0.4229E+02
     18.589  0.3116E+01  0.4269E+02
     18.712  0.2941E+01  0.4306E+02
     18.836  0.3013E+01  0.4342E+02
     18.960  0.3322E+01  0.4381E+02
     19.083  0.3133E+01  0.4422E+02
     19.207  0.2920E+01  0.4460E+02
     19.330  0.2812E+01  0.4495E+02
     19.454  0.2798E+01  0.4529E+02
     19.578  0.2808E+01  0.4564E+02
     19.701  0.2888E+01  0.4599E+02
     19.825  0.2795E+01  0.4635E+02
     19.948  0.2684E+01  0.4668E+02
     20.072  0.2610E+01  0.4701E+02
     20.195  0.2206E+01  0.4732E+02
     20.319  0.1693E+01  0.4756E+02
     20.443  0.1117E+01  0.4773E+02
     20.566  0.6693E+00  0.4784E+02
     20.690  0.3613E+00  0.4790E+02
     20.813  0.2246E+00  0.4794E+02
     20.937  0.1368E+00  0.4796E+02
     21.061  0.9331E-01  0.4797E+02
     21.184  0.7448E-01  0.4798E+02
     21.308  0.4405E-01  0.4799E+02
     21.431  0.2580E-01  0.4800E+02
     21.555  0.1555E-01  0.4800E+02
     21.679  0.7675E-02  0.4800E+02
     21.802  0.2553E-02  0.4800E+02
     21.926  0.1807E-03  0.4800E+02
     22.049  0.0000E+00  0.4800E+02
     22.173  0.0000E+00  0.4800E+02
     22.297  0.0000E+00  0.4800E+02
     22.420  0.0000E+00  0.4800E+02
     22.544  0.0000E+00  0.4800E+02
     22.667  0.0000E+00  0.4800E+02
     22.791  0.0000E+00  0.4800E+02
     22.914  0.0000E+00  0.4800E+02
     23.038  0.0000E+00  0.4800E+02
     23.162  0.0000E+00  0.4800E+02
     23.285  0.0000E+00  0.4800E+02
     23.409  0.0000E+00  0.4800E+02
     23.532  0.0000E+00  0.4800E+02
     23.656  0.0000E+00  0.4800E+02
