       N       E                     dE             d eps       ncg     rms          rms(c)
DAV:   1     0.583487304597E+02    0.58349E+02   -0.14414E+04  9080   0.106E+03
DAV:   2    -0.708096994620E+02   -0.12916E+03   -0.12235E+03 12464   0.222E+02
DAV:   3    -0.750152698899E+02   -0.42056E+01   -0.41855E+01 11904   0.376E+01
DAV:   4    -0.750573408254E+02   -0.42071E-01   -0.42033E-01 11280   0.413E+00
DAV:   5    -0.750581531132E+02   -0.81229E-03   -0.81179E-03 11920   0.521E-01    0.950E+00
DAV:   6    -0.731548629491E+02    0.19033E+01   -0.12668E+00 10344   0.645E+00    0.521E+00
DAV:   7    -0.725138064765E+02    0.64106E+00   -0.14412E+00 10744   0.707E+00    0.702E-01
DAV:   8    -0.725214794870E+02   -0.76730E-02   -0.31956E-02 11464   0.105E+00    0.780E-02
DAV:   9    -0.725217095164E+02   -0.23003E-03   -0.45501E-04 11040   0.145E-01    0.306E-02
DAV:  10    -0.725217671857E+02   -0.57669E-04   -0.43965E-05 11352   0.498E-02    0.320E-03
DAV:  11    -0.725217686795E+02   -0.14938E-05   -0.12391E-06  8560   0.834E-03    0.832E-04
DAV:  12    -0.725217686022E+02    0.77340E-07   -0.11962E-07  8208   0.242E-03
   1 F= -.72521769E+02 E0= -.72521769E+02  d E =0.000000E+00
