<?xml version="1.0" encoding="ISO-8859-1"?>
<modeling>
 <generator>
  <i name="program" type="string">vasp </i>
  <i name="version" type="string">5.4.4.18Apr17-6-g9f103f2a35  </i>
  <i name="subversion" type="string">(build Mar 12 2022 03:36:41) complex            parallel </i>
  <i name="platform" type="string">IFC19.0.3.199_CrayMPICH7.7.19 </i>
  <i name="date" type="string">2022 11 30 </i>
  <i name="time" type="string">12:38:58 </i>
 </generator>
 <incar>
  <i type="int" name="ISTART">     0</i>
  <i type="string" name="PREC">accurate</i>
  <i name="EDIFF">      0.00000100</i>
  <i name="POTIM">      0.02000000</i>
  <i type="int" name="ISMEAR">    -5</i>
  <i name="SIGMA">      0.06000000</i>
  <i type="logical" name="LWAVE"> F  </i>
  <i type="logical" name="LCHARG"> F  </i>
  <v type="int" name="KPOINT_BSE">    -1     0     0     0</v>
 </incar>
 <structure name="primitive_cell" >
  <crystal>
   <varray name="basis" >
    <v>      -0.10721100       1.73081200       1.78519650 </v>
    <v>       1.73324950      -0.05523850       1.78519650 </v>
    <v>       1.73324950       1.78605050       0.00000000 </v>
   </varray>
   <i name="volume">     11.39459959 </i>
   <varray name="rec_basis" >
    <v>      -0.27982125       0.27154890       0.28008121 </v>
    <v>       0.27982125      -0.27154890       0.28008121 </v>
    <v>       0.27982125       0.28834569      -0.26275665 </v>
   </varray>
  </crystal>
  <varray name="positions" >
   <v>      -0.25000000      -0.25000000      -0.25000000 </v>
   <v>      -0.50000000      -0.50000000      -0.50000000 </v>
  </varray>
 </structure>
 <varray name="primitive_index" >
  <v type="int" >        1 </v>
  <v type="int" >        4 </v>
 </varray>
 <kpoints>
  <generation param="Gamma">
   <v type="int" name="divisions">      12       12       12 </v>
   <v name="usershift">      0.00000000       0.00000000       0.00000000 </v>
   <v name="genvec1">      0.08333333       0.00000000      -0.00000000 </v>
   <v name="genvec2">      0.00000000       0.08333333       0.00000000 </v>
   <v name="genvec3">      0.00000000       0.00000000       0.08333333 </v>
   <v name="shift">      0.00000000       0.00000000       0.00000000 </v>
  </generation>
  <varray name="kpointlist" >
   <v>       0.00000000       0.00000000       0.00000000 </v>
   <v>       0.08333333       0.00000000       0.00000000 </v>
   <v>       0.16666667       0.00000000       0.00000000 </v>
   <v>       0.25000000       0.00000000       0.00000000 </v>
   <v>       0.33333333       0.00000000      -0.00000000 </v>
   <v>       0.41666667       0.00000000      -0.00000000 </v>
   <v>       0.50000000       0.00000000       0.00000000 </v>
   <v>       0.08333333       0.08333333       0.00000000 </v>
   <v>       0.16666667       0.08333333       0.00000000 </v>
   <v>       0.25000000       0.08333333       0.00000000 </v>
   <v>       0.33333333       0.08333333       0.00000000 </v>
   <v>       0.41666667       0.08333333       0.00000000 </v>
   <v>       0.50000000       0.08333333       0.00000000 </v>
   <v>      -0.41666667       0.08333333       0.00000000 </v>
   <v>      -0.33333333       0.08333333      -0.00000000 </v>
   <v>      -0.25000000       0.08333333      -0.00000000 </v>
   <v>      -0.16666667       0.08333333      -0.00000000 </v>
   <v>      -0.08333333       0.08333333      -0.00000000 </v>
   <v>       0.16666667       0.16666667       0.00000000 </v>
   <v>       0.25000000       0.16666667      -0.00000000 </v>
   <v>       0.33333333       0.16666667       0.00000000 </v>
   <v>       0.41666667       0.16666667       0.00000000 </v>
   <v>       0.50000000       0.16666667       0.00000000 </v>
   <v>      -0.41666667       0.16666667      -0.00000000 </v>
   <v>      -0.33333333       0.16666667      -0.00000000 </v>
   <v>      -0.25000000       0.16666667      -0.00000000 </v>
   <v>      -0.16666667       0.16666667      -0.00000000 </v>
   <v>       0.25000000       0.25000000       0.00000000 </v>
   <v>       0.33333333       0.25000000      -0.00000000 </v>
   <v>       0.41666667       0.25000000      -0.00000000 </v>
   <v>       0.50000000       0.25000000       0.00000000 </v>
   <v>      -0.41666667       0.25000000      -0.00000000 </v>
   <v>      -0.33333333       0.25000000      -0.00000000 </v>
   <v>      -0.25000000       0.25000000      -0.00000000 </v>
   <v>       0.33333333       0.33333333      -0.00000000 </v>
   <v>       0.41666667       0.33333333       0.00000000 </v>
   <v>       0.50000000       0.33333333       0.00000000 </v>
   <v>      -0.41666667       0.33333333      -0.00000000 </v>
   <v>      -0.33333333       0.33333333      -0.00000000 </v>
   <v>       0.41666667       0.41666667       0.00000000 </v>
   <v>       0.50000000       0.41666667       0.00000000 </v>
   <v>      -0.41666667       0.41666667      -0.00000000 </v>
   <v>       0.50000000       0.50000000       0.00000000 </v>
   <v>       0.08333333       0.08333333       0.08333333 </v>
   <v>       0.16666667       0.08333333       0.08333333 </v>
   <v>       0.25000000       0.08333333       0.08333333 </v>
   <v>       0.33333333       0.08333333       0.08333333 </v>
   <v>       0.41666667       0.08333333       0.08333333 </v>
   <v>       0.50000000       0.08333333       0.08333333 </v>
   <v>      -0.41666667       0.08333333       0.08333333 </v>
   <v>      -0.33333333       0.08333333       0.08333333 </v>
   <v>      -0.25000000       0.08333333       0.08333333 </v>
   <v>      -0.16666667       0.08333333       0.08333333 </v>
   <v>      -0.08333333       0.08333333       0.08333333 </v>
   <v>       0.16666667       0.16666667       0.08333333 </v>
   <v>       0.25000000       0.16666667       0.08333333 </v>
   <v>       0.33333333       0.16666667       0.08333333 </v>
   <v>       0.41666667       0.16666667       0.08333333 </v>
   <v>       0.50000000       0.16666667       0.08333333 </v>
   <v>      -0.41666667       0.16666667       0.08333333 </v>
   <v>      -0.33333333       0.16666667       0.08333333 </v>
   <v>      -0.25000000       0.16666667       0.08333333 </v>
   <v>      -0.16666667       0.16666667       0.08333333 </v>
   <v>      -0.08333333       0.16666667       0.08333333 </v>
   <v>       0.25000000       0.25000000       0.08333333 </v>
   <v>       0.33333333       0.25000000       0.08333333 </v>
   <v>       0.41666667       0.25000000       0.08333333 </v>
   <v>       0.50000000       0.25000000       0.08333333 </v>
   <v>      -0.41666667       0.25000000       0.08333333 </v>
   <v>      -0.33333333       0.25000000       0.08333333 </v>
   <v>      -0.25000000       0.25000000       0.08333333 </v>
   <v>      -0.16666667       0.25000000       0.08333333 </v>
   <v>      -0.08333333       0.25000000       0.08333333 </v>
   <v>       0.33333333       0.33333333       0.08333333 </v>
   <v>       0.41666667       0.33333333       0.08333333 </v>
   <v>       0.50000000       0.33333333       0.08333333 </v>
   <v>      -0.41666667       0.33333333       0.08333333 </v>
   <v>      -0.33333333       0.33333333       0.08333333 </v>
   <v>      -0.25000000       0.33333333       0.08333333 </v>
   <v>      -0.16666667       0.33333333       0.08333333 </v>
   <v>      -0.08333333       0.33333333       0.08333333 </v>
   <v>       0.41666667       0.41666667       0.08333333 </v>
   <v>       0.50000000       0.41666667       0.08333333 </v>
   <v>      -0.41666667       0.41666667       0.08333333 </v>
   <v>      -0.33333333       0.41666667       0.08333333 </v>
   <v>      -0.25000000       0.41666667       0.08333333 </v>
   <v>      -0.16666667       0.41666667       0.08333333 </v>
   <v>      -0.08333333       0.41666667       0.08333333 </v>
   <v>       0.50000000       0.50000000       0.08333333 </v>
   <v>      -0.41666667       0.50000000       0.08333333 </v>
   <v>      -0.33333333       0.50000000       0.08333333 </v>
   <v>      -0.25000000       0.50000000       0.08333333 </v>
   <v>      -0.16666667       0.50000000       0.08333333 </v>
   <v>      -0.08333333       0.50000000       0.08333333 </v>
   <v>      -0.41666667      -0.41666667       0.08333333 </v>
   <v>      -0.33333333      -0.41666667       0.08333333 </v>
   <v>      -0.25000000      -0.41666667       0.08333333 </v>
   <v>      -0.16666667      -0.41666667       0.08333333 </v>
   <v>      -0.33333333      -0.33333333       0.08333333 </v>
   <v>      -0.25000000      -0.33333333       0.08333333 </v>
   <v>      -0.16666667      -0.33333333       0.08333333 </v>
   <v>      -0.25000000      -0.25000000       0.08333333 </v>
   <v>      -0.16666667      -0.25000000       0.08333333 </v>
   <v>      -0.16666667      -0.16666667       0.08333333 </v>
   <v>       0.16666667       0.16666667       0.16666667 </v>
   <v>       0.25000000       0.16666667       0.16666667 </v>
   <v>       0.33333333       0.16666667       0.16666667 </v>
   <v>       0.41666667       0.16666667       0.16666667 </v>
   <v>       0.50000000       0.16666667       0.16666667 </v>
   <v>      -0.41666667       0.16666667       0.16666667 </v>
   <v>      -0.33333333       0.16666667       0.16666667 </v>
   <v>      -0.25000000       0.16666667       0.16666667 </v>
   <v>      -0.16666667       0.16666667       0.16666667 </v>
   <v>       0.25000000       0.25000000       0.16666667 </v>
   <v>       0.33333333       0.25000000       0.16666667 </v>
   <v>       0.41666667       0.25000000       0.16666667 </v>
   <v>       0.50000000       0.25000000       0.16666667 </v>
   <v>      -0.41666667       0.25000000       0.16666667 </v>
   <v>      -0.33333333       0.25000000       0.16666667 </v>
   <v>      -0.25000000       0.25000000       0.16666667 </v>
   <v>      -0.16666667       0.25000000       0.16666667 </v>
   <v>       0.33333333       0.33333333       0.16666667 </v>
   <v>       0.41666667       0.33333333       0.16666667 </v>
   <v>       0.50000000       0.33333333       0.16666667 </v>
   <v>      -0.41666667       0.33333333       0.16666667 </v>
   <v>      -0.33333333       0.33333333       0.16666667 </v>
   <v>      -0.25000000       0.33333333       0.16666667 </v>
   <v>      -0.16666667       0.33333333       0.16666667 </v>
   <v>       0.41666667       0.41666667       0.16666667 </v>
   <v>       0.50000000       0.41666667       0.16666667 </v>
   <v>      -0.41666667       0.41666667       0.16666667 </v>
   <v>      -0.33333333       0.41666667       0.16666667 </v>
   <v>      -0.25000000       0.41666667       0.16666667 </v>
   <v>      -0.16666667       0.41666667       0.16666667 </v>
   <v>       0.50000000       0.50000000       0.16666667 </v>
   <v>      -0.41666667       0.50000000       0.16666667 </v>
   <v>      -0.33333333       0.50000000       0.16666667 </v>
   <v>      -0.25000000       0.50000000       0.16666667 </v>
   <v>      -0.16666667       0.50000000       0.16666667 </v>
   <v>      -0.41666667      -0.41666667       0.16666667 </v>
   <v>      -0.33333333      -0.41666667       0.16666667 </v>
   <v>      -0.25000000      -0.41666667       0.16666667 </v>
   <v>      -0.33333333      -0.33333333       0.16666667 </v>
   <v>      -0.25000000      -0.33333333       0.16666667 </v>
   <v>      -0.25000000      -0.25000000       0.16666667 </v>
   <v>       0.25000000       0.25000000       0.25000000 </v>
   <v>       0.33333333       0.25000000       0.25000000 </v>
   <v>       0.41666667       0.25000000       0.25000000 </v>
   <v>       0.50000000       0.25000000       0.25000000 </v>
   <v>      -0.41666667       0.25000000       0.25000000 </v>
   <v>      -0.33333333       0.25000000       0.25000000 </v>
   <v>      -0.25000000       0.25000000       0.25000000 </v>
   <v>       0.33333333       0.33333333       0.25000000 </v>
   <v>       0.41666667       0.33333333       0.25000000 </v>
   <v>       0.50000000       0.33333333       0.25000000 </v>
   <v>      -0.41666667       0.33333333       0.25000000 </v>
   <v>      -0.33333333       0.33333333       0.25000000 </v>
   <v>      -0.25000000       0.33333333       0.25000000 </v>
   <v>       0.41666667       0.41666667       0.25000000 </v>
   <v>       0.50000000       0.41666667       0.25000000 </v>
   <v>      -0.41666667       0.41666667       0.25000000 </v>
   <v>      -0.33333333       0.41666667       0.25000000 </v>
   <v>      -0.25000000       0.41666667       0.25000000 </v>
   <v>       0.50000000       0.50000000       0.25000000 </v>
   <v>      -0.41666667       0.50000000       0.25000000 </v>
   <v>      -0.33333333       0.50000000       0.25000000 </v>
   <v>      -0.25000000       0.50000000       0.25000000 </v>
   <v>      -0.41666667      -0.41666667       0.25000000 </v>
   <v>      -0.33333333      -0.41666667       0.25000000 </v>
   <v>      -0.33333333      -0.33333333       0.25000000 </v>
   <v>       0.33333333       0.33333333       0.33333333 </v>
   <v>       0.41666667       0.33333333       0.33333333 </v>
   <v>       0.50000000       0.33333333       0.33333333 </v>
   <v>      -0.41666667       0.33333333       0.33333333 </v>
   <v>      -0.33333333       0.33333333       0.33333333 </v>
   <v>       0.41666667       0.41666667       0.33333333 </v>
   <v>       0.50000000       0.41666667       0.33333333 </v>
   <v>      -0.41666667       0.41666667       0.33333333 </v>
   <v>      -0.33333333       0.41666667       0.33333333 </v>
   <v>       0.50000000       0.50000000       0.33333333 </v>
   <v>      -0.41666667       0.50000000       0.33333333 </v>
   <v>      -0.33333333       0.50000000       0.33333333 </v>
   <v>      -0.41666667      -0.41666667       0.33333333 </v>
   <v>       0.41666667       0.41666667       0.41666667 </v>
   <v>       0.50000000       0.41666667       0.41666667 </v>
   <v>      -0.41666667       0.41666667       0.41666667 </v>
   <v>       0.50000000       0.50000000       0.41666667 </v>
   <v>      -0.41666667       0.50000000       0.41666667 </v>
   <v>       0.50000000       0.50000000       0.50000000 </v>
  </varray>
  <varray name="weights" >
   <v>       0.00057870 </v>
   <v>       0.00347222 </v>
   <v>       0.00347222 </v>
   <v>       0.00347222 </v>
   <v>       0.00347222 </v>
   <v>       0.00347222 </v>
   <v>       0.00173611 </v>
   <v>       0.00347222 </v>
   <v>       0.00694444 </v>
   <v>       0.00694444 </v>
   <v>       0.00694444 </v>
   <v>       0.00694444 </v>
   <v>       0.00694444 </v>
   <v>       0.00694444 </v>
   <v>       0.00694444 </v>
   <v>       0.00694444 </v>
   <v>       0.00694444 </v>
   <v>       0.00347222 </v>
   <v>       0.00347222 </v>
   <v>       0.00694444 </v>
   <v>       0.00694444 </v>
   <v>       0.00694444 </v>
   <v>       0.00694444 </v>
   <v>       0.00694444 </v>
   <v>       0.00694444 </v>
   <v>       0.00694444 </v>
   <v>       0.00347222 </v>
   <v>       0.00347222 </v>
   <v>       0.00694444 </v>
   <v>       0.00694444 </v>
   <v>       0.00694444 </v>
   <v>       0.00694444 </v>
   <v>       0.00694444 </v>
   <v>       0.00347222 </v>
   <v>       0.00347222 </v>
   <v>       0.00694444 </v>
   <v>       0.00694444 </v>
   <v>       0.00694444 </v>
   <v>       0.00347222 </v>
   <v>       0.00347222 </v>
   <v>       0.00694444 </v>
   <v>       0.00347222 </v>
   <v>       0.00173611 </v>
   <v>       0.00115741 </v>
   <v>       0.00347222 </v>
   <v>       0.00347222 </v>
   <v>       0.00347222 </v>
   <v>       0.00347222 </v>
   <v>       0.00347222 </v>
   <v>       0.00347222 </v>
   <v>       0.00347222 </v>
   <v>       0.00347222 </v>
   <v>       0.00347222 </v>
   <v>       0.00347222 </v>
   <v>       0.00347222 </v>
   <v>       0.00694444 </v>
   <v>       0.00694444 </v>
   <v>       0.00694444 </v>
   <v>       0.00694444 </v>
   <v>       0.00694444 </v>
   <v>       0.00694444 </v>
   <v>       0.00694444 </v>
   <v>       0.00694444 </v>
   <v>       0.00694444 </v>
   <v>       0.00347222 </v>
   <v>       0.00694444 </v>
   <v>       0.00694444 </v>
   <v>       0.00694444 </v>
   <v>       0.00694444 </v>
   <v>       0.00694444 </v>
   <v>       0.00694444 </v>
   <v>       0.00694444 </v>
   <v>       0.00694444 </v>
   <v>       0.00347222 </v>
   <v>       0.00694444 </v>
   <v>       0.00694444 </v>
   <v>       0.00694444 </v>
   <v>       0.00694444 </v>
   <v>       0.00694444 </v>
   <v>       0.00694444 </v>
   <v>       0.00694444 </v>
   <v>       0.00347222 </v>
   <v>       0.00694444 </v>
   <v>       0.00694444 </v>
   <v>       0.00694444 </v>
   <v>       0.00694444 </v>
   <v>       0.00694444 </v>
   <v>       0.00694444 </v>
   <v>       0.00347222 </v>
   <v>       0.00694444 </v>
   <v>       0.00694444 </v>
   <v>       0.00694444 </v>
   <v>       0.00694444 </v>
   <v>       0.00347222 </v>
   <v>       0.00347222 </v>
   <v>       0.00694444 </v>
   <v>       0.00694444 </v>
   <v>       0.00694444 </v>
   <v>       0.00347222 </v>
   <v>       0.00694444 </v>
   <v>       0.00694444 </v>
   <v>       0.00347222 </v>
   <v>       0.00694444 </v>
   <v>       0.00347222 </v>
   <v>       0.00115741 </v>
   <v>       0.00347222 </v>
   <v>       0.00347222 </v>
   <v>       0.00347222 </v>
   <v>       0.00347222 </v>
   <v>       0.00347222 </v>
   <v>       0.00347222 </v>
   <v>       0.00347222 </v>
   <v>       0.00347222 </v>
   <v>       0.00347222 </v>
   <v>       0.00694444 </v>
   <v>       0.00694444 </v>
   <v>       0.00694444 </v>
   <v>       0.00694444 </v>
   <v>       0.00694444 </v>
   <v>       0.00694444 </v>
   <v>       0.00694444 </v>
   <v>       0.00347222 </v>
   <v>       0.00694444 </v>
   <v>       0.00694444 </v>
   <v>       0.00694444 </v>
   <v>       0.00694444 </v>
   <v>       0.00694444 </v>
   <v>       0.00694444 </v>
   <v>       0.00347222 </v>
   <v>       0.00694444 </v>
   <v>       0.00694444 </v>
   <v>       0.00694444 </v>
   <v>       0.00694444 </v>
   <v>       0.00694444 </v>
   <v>       0.00347222 </v>
   <v>       0.00694444 </v>
   <v>       0.00694444 </v>
   <v>       0.00694444 </v>
   <v>       0.00347222 </v>
   <v>       0.00347222 </v>
   <v>       0.00694444 </v>
   <v>       0.00694444 </v>
   <v>       0.00347222 </v>
   <v>       0.00694444 </v>
   <v>       0.00347222 </v>
   <v>       0.00115741 </v>
   <v>       0.00347222 </v>
   <v>       0.00347222 </v>
   <v>       0.00347222 </v>
   <v>       0.00347222 </v>
   <v>       0.00347222 </v>
   <v>       0.00347222 </v>
   <v>       0.00347222 </v>
   <v>       0.00694444 </v>
   <v>       0.00694444 </v>
   <v>       0.00694444 </v>
   <v>       0.00694444 </v>
   <v>       0.00694444 </v>
   <v>       0.00347222 </v>
   <v>       0.00694444 </v>
   <v>       0.00694444 </v>
   <v>       0.00694444 </v>
   <v>       0.00694444 </v>
   <v>       0.00347222 </v>
   <v>       0.00694444 </v>
   <v>       0.00694444 </v>
   <v>       0.00347222 </v>
   <v>       0.00347222 </v>
   <v>       0.00694444 </v>
   <v>       0.00347222 </v>
   <v>       0.00115741 </v>
   <v>       0.00347222 </v>
   <v>       0.00347222 </v>
   <v>       0.00347222 </v>
   <v>       0.00347222 </v>
   <v>       0.00347222 </v>
   <v>       0.00694444 </v>
   <v>       0.00694444 </v>
   <v>       0.00694444 </v>
   <v>       0.00347222 </v>
   <v>       0.00694444 </v>
   <v>       0.00347222 </v>
   <v>       0.00347222 </v>
   <v>       0.00115741 </v>
   <v>       0.00347222 </v>
   <v>       0.00347222 </v>
   <v>       0.00347222 </v>
   <v>       0.00347222 </v>
   <v>       0.00057870 </v>
  </varray>
  <varray name="tetrahedronlist"  type="int" >
   <v type="int" >        4        1        2        2        8 </v>
   <v type="int" >        4        2        2        8        8 </v>
   <v type="int" >        4        2        8        8       44 </v>
   <v type="int" >        4        2        3        8        9 </v>
   <v type="int" >        4        2        8        8        9 </v>
   <v type="int" >        4        8        8        9       44 </v>
   <v type="int" >        4        3        8        9        9 </v>
   <v type="int" >        8        8        9        9       45 </v>
   <v type="int" >        8        8        9       44       45 </v>
   <v type="int" >        4        3        4        9       10 </v>
   <v type="int" >        4        3        9        9       10 </v>
   <v type="int" >        4        9        9       10       45 </v>
   <v type="int" >        4        4        9       10       10 </v>
   <v type="int" >        4        9       10       10       46 </v>
   <v type="int" >        4        9       10       45       46 </v>
   <v type="int" >        4        4        5       10       11 </v>
   <v type="int" >        4        4       10       10       11 </v>
   <v type="int" >        4       10       10       11       46 </v>
   <v type="int" >        4        5       10       11       11 </v>
   <v type="int" >        4       10       11       11       47 </v>
   <v type="int" >        4       10       11       46       47 </v>
   <v type="int" >        4        5        6       11       12 </v>
   <v type="int" >        4        5       11       11       12 </v>
   <v type="int" >        4       11       11       12       47 </v>
   <v type="int" >        4        6       11       12       12 </v>
   <v type="int" >        4       11       12       12       48 </v>
   <v type="int" >        4       11       12       47       48 </v>
   <v type="int" >        8        6        7       12       13 </v>
   <v type="int" >        4        6       12       12       13 </v>
   <v type="int" >        4       12       12       13       48 </v>
   <v type="int" >        8        7       12       13       13 </v>
   <v type="int" >        4       12       13       13       49 </v>
   <v type="int" >        4       12       13       48       49 </v>
   <v type="int" >        4        6        7       13       14 </v>
   <v type="int" >        4        7       13       13       14 </v>
   <v type="int" >        4       13       13       14       49 </v>
   <v type="int" >        4        6       13       14       14 </v>
   <v type="int" >        4       13       14       14       50 </v>
   <v type="int" >        4       13       14       49       50 </v>
   <v type="int" >        4        5        6       14       15 </v>
   <v type="int" >        4        6       14       14       15 </v>
   <v type="int" >        4       14       14       15       50 </v>
   <v type="int" >        4        5       14       15       15 </v>
   <v type="int" >        4       14       15       15       51 </v>
   <v type="int" >        4       14       15       50       51 </v>
   <v type="int" >        4        4        5       15       16 </v>
   <v type="int" >        4        5       15       15       16 </v>
   <v type="int" >        4       15       15       16       51 </v>
   <v type="int" >        4        4       15       16       16 </v>
   <v type="int" >        4       15       16       16       52 </v>
   <v type="int" >        4       15       16       51       52 </v>
   <v type="int" >        4        3        4       16       17 </v>
   <v type="int" >        4        4       16       16       17 </v>
   <v type="int" >        4       16       16       17       52 </v>
   <v type="int" >        4        3       16       17       17 </v>
   <v type="int" >        4       16       17       17       53 </v>
   <v type="int" >        4       16       17       52       53 </v>
   <v type="int" >        4        2        3       17       18 </v>
   <v type="int" >        4        3       17       17       18 </v>
   <v type="int" >        8       17       17       18       53 </v>
   <v type="int" >        4        2       17       18       18 </v>
   <v type="int" >        4       17       18       18       54 </v>
   <v type="int" >        8       17       18       53       54 </v>
   <v type="int" >        8        1        2        2       18 </v>
   <v type="int" >        4        2        2       18       18 </v>
   <v type="int" >        4        2       18       18       54 </v>
   <v type="int" >        4        2        2        8       18 </v>
   <v type="int" >        4        2        8       18       54 </v>
   <v type="int" >        4        8        9       19       44 </v>
   <v type="int" >        4        9       19       44       45 </v>
   <v type="int" >        4       19       44       45       55 </v>
   <v type="int" >        4        9       10       20       45 </v>
   <v type="int" >        4        9       19       20       45 </v>
   <v type="int" >        4       19       20       45       55 </v>
   <v type="int" >        4       10       20       45       46 </v>
   <v type="int" >        4       20       45       46       56 </v>
   <v type="int" >        4       20       45       55       56 </v>
   <v type="int" >        4       10       11       21       46 </v>
   <v type="int" >        4       10       20       21       46 </v>
   <v type="int" >        4       20       21       46       56 </v>
   <v type="int" >        4       11       21       46       47 </v>
   <v type="int" >        4       21       46       47       57 </v>
   <v type="int" >        4       21       46       56       57 </v>
   <v type="int" >        4       11       12       22       47 </v>
   <v type="int" >        4       11       21       22       47 </v>
   <v type="int" >        4       21       22       47       57 </v>
   <v type="int" >        4       12       22       47       48 </v>
   <v type="int" >        4       22       47       48       58 </v>
   <v type="int" >        4       22       47       57       58 </v>
   <v type="int" >        4       12       13       23       48 </v>
   <v type="int" >        4       12       22       23       48 </v>
   <v type="int" >        4       22       23       48       58 </v>
   <v type="int" >        4       13       23       48       49 </v>
   <v type="int" >        4       23       48       49       59 </v>
   <v type="int" >        4       23       48       58       59 </v>
   <v type="int" >        4       13       14       24       49 </v>
   <v type="int" >        4       13       23       24       49 </v>
   <v type="int" >        4       23       24       49       59 </v>
   <v type="int" >        4       14       24       49       50 </v>
   <v type="int" >        4       24       49       50       60 </v>
   <v type="int" >        4       24       49       59       60 </v>
   <v type="int" >        4       14       15       25       50 </v>
   <v type="int" >        4       14       24       25       50 </v>
   <v type="int" >        4       24       25       50       60 </v>
   <v type="int" >        4       15       25       50       51 </v>
   <v type="int" >        4       25       50       51       61 </v>
   <v type="int" >        4       25       50       60       61 </v>
   <v type="int" >        4       15       16       26       51 </v>
   <v type="int" >        4       15       25       26       51 </v>
   <v type="int" >        4       25       26       51       61 </v>
   <v type="int" >        4       16       26       51       52 </v>
   <v type="int" >        4       26       51       52       62 </v>
   <v type="int" >        4       26       51       61       62 </v>
   <v type="int" >        4       16       17       27       52 </v>
   <v type="int" >        4       16       26       27       52 </v>
   <v type="int" >        4       26       27       52       62 </v>
   <v type="int" >        4       17       27       52       53 </v>
   <v type="int" >        4       27       52       53       63 </v>
   <v type="int" >        4       27       52       62       63 </v>
   <v type="int" >        4       17       17       27       53 </v>
   <v type="int" >        4       17       27       53       63 </v>
   <v type="int" >        4       17       53       54       64 </v>
   <v type="int" >        4       17       53       63       64 </v>
   <v type="int" >        4        2        3       18       54 </v>
   <v type="int" >        4        3       17       18       54 </v>
   <v type="int" >        4        3       17       54       64 </v>
   <v type="int" >        4        2        3        8       54 </v>
   <v type="int" >        4        3        8        9       54 </v>
   <v type="int" >        4        3        9       54       64 </v>
   <v type="int" >        4       19       20       28       55 </v>
   <v type="int" >        4       20       28       55       56 </v>
   <v type="int" >        4       28       55       56       65 </v>
   <v type="int" >        4       20       21       29       56 </v>
   <v type="int" >        4       20       28       29       56 </v>
   <v type="int" >        4       28       29       56       65 </v>
   <v type="int" >        4       21       29       56       57 </v>
   <v type="int" >        4       29       56       57       66 </v>
   <v type="int" >        4       29       56       65       66 </v>
   <v type="int" >        4       21       22       30       57 </v>
   <v type="int" >        4       21       29       30       57 </v>
   <v type="int" >        4       29       30       57       66 </v>
   <v type="int" >        4       22       30       57       58 </v>
   <v type="int" >        4       30       57       58       67 </v>
   <v type="int" >        4       30       57       66       67 </v>
   <v type="int" >        4       22       23       31       58 </v>
   <v type="int" >        4       22       30       31       58 </v>
   <v type="int" >        4       30       31       58       67 </v>
   <v type="int" >        4       23       31       58       59 </v>
   <v type="int" >        4       31       58       59       68 </v>
   <v type="int" >        4       31       58       67       68 </v>
   <v type="int" >        4       23       24       32       59 </v>
   <v type="int" >        4       23       31       32       59 </v>
   <v type="int" >        4       31       32       59       68 </v>
   <v type="int" >        4       24       32       59       60 </v>
   <v type="int" >        4       32       59       60       69 </v>
   <v type="int" >        4       32       59       68       69 </v>
   <v type="int" >        4       24       25       33       60 </v>
   <v type="int" >        4       24       32       33       60 </v>
   <v type="int" >        4       32       33       60       69 </v>
   <v type="int" >        4       25       33       60       61 </v>
   <v type="int" >        4       33       60       61       70 </v>
   <v type="int" >        4       33       60       69       70 </v>
   <v type="int" >        4       25       26       34       61 </v>
   <v type="int" >        4       25       33       34       61 </v>
   <v type="int" >        4       33       34       61       70 </v>
   <v type="int" >        4       26       34       61       62 </v>
   <v type="int" >        4       34       61       62       71 </v>
   <v type="int" >        4       34       61       70       71 </v>
   <v type="int" >        4       26       26       27       62 </v>
   <v type="int" >        4       26       26       34       62 </v>
   <v type="int" >        4       26       34       62       71 </v>
   <v type="int" >        4       26       27       62       63 </v>
   <v type="int" >        4       26       62       63       72 </v>
   <v type="int" >        4       26       62       71       72 </v>
   <v type="int" >        4       16       17       27       63 </v>
   <v type="int" >        4       16       26       27       63 </v>
   <v type="int" >        4       16       26       63       72 </v>
   <v type="int" >        4       16       17       63       64 </v>
   <v type="int" >        4       16       63       64       73 </v>
   <v type="int" >        4       16       63       72       73 </v>
   <v type="int" >        4        3        4       17       64 </v>
   <v type="int" >        4        4       16       17       64 </v>
   <v type="int" >        4        4       16       64       73 </v>
   <v type="int" >        4        3        4        9       64 </v>
   <v type="int" >        4        4        9       10       64 </v>
   <v type="int" >        4        4       10       64       73 </v>
   <v type="int" >        4       28       29       35       65 </v>
   <v type="int" >        4       29       35       65       66 </v>
   <v type="int" >        4       35       65       66       74 </v>
   <v type="int" >        4       29       30       36       66 </v>
   <v type="int" >        4       29       35       36       66 </v>
   <v type="int" >        4       35       36       66       74 </v>
   <v type="int" >        4       30       36       66       67 </v>
   <v type="int" >        4       36       66       67       75 </v>
   <v type="int" >        4       36       66       74       75 </v>
   <v type="int" >        4       30       31       37       67 </v>
   <v type="int" >        4       30       36       37       67 </v>
   <v type="int" >        4       36       37       67       75 </v>
   <v type="int" >        4       31       37       67       68 </v>
   <v type="int" >        4       37       67       68       76 </v>
   <v type="int" >        4       37       67       75       76 </v>
   <v type="int" >        4       31       32       38       68 </v>
   <v type="int" >        4       31       37       38       68 </v>
   <v type="int" >        4       37       38       68       76 </v>
   <v type="int" >        4       32       38       68       69 </v>
   <v type="int" >        4       38       68       69       77 </v>
   <v type="int" >        4       38       68       76       77 </v>
   <v type="int" >        4       32       33       39       69 </v>
   <v type="int" >        4       32       38       39       69 </v>
   <v type="int" >        4       38       39       69       77 </v>
   <v type="int" >        4       33       39       69       70 </v>
   <v type="int" >        4       39       69       70       78 </v>
   <v type="int" >        4       39       69       77       78 </v>
   <v type="int" >        4       33       33       34       70 </v>
   <v type="int" >        4       33       33       39       70 </v>
   <v type="int" >        4       33       39       70       78 </v>
   <v type="int" >        4       33       34       70       71 </v>
   <v type="int" >        4       33       70       71       79 </v>
   <v type="int" >        4       33       70       78       79 </v>
   <v type="int" >        4       25       26       34       71 </v>
   <v type="int" >        4       25       33       34       71 </v>
   <v type="int" >        4       25       33       71       79 </v>
   <v type="int" >        4       25       26       71       72 </v>
   <v type="int" >        4       25       71       72       80 </v>
   <v type="int" >        4       25       71       79       80 </v>
   <v type="int" >        4       15       16       26       72 </v>
   <v type="int" >        4       15       25       26       72 </v>
   <v type="int" >        4       15       25       72       80 </v>
   <v type="int" >        4       15       16       72       73 </v>
   <v type="int" >        4       15       72       73       81 </v>
   <v type="int" >        4       15       72       80       81 </v>
   <v type="int" >        4        4        5       16       73 </v>
   <v type="int" >        4        5       15       16       73 </v>
   <v type="int" >        4        5       15       73       81 </v>
   <v type="int" >        4        4        5       10       73 </v>
   <v type="int" >        4        5       10       11       73 </v>
   <v type="int" >        4        5       11       73       81 </v>
   <v type="int" >        4       35       36       40       74 </v>
   <v type="int" >        4       36       40       74       75 </v>
   <v type="int" >        4       40       74       75       82 </v>
   <v type="int" >        4       36       37       41       75 </v>
   <v type="int" >        4       36       40       41       75 </v>
   <v type="int" >        4       40       41       75       82 </v>
   <v type="int" >        4       37       41       75       76 </v>
   <v type="int" >        4       41       75       76       83 </v>
   <v type="int" >        4       41       75       82       83 </v>
   <v type="int" >        4       37       38       42       76 </v>
   <v type="int" >        4       37       41       42       76 </v>
   <v type="int" >        4       41       42       76       83 </v>
   <v type="int" >        4       38       42       76       77 </v>
   <v type="int" >        4       42       76       77       84 </v>
   <v type="int" >        4       42       76       83       84 </v>
   <v type="int" >        4       38       38       39       77 </v>
   <v type="int" >        4       38       38       42       77 </v>
   <v type="int" >        4       38       42       77       84 </v>
   <v type="int" >        4       38       39       77       78 </v>
   <v type="int" >        4       38       77       78       85 </v>
   <v type="int" >        4       38       77       84       85 </v>
   <v type="int" >        4       32       33       39       78 </v>
   <v type="int" >        4       32       38       39       78 </v>
   <v type="int" >        4       32       38       78       85 </v>
   <v type="int" >        4       32       33       78       79 </v>
   <v type="int" >        4       32       78       79       86 </v>
   <v type="int" >        4       32       78       85       86 </v>
   <v type="int" >        4       24       25       33       79 </v>
   <v type="int" >        4       24       32       33       79 </v>
   <v type="int" >        4       24       32       79       86 </v>
   <v type="int" >        4       24       25       79       80 </v>
   <v type="int" >        4       24       79       80       87 </v>
   <v type="int" >        4       24       79       86       87 </v>
   <v type="int" >        4       14       15       25       80 </v>
   <v type="int" >        4       14       24       25       80 </v>
   <v type="int" >        4       14       24       80       87 </v>
   <v type="int" >        4       14       15       80       81 </v>
   <v type="int" >        4       14       80       81       88 </v>
   <v type="int" >        4       14       80       87       88 </v>
   <v type="int" >        4        5        6       15       81 </v>
   <v type="int" >        4        6       14       15       81 </v>
   <v type="int" >        4        6       14       81       88 </v>
   <v type="int" >        4        5        6       11       81 </v>
   <v type="int" >        4        6       11       12       81 </v>
   <v type="int" >        4        6       12       81       88 </v>
   <v type="int" >        4       40       41       43       82 </v>
   <v type="int" >        4       41       43       82       83 </v>
   <v type="int" >        4       43       82       83       89 </v>
   <v type="int" >        4       41       41       42       83 </v>
   <v type="int" >        8       41       41       43       83 </v>
   <v type="int" >        8       41       43       83       89 </v>
   <v type="int" >        4       41       42       83       84 </v>
   <v type="int" >        4       41       83       84       90 </v>
   <v type="int" >        4       41       83       89       90 </v>
   <v type="int" >        4       37       38       42       84 </v>
   <v type="int" >        4       37       41       42       84 </v>
   <v type="int" >        4       37       41       84       90 </v>
   <v type="int" >        4       37       38       84       85 </v>
   <v type="int" >        4       37       84       85       91 </v>
   <v type="int" >        4       37       84       90       91 </v>
   <v type="int" >        4       31       32       38       85 </v>
   <v type="int" >        4       31       37       38       85 </v>
   <v type="int" >        4       31       37       85       91 </v>
   <v type="int" >        4       31       32       85       86 </v>
   <v type="int" >        4       31       85       86       92 </v>
   <v type="int" >        4       31       85       91       92 </v>
   <v type="int" >        4       23       24       32       86 </v>
   <v type="int" >        4       23       31       32       86 </v>
   <v type="int" >        4       23       31       86       92 </v>
   <v type="int" >        4       23       24       86       87 </v>
   <v type="int" >        4       23       86       87       93 </v>
   <v type="int" >        4       23       86       92       93 </v>
   <v type="int" >        4       13       14       24       87 </v>
   <v type="int" >        4       13       23       24       87 </v>
   <v type="int" >        4       13       23       87       93 </v>
   <v type="int" >        4       13       14       87       88 </v>
   <v type="int" >        4       13       87       88       94 </v>
   <v type="int" >        4       13       87       93       94 </v>
   <v type="int" >        4        6        7       14       88 </v>
   <v type="int" >        4        7       13       14       88 </v>
   <v type="int" >        8        7       13       88       94 </v>
   <v type="int" >        4        6        7       12       88 </v>
   <v type="int" >        4        7       12       13       88 </v>
   <v type="int" >        4       40       41       43       89 </v>
   <v type="int" >        4       40       41       89       90 </v>
   <v type="int" >        4       40       89       90       95 </v>
   <v type="int" >        4       36       37       41       90 </v>
   <v type="int" >        4       36       40       41       90 </v>
   <v type="int" >        4       36       40       90       95 </v>
   <v type="int" >        4       36       37       90       91 </v>
   <v type="int" >        4       36       90       91       96 </v>
   <v type="int" >        4       36       90       95       96 </v>
   <v type="int" >        4       30       31       37       91 </v>
   <v type="int" >        4       30       36       37       91 </v>
   <v type="int" >        4       30       36       91       96 </v>
   <v type="int" >        4       30       31       91       92 </v>
   <v type="int" >        4       30       91       92       97 </v>
   <v type="int" >        4       30       91       96       97 </v>
   <v type="int" >        4       22       23       31       92 </v>
   <v type="int" >        4       22       30       31       92 </v>
   <v type="int" >        4       22       30       92       97 </v>
   <v type="int" >        4       22       23       92       93 </v>
   <v type="int" >        4       22       92       93       98 </v>
   <v type="int" >        4       22       92       97       98 </v>
   <v type="int" >        4       12       13       23       93 </v>
   <v type="int" >        4       12       22       23       93 </v>
   <v type="int" >        4       12       22       93       98 </v>
   <v type="int" >        4       12       13       93       94 </v>
   <v type="int" >        4       12       88       93       94 </v>
   <v type="int" >        4       12       88       93       98 </v>
   <v type="int" >        8        6        7       13       94 </v>
   <v type="int" >        4        6       12       13       94 </v>
   <v type="int" >        4        6       12       88       94 </v>
   <v type="int" >        4        6       13       14       94 </v>
   <v type="int" >        4        6       14       88       94 </v>
   <v type="int" >        4       35       36       40       95 </v>
   <v type="int" >        4       35       36       95       96 </v>
   <v type="int" >        4       35       95       96       99 </v>
   <v type="int" >        4       29       30       36       96 </v>
   <v type="int" >        4       29       35       36       96 </v>
   <v type="int" >        4       29       35       96       99 </v>
   <v type="int" >        4       29       30       96       97 </v>
   <v type="int" >        4       29       96       97      100 </v>
   <v type="int" >        4       29       96       99      100 </v>
   <v type="int" >        4       21       22       30       97 </v>
   <v type="int" >        4       21       29       30       97 </v>
   <v type="int" >        4       21       29       97      100 </v>
   <v type="int" >        4       21       22       97       98 </v>
   <v type="int" >        4       21       97       98      101 </v>
   <v type="int" >        4       21       97      100      101 </v>
   <v type="int" >        4       11       12       22       98 </v>
   <v type="int" >        4       11       21       22       98 </v>
   <v type="int" >        4       11       21       98      101 </v>
   <v type="int" >        4       11       12       88       98 </v>
   <v type="int" >        4       11       81       88       98 </v>
   <v type="int" >        4       11       81       98      101 </v>
   <v type="int" >        4        5        6       12       88 </v>
   <v type="int" >        4        5       11       12       88 </v>
   <v type="int" >        4        5       11       81       88 </v>
   <v type="int" >        4        5        6       14       88 </v>
   <v type="int" >        4        5       14       15       88 </v>
   <v type="int" >        4        5       15       81       88 </v>
   <v type="int" >        4       28       29       35       99 </v>
   <v type="int" >        4       28       29       99      100 </v>
   <v type="int" >        4       28       99      100      102 </v>
   <v type="int" >        4       20       21       29      100 </v>
   <v type="int" >        4       20       28       29      100 </v>
   <v type="int" >        4       20       28      100      102 </v>
   <v type="int" >        4       20       21      100      101 </v>
   <v type="int" >        4       20      100      101      103 </v>
   <v type="int" >        4       20      100      102      103 </v>
   <v type="int" >        4       10       11       21      101 </v>
   <v type="int" >        4       10       20       21      101 </v>
   <v type="int" >        4       10       20      101      103 </v>
   <v type="int" >        4       10       11       81      101 </v>
   <v type="int" >        4       10       73       81      101 </v>
   <v type="int" >        4       10       73      101      103 </v>
   <v type="int" >        4        4        5       11       81 </v>
   <v type="int" >        4        4       10       11       81 </v>
   <v type="int" >        4        4       10       73       81 </v>
   <v type="int" >        4        4        5       15       81 </v>
   <v type="int" >        4        4       15       16       81 </v>
   <v type="int" >        4        4       16       73       81 </v>
   <v type="int" >        4       19       20       28      102 </v>
   <v type="int" >        4       19       20      102      103 </v>
   <v type="int" >        4       19      102      103      104 </v>
   <v type="int" >        4        9       10       20      103 </v>
   <v type="int" >        4        9       19       20      103 </v>
   <v type="int" >        4        9       19      103      104 </v>
   <v type="int" >        4        9       10       73      103 </v>
   <v type="int" >        4        9       64       73      103 </v>
   <v type="int" >        4        9       64      103      104 </v>
   <v type="int" >        4        3        4       10       73 </v>
   <v type="int" >        4        3        9       10       73 </v>
   <v type="int" >        4        3        9       64       73 </v>
   <v type="int" >        4        3        4       16       73 </v>
   <v type="int" >        4        3       16       17       73 </v>
   <v type="int" >        4        3       17       64       73 </v>
   <v type="int" >        4        8        9       19      104 </v>
   <v type="int" >        4        8        9       64      104 </v>
   <v type="int" >        4        8       54       64      104 </v>
   <v type="int" >        4        2        3        9       64 </v>
   <v type="int" >        4        2        8        9       64 </v>
   <v type="int" >        4        2        8       54       64 </v>
   <v type="int" >        4        2        3       17       64 </v>
   <v type="int" >        4        2       17       18       64 </v>
   <v type="int" >        4        2       18       54       64 </v>
   <v type="int" >        4        1        2        8       54 </v>
   <v type="int" >        8        1        2       18       54 </v>
   <v type="int" >        4        2        3        8       44 </v>
   <v type="int" >        4        3        8        9       44 </v>
   <v type="int" >        4        3        9       44       45 </v>
   <v type="int" >        4        9       44       45       45 </v>
   <v type="int" >        4        9        9       19       45 </v>
   <v type="int" >        4        9       19       45       55 </v>
   <v type="int" >        4        9       45       45       55 </v>
   <v type="int" >        4        9       10       19       46 </v>
   <v type="int" >        4        9       19       45       46 </v>
   <v type="int" >        4       19       45       46       55 </v>
   <v type="int" >        4       10       19       20       46 </v>
   <v type="int" >        4       19       20       46       56 </v>
   <v type="int" >        4       19       46       55       56 </v>
   <v type="int" >        4       10       11       20       47 </v>
   <v type="int" >        4       10       20       46       47 </v>
   <v type="int" >        4       20       46       47       56 </v>
   <v type="int" >        4       11       20       21       47 </v>
   <v type="int" >        4       20       21       47       57 </v>
   <v type="int" >        4       20       47       56       57 </v>
   <v type="int" >        4       11       12       21       48 </v>
   <v type="int" >        4       11       21       47       48 </v>
   <v type="int" >        4       21       47       48       57 </v>
   <v type="int" >        4       12       21       22       48 </v>
   <v type="int" >        4       21       22       48       58 </v>
   <v type="int" >        4       21       48       57       58 </v>
   <v type="int" >        4       12       13       22       49 </v>
   <v type="int" >        4       12       22       48       49 </v>
   <v type="int" >        4       22       48       49       58 </v>
   <v type="int" >        4       13       22       23       49 </v>
   <v type="int" >        4       22       23       49       59 </v>
   <v type="int" >        4       22       49       58       59 </v>
   <v type="int" >        4       13       14       23       50 </v>
   <v type="int" >        4       13       23       49       50 </v>
   <v type="int" >        4       23       49       50       59 </v>
   <v type="int" >        4       14       23       24       50 </v>
   <v type="int" >        4       23       24       50       60 </v>
   <v type="int" >        4       23       50       59       60 </v>
   <v type="int" >        4       14       15       24       51 </v>
   <v type="int" >        4       14       24       50       51 </v>
   <v type="int" >        4       24       50       51       60 </v>
   <v type="int" >        4       15       24       25       51 </v>
   <v type="int" >        4       24       25       51       61 </v>
   <v type="int" >        4       24       51       60       61 </v>
   <v type="int" >        4       15       16       25       52 </v>
   <v type="int" >        4       15       25       51       52 </v>
   <v type="int" >        4       25       51       52       61 </v>
   <v type="int" >        4       16       25       26       52 </v>
   <v type="int" >        4       25       26       52       62 </v>
   <v type="int" >        4       25       52       61       62 </v>
   <v type="int" >        4       16       17       26       53 </v>
   <v type="int" >        4       16       26       52       53 </v>
   <v type="int" >        4       26       52       53       62 </v>
   <v type="int" >        4       17       26       27       53 </v>
   <v type="int" >        4       26       27       53       63 </v>
   <v type="int" >        4       26       53       62       63 </v>
   <v type="int" >        8       17       18       27       54 </v>
   <v type="int" >        4       17       27       53       54 </v>
   <v type="int" >        4       27       53       54       63 </v>
   <v type="int" >        4       17       27       54       64 </v>
   <v type="int" >        4       27       54       63       64 </v>
   <v type="int" >        4        2        8       17       18 </v>
   <v type="int" >        4        8       17       18       54 </v>
   <v type="int" >        4        8       17       54       64 </v>
   <v type="int" >        4        2        3        8       17 </v>
   <v type="int" >        4        3        8        9       17 </v>
   <v type="int" >        4        8        9       17       64 </v>
   <v type="int" >        4       44       45       45       55 </v>
   <v type="int" >        4       45       45       55       55 </v>
   <v type="int" >        4       45       55       55      105 </v>
   <v type="int" >        4       45       46       55       56 </v>
   <v type="int" >        4       45       55       55       56 </v>
   <v type="int" >        4       55       55       56      105 </v>
   <v type="int" >        4       46       55       56       56 </v>
   <v type="int" >        8       55       56       56      106 </v>
   <v type="int" >        8       55       56      105      106 </v>
   <v type="int" >        4       46       47       56       57 </v>
   <v type="int" >        4       46       56       56       57 </v>
   <v type="int" >        4       56       56       57      106 </v>
   <v type="int" >        4       47       56       57       57 </v>
   <v type="int" >        4       56       57       57      107 </v>
   <v type="int" >        4       56       57      106      107 </v>
   <v type="int" >        4       47       48       57       58 </v>
   <v type="int" >        4       47       57       57       58 </v>
   <v type="int" >        4       57       57       58      107 </v>
   <v type="int" >        4       48       57       58       58 </v>
   <v type="int" >        4       57       58       58      108 </v>
   <v type="int" >        4       57       58      107      108 </v>
   <v type="int" >        4       48       49       58       59 </v>
   <v type="int" >        4       48       58       58       59 </v>
   <v type="int" >        4       58       58       59      108 </v>
   <v type="int" >        4       49       58       59       59 </v>
   <v type="int" >        4       58       59       59      109 </v>
   <v type="int" >        4       58       59      108      109 </v>
   <v type="int" >        4       49       50       59       60 </v>
   <v type="int" >        4       49       59       59       60 </v>
   <v type="int" >        4       59       59       60      109 </v>
   <v type="int" >        4       50       59       60       60 </v>
   <v type="int" >        4       59       60       60      110 </v>
   <v type="int" >        4       59       60      109      110 </v>
   <v type="int" >        4       50       51       60       61 </v>
   <v type="int" >        4       50       60       60       61 </v>
   <v type="int" >        4       60       60       61      110 </v>
   <v type="int" >        4       51       60       61       61 </v>
   <v type="int" >        4       60       61       61      111 </v>
   <v type="int" >        4       60       61      110      111 </v>
   <v type="int" >        4       51       52       61       62 </v>
   <v type="int" >        4       51       61       61       62 </v>
   <v type="int" >        4       61       61       62      111 </v>
   <v type="int" >        4       52       61       62       62 </v>
   <v type="int" >        4       61       62       62      112 </v>
   <v type="int" >        4       61       62      111      112 </v>
   <v type="int" >        4       52       53       62       63 </v>
   <v type="int" >        4       52       62       62       63 </v>
   <v type="int" >        4       62       62       63      112 </v>
   <v type="int" >        4       53       62       63       63 </v>
   <v type="int" >        4       62       63       63      113 </v>
   <v type="int" >        4       62       63      112      113 </v>
   <v type="int" >        4       53       54       63       64 </v>
   <v type="int" >        4       53       63       63       64 </v>
   <v type="int" >        4       63       63       64      113 </v>
   <v type="int" >        4       54       63       64       64 </v>
   <v type="int" >        4       63       64       64      104 </v>
   <v type="int" >        4       63       64      104      113 </v>
   <v type="int" >        4        8        9       54       64 </v>
   <v type="int" >        4        9       54       64       64 </v>
   <v type="int" >        4        9       64       64      104 </v>
   <v type="int" >        4        8        9        9       64 </v>
   <v type="int" >        4        9        9       19       64 </v>
   <v type="int" >        4        9       19       64      104 </v>
   <v type="int" >        4       55       56       65      105 </v>
   <v type="int" >        4       56       65      105      106 </v>
   <v type="int" >        4       65      105      106      114 </v>
   <v type="int" >        4       56       57       66      106 </v>
   <v type="int" >        4       56       65       66      106 </v>
   <v type="int" >        4       65       66      106      114 </v>
   <v type="int" >        4       57       66      106      107 </v>
   <v type="int" >        4       66      106      107      115 </v>
   <v type="int" >        4       66      106      114      115 </v>
   <v type="int" >        4       57       58       67      107 </v>
   <v type="int" >        4       57       66       67      107 </v>
   <v type="int" >        4       66       67      107      115 </v>
   <v type="int" >        4       58       67      107      108 </v>
   <v type="int" >        4       67      107      108      116 </v>
   <v type="int" >        4       67      107      115      116 </v>
   <v type="int" >        4       58       59       68      108 </v>
   <v type="int" >        4       58       67       68      108 </v>
   <v type="int" >        4       67       68      108      116 </v>
   <v type="int" >        4       59       68      108      109 </v>
   <v type="int" >        4       68      108      109      117 </v>
   <v type="int" >        4       68      108      116      117 </v>
   <v type="int" >        4       59       60       69      109 </v>
   <v type="int" >        4       59       68       69      109 </v>
   <v type="int" >        4       68       69      109      117 </v>
   <v type="int" >        4       60       69      109      110 </v>
   <v type="int" >        4       69      109      110      118 </v>
   <v type="int" >        4       69      109      117      118 </v>
   <v type="int" >        4       60       61       70      110 </v>
   <v type="int" >        4       60       69       70      110 </v>
   <v type="int" >        4       69       70      110      118 </v>
   <v type="int" >        4       61       70      110      111 </v>
   <v type="int" >        4       70      110      111      119 </v>
   <v type="int" >        4       70      110      118      119 </v>
   <v type="int" >        4       61       62       71      111 </v>
   <v type="int" >        4       61       70       71      111 </v>
   <v type="int" >        4       70       71      111      119 </v>
   <v type="int" >        4       62       71      111      112 </v>
   <v type="int" >        4       71      111      112      120 </v>
   <v type="int" >        4       71      111      119      120 </v>
   <v type="int" >        4       62       63       72      112 </v>
   <v type="int" >        4       62       71       72      112 </v>
   <v type="int" >        4       71       72      112      120 </v>
   <v type="int" >        4       63       72      112      113 </v>
   <v type="int" >        4       72      112      113      121 </v>
   <v type="int" >        4       72      112      120      121 </v>
   <v type="int" >        4       63       64       73      113 </v>
   <v type="int" >        4       63       72       73      113 </v>
   <v type="int" >        4       72       73      113      121 </v>
   <v type="int" >        4       64       73      104      113 </v>
   <v type="int" >        4       73      103      104      113 </v>
   <v type="int" >        4       73      103      113      121 </v>
   <v type="int" >        4        9       10       64      104 </v>
   <v type="int" >        4       10       64       73      104 </v>
   <v type="int" >        4       10       73      103      104 </v>
   <v type="int" >        4        9       10       19      104 </v>
   <v type="int" >        4       10       19       20      104 </v>
   <v type="int" >        4       10       20      103      104 </v>
   <v type="int" >        4       65       66       74      114 </v>
   <v type="int" >        4       66       74      114      115 </v>
   <v type="int" >        4       74      114      115      122 </v>
   <v type="int" >        4       66       67       75      115 </v>
   <v type="int" >        4       66       74       75      115 </v>
   <v type="int" >        4       74       75      115      122 </v>
   <v type="int" >        4       67       75      115      116 </v>
   <v type="int" >        4       75      115      116      123 </v>
   <v type="int" >        4       75      115      122      123 </v>
   <v type="int" >        4       67       68       76      116 </v>
   <v type="int" >        4       67       75       76      116 </v>
   <v type="int" >        4       75       76      116      123 </v>
   <v type="int" >        4       68       76      116      117 </v>
   <v type="int" >        4       76      116      117      124 </v>
   <v type="int" >        4       76      116      123      124 </v>
   <v type="int" >        4       68       69       77      117 </v>
   <v type="int" >        4       68       76       77      117 </v>
   <v type="int" >        4       76       77      117      124 </v>
   <v type="int" >        4       69       77      117      118 </v>
   <v type="int" >        4       77      117      118      125 </v>
   <v type="int" >        4       77      117      124      125 </v>
   <v type="int" >        4       69       70       78      118 </v>
   <v type="int" >        4       69       77       78      118 </v>
   <v type="int" >        4       77       78      118      125 </v>
   <v type="int" >        4       70       78      118      119 </v>
   <v type="int" >        4       78      118      119      126 </v>
   <v type="int" >        4       78      118      125      126 </v>
   <v type="int" >        4       70       71       79      119 </v>
   <v type="int" >        4       70       78       79      119 </v>
   <v type="int" >        4       78       79      119      126 </v>
   <v type="int" >        4       71       79      119      120 </v>
   <v type="int" >        4       79      119      120      127 </v>
   <v type="int" >        4       79      119      126      127 </v>
   <v type="int" >        4       71       72       80      120 </v>
   <v type="int" >        4       71       79       80      120 </v>
   <v type="int" >        4       79       80      120      127 </v>
   <v type="int" >        4       72       80      120      121 </v>
   <v type="int" >        4       80      120      121      128 </v>
   <v type="int" >        4       80      120      127      128 </v>
   <v type="int" >        4       72       73       81      121 </v>
   <v type="int" >        4       72       80       81      121 </v>
   <v type="int" >        4       80       81      121      128 </v>
   <v type="int" >        4       73       81      103      121 </v>
   <v type="int" >        4       81      101      103      121 </v>
   <v type="int" >        4       81      101      121      128 </v>
   <v type="int" >        4       10       11       73      103 </v>
   <v type="int" >        4       11       73       81      103 </v>
   <v type="int" >        4       11       81      101      103 </v>
   <v type="int" >        4       10       11       20      103 </v>
   <v type="int" >        4       11       20       21      103 </v>
   <v type="int" >        4       11       21      101      103 </v>
   <v type="int" >        4       74       75       82      122 </v>
   <v type="int" >        4       75       82      122      123 </v>
   <v type="int" >        4       82      122      123      129 </v>
   <v type="int" >        4       75       76       83      123 </v>
   <v type="int" >        4       75       82       83      123 </v>
   <v type="int" >        4       82       83      123      129 </v>
   <v type="int" >        4       76       83      123      124 </v>
   <v type="int" >        4       83      123      124      130 </v>
   <v type="int" >        4       83      123      129      130 </v>
   <v type="int" >        4       76       77       84      124 </v>
   <v type="int" >        4       76       83       84      124 </v>
   <v type="int" >        4       83       84      124      130 </v>
   <v type="int" >        4       77       84      124      125 </v>
   <v type="int" >        4       84      124      125      131 </v>
   <v type="int" >        4       84      124      130      131 </v>
   <v type="int" >        4       77       78       85      125 </v>
   <v type="int" >        4       77       84       85      125 </v>
   <v type="int" >        4       84       85      125      131 </v>
   <v type="int" >        4       78       85      125      126 </v>
   <v type="int" >        4       85      125      126      132 </v>
   <v type="int" >        4       85      125      131      132 </v>
   <v type="int" >        4       78       79       86      126 </v>
   <v type="int" >        4       78       85       86      126 </v>
   <v type="int" >        4       85       86      126      132 </v>
   <v type="int" >        4       79       86      126      127 </v>
   <v type="int" >        4       86      126      127      133 </v>
   <v type="int" >        4       86      126      132      133 </v>
   <v type="int" >        4       79       80       87      127 </v>
   <v type="int" >        4       79       86       87      127 </v>
   <v type="int" >        4       86       87      127      133 </v>
   <v type="int" >        4       80       87      127      128 </v>
   <v type="int" >        4       87      127      128      134 </v>
   <v type="int" >        4       87      127      133      134 </v>
   <v type="int" >        4       80       81       88      128 </v>
   <v type="int" >        4       80       87       88      128 </v>
   <v type="int" >        4       87       88      128      134 </v>
   <v type="int" >        4       81       88      101      128 </v>
   <v type="int" >        4       88       98      101      128 </v>
   <v type="int" >        4       88       98      128      134 </v>
   <v type="int" >        4       11       12       81      101 </v>
   <v type="int" >        4       12       81       88      101 </v>
   <v type="int" >        4       12       88       98      101 </v>
   <v type="int" >        4       11       12       21      101 </v>
   <v type="int" >        4       12       21       22      101 </v>
   <v type="int" >        4       12       22       98      101 </v>
   <v type="int" >        4       82       83       89      129 </v>
   <v type="int" >        4       83       89      129      130 </v>
   <v type="int" >        4       89      129      130      135 </v>
   <v type="int" >        4       83       84       90      130 </v>
   <v type="int" >        4       83       89       90      130 </v>
   <v type="int" >        4       89       90      130      135 </v>
   <v type="int" >        4       84       90      130      131 </v>
   <v type="int" >        4       90      130      131      136 </v>
   <v type="int" >        4       90      130      135      136 </v>
   <v type="int" >        4       84       85       91      131 </v>
   <v type="int" >        4       84       90       91      131 </v>
   <v type="int" >        4       90       91      131      136 </v>
   <v type="int" >        4       85       91      131      132 </v>
   <v type="int" >        4       91      131      132      137 </v>
   <v type="int" >        4       91      131      136      137 </v>
   <v type="int" >        4       85       86       92      132 </v>
   <v type="int" >        4       85       91       92      132 </v>
   <v type="int" >        4       91       92      132      137 </v>
   <v type="int" >        4       86       92      132      133 </v>
   <v type="int" >        4       92      132      133      138 </v>
   <v type="int" >        4       92      132      137      138 </v>
   <v type="int" >        4       86       87       93      133 </v>
   <v type="int" >        4       86       92       93      133 </v>
   <v type="int" >        4       92       93      133      138 </v>
   <v type="int" >        4       87       93      133      134 </v>
   <v type="int" >        4       93      133      134      139 </v>
   <v type="int" >        4       93      133      138      139 </v>
   <v type="int" >        4       87       88       94      134 </v>
   <v type="int" >        4       87       93       94      134 </v>
   <v type="int" >        8       93       94      134      139 </v>
   <v type="int" >        4       88       94       98      134 </v>
   <v type="int" >        4       93       94       98      134 </v>
   <v type="int" >        4       12       13       88       98 </v>
   <v type="int" >        4       13       88       94       98 </v>
   <v type="int" >        4       13       93       94       98 </v>
   <v type="int" >        4       12       13       22       98 </v>
   <v type="int" >        4       13       22       23       98 </v>
   <v type="int" >        4       13       23       93       98 </v>
   <v type="int" >        4       89       90       95      135 </v>
   <v type="int" >        4       90       95      135      136 </v>
   <v type="int" >        4       95      135      136      140 </v>
   <v type="int" >        4       90       91       96      136 </v>
   <v type="int" >        4       90       95       96      136 </v>
   <v type="int" >        4       95       96      136      140 </v>
   <v type="int" >        4       91       96      136      137 </v>
   <v type="int" >        4       96      136      137      141 </v>
   <v type="int" >        4       96      136      140      141 </v>
   <v type="int" >        4       91       92       97      137 </v>
   <v type="int" >        4       91       96       97      137 </v>
   <v type="int" >        4       96       97      137      141 </v>
   <v type="int" >        4       92       97      137      138 </v>
   <v type="int" >        4       97      137      138      142 </v>
   <v type="int" >        4       97      137      141      142 </v>
   <v type="int" >        4       92       93       98      138 </v>
   <v type="int" >        4       92       97       98      138 </v>
   <v type="int" >        4       97       98      138      142 </v>
   <v type="int" >        4       93       98      138      139 </v>
   <v type="int" >        4       98      134      138      139 </v>
   <v type="int" >        4       98      134      138      142 </v>
   <v type="int" >        8       88       93       94      139 </v>
   <v type="int" >        4       88       93       98      139 </v>
   <v type="int" >        4       88       98      134      139 </v>
   <v type="int" >        4       87       88       93      139 </v>
   <v type="int" >        4       87       88      134      139 </v>
   <v type="int" >        4       13       14       93       94 </v>
   <v type="int" >        4       14       88       93       94 </v>
   <v type="int" >        4       14       87       88       93 </v>
   <v type="int" >        4       13       14       23       93 </v>
   <v type="int" >        4       14       23       24       93 </v>
   <v type="int" >        4       14       24       87       93 </v>
   <v type="int" >        4       95       96       99      140 </v>
   <v type="int" >        4       96       99      140      141 </v>
   <v type="int" >        4       99      140      141      143 </v>
   <v type="int" >        4       96       97      100      141 </v>
   <v type="int" >        4       96       99      100      141 </v>
   <v type="int" >        4       99      100      141      143 </v>
   <v type="int" >        4       97      100      141      142 </v>
   <v type="int" >        4      100      141      142      144 </v>
   <v type="int" >        4      100      141      143      144 </v>
   <v type="int" >        4       97       98      101      142 </v>
   <v type="int" >        4       97      100      101      142 </v>
   <v type="int" >        4      100      101      142      144 </v>
   <v type="int" >        4       98      101      134      142 </v>
   <v type="int" >        4      101      128      134      142 </v>
   <v type="int" >        4      101      128      142      144 </v>
   <v type="int" >        4       81       88       98      134 </v>
   <v type="int" >        4       81       98      101      134 </v>
   <v type="int" >        4       81      101      128      134 </v>
   <v type="int" >        4       81       87       88      134 </v>
   <v type="int" >        4       80       81       87      134 </v>
   <v type="int" >        4       80       81      128      134 </v>
   <v type="int" >        4       14       15       87       88 </v>
   <v type="int" >        4       15       81       87       88 </v>
   <v type="int" >        4       15       80       81       87 </v>
   <v type="int" >        4       14       15       24       87 </v>
   <v type="int" >        4       15       24       25       87 </v>
   <v type="int" >        4       15       25       80       87 </v>
   <v type="int" >        4       99      100      102      143 </v>
   <v type="int" >        4      100      102      143      144 </v>
   <v type="int" >        4      102      143      144      145 </v>
   <v type="int" >        4      100      101      103      144 </v>
   <v type="int" >        4      100      102      103      144 </v>
   <v type="int" >        4      102      103      144      145 </v>
   <v type="int" >        4      101      103      128      144 </v>
   <v type="int" >        4      103      121      128      144 </v>
   <v type="int" >        4      103      121      144      145 </v>
   <v type="int" >        4       73       81      101      128 </v>
   <v type="int" >        4       73      101      103      128 </v>
   <v type="int" >        4       73      103      121      128 </v>
   <v type="int" >        4       73       80       81      128 </v>
   <v type="int" >        4       72       73       80      128 </v>
   <v type="int" >        4       72       73      121      128 </v>
   <v type="int" >        4       15       16       80       81 </v>
   <v type="int" >        4       16       73       80       81 </v>
   <v type="int" >        4       16       72       73       80 </v>
   <v type="int" >        4       15       16       25       80 </v>
   <v type="int" >        4       16       25       26       80 </v>
   <v type="int" >        4       16       26       72       80 </v>
   <v type="int" >        4      102      103      104      145 </v>
   <v type="int" >        4      103      104      121      145 </v>
   <v type="int" >        4      104      113      121      145 </v>
   <v type="int" >        4       64       73      103      121 </v>
   <v type="int" >        4       64      103      104      121 </v>
   <v type="int" >        4       64      104      113      121 </v>
   <v type="int" >        4       64       72       73      121 </v>
   <v type="int" >        4       63       64       72      121 </v>
   <v type="int" >        4       63       64      113      121 </v>
   <v type="int" >        4       16       17       72       73 </v>
   <v type="int" >        4       17       64       72       73 </v>
   <v type="int" >        4       17       63       64       72 </v>
   <v type="int" >        4       16       17       26       72 </v>
   <v type="int" >        4       17       26       27       72 </v>
   <v type="int" >        4       17       27       63       72 </v>
   <v type="int" >        4       54       64      104      113 </v>
   <v type="int" >        4       54       63       64      113 </v>
   <v type="int" >        4       53       54       63      113 </v>
   <v type="int" >        4       17       18       63       64 </v>
   <v type="int" >        4       18       54       63       64 </v>
   <v type="int" >        4       18       53       54       63 </v>
   <v type="int" >        8       17       18       27       63 </v>
   <v type="int" >        4       17       18       53       63 </v>
   <v type="int" >        4        2       18       53       54 </v>
   <v type="int" >        4        2       17       18       53 </v>
   <v type="int" >        4        2        3       17       53 </v>
   <v type="int" >        4        3        4        9       45 </v>
   <v type="int" >        4        4        9       10       45 </v>
   <v type="int" >        4        4       10       45       46 </v>
   <v type="int" >        4        9       10       19       55 </v>
   <v type="int" >        4        9       10       45       55 </v>
   <v type="int" >        4       10       45       46       55 </v>
   <v type="int" >        4       10       19       20       55 </v>
   <v type="int" >        4       10       20       55       56 </v>
   <v type="int" >        4       10       46       55       56 </v>
   <v type="int" >        4       19       20       20       56 </v>
   <v type="int" >        4       19       20       55       56 </v>
   <v type="int" >        4       20       55       56       56 </v>
   <v type="int" >        4       20       20       28       56 </v>
   <v type="int" >        4       20       28       56       65 </v>
   <v type="int" >        4       20       56       56       65 </v>
   <v type="int" >        4       20       21       28       57 </v>
   <v type="int" >        4       20       28       56       57 </v>
   <v type="int" >        4       28       56       57       65 </v>
   <v type="int" >        4       21       28       29       57 </v>
   <v type="int" >        4       28       29       57       66 </v>
   <v type="int" >        4       28       57       65       66 </v>
[...]
       <r>   -6.2102    1.0000 </r>
       <r>   -5.4584    1.0000 </r>
       <r>   -3.2786    1.0000 </r>
       <r>   -3.2786    1.0000 </r>
       <r>   -3.2218    1.0000 </r>
       <r>   -2.2216    1.0000 </r>
       <r>    5.8868    1.0000 </r>
       <r>    6.1644    1.0000 </r>
       <r>    6.3945    1.0000 </r>
       <r>    6.3945    1.0000 </r>
       <r>    6.7243    1.0000 </r>
       <r>    6.7243    1.0000 </r>
       <r>    7.0912    1.0000 </r>
       <r>    7.2492    1.0000 </r>
       <r>   17.3156    0.0000 </r>
       <r>   17.6933    0.0000 </r>
       <r>   17.6933    0.0000 </r>
       <r>   17.7044    0.0000 </r>
       <r>   18.0893    0.0000 </r>
       <r>   18.2514    0.0000 </r>
       <r>   18.5036    0.0000 </r>
       <r>   18.7606    0.0000 </r>
      </set>
      <set comment="kpoint 187">
       <r>   -6.3468    1.0000 </r>
       <r>   -6.3468    1.0000 </r>
       <r>   -6.3209    1.0000 </r>
       <r>   -5.5691    1.0000 </r>
       <r>   -3.3895    1.0000 </r>
       <r>   -3.3627    1.0000 </r>
       <r>   -3.3627    1.0000 </r>
       <r>   -3.3262    1.0000 </r>
       <r>    6.2756    1.0000 </r>
       <r>    6.4949    1.0000 </r>
       <r>    6.7679    1.0000 </r>
       <r>    6.8152    1.0000 </r>
       <r>    6.8152    1.0000 </r>
       <r>    7.0375    1.0000 </r>
       <r>    7.0375    1.0000 </r>
       <r>    7.1117    1.0000 </r>
       <r>   17.5603    0.0000 </r>
       <r>   17.7945    0.0000 </r>
       <r>   17.7945    0.0000 </r>
       <r>   17.8388    0.0000 </r>
       <r>   17.9058    0.0000 </r>
       <r>   17.9609    0.0000 </r>
       <r>   18.0925    0.0000 </r>
       <r>   18.2682    0.0000 </r>
      </set>
      <set comment="kpoint 188">
       <r>   -6.7368    1.0000 </r>
       <r>   -6.7368    1.0000 </r>
       <r>   -6.0940    1.0000 </r>
       <r>   -5.2077    1.0000 </r>
       <r>   -3.5779    1.0000 </r>
       <r>   -3.5063    1.0000 </r>
       <r>   -2.8754    1.0000 </r>
       <r>   -2.8754    1.0000 </r>
       <r>    5.9580    1.0000 </r>
       <r>    6.2934    1.0000 </r>
       <r>    6.6022    1.0000 </r>
       <r>    6.7196    1.0000 </r>
       <r>    6.8848    1.0000 </r>
       <r>    6.8848    1.0000 </r>
       <r>    7.0758    1.0000 </r>
       <r>    7.0758    1.0000 </r>
       <r>   17.6906    0.0000 </r>
       <r>   17.6906    0.0000 </r>
       <r>   17.6947    0.0000 </r>
       <r>   17.7347    0.0000 </r>
       <r>   17.7491    0.0000 </r>
       <r>   18.3134    0.0000 </r>
       <r>   18.3134    0.0000 </r>
       <r>   18.4270    0.0000 </r>
      </set>
      <set comment="kpoint 189">
       <r>   -6.2032    1.0000 </r>
       <r>   -6.2032    1.0000 </r>
       <r>   -6.2032    1.0000 </r>
       <r>   -5.3161    1.0000 </r>
       <r>   -3.6868    1.0000 </r>
       <r>   -3.6199    1.0000 </r>
       <r>   -3.6199    1.0000 </r>
       <r>   -3.6199    1.0000 </r>
       <r>    6.4934    1.0000 </r>
       <r>    6.4934    1.0000 </r>
       <r>    6.9682    1.0000 </r>
       <r>    6.9682    1.0000 </r>
       <r>    6.9682    1.0000 </r>
       <r>    7.1376    1.0000 </r>
       <r>    7.1376    1.0000 </r>
       <r>    7.1376    1.0000 </r>
       <r>   17.4539    0.0000 </r>
       <r>   17.7399    0.0000 </r>
       <r>   17.7399    0.0000 </r>
       <r>   17.7399    0.0000 </r>
       <r>   17.8750    0.0000 </r>
       <r>   17.8750    0.0000 </r>
       <r>   18.1336    0.0000 </r>
       <r>   18.1336    0.0000 </r>
      </set>
     </set>
    </set>
   </array>
  </eigenvalues>
  <separator name="orbital magnetization" >
   <v name="MAGDIPOLOUT">      0.00000000      0.00000000      0.00000000</v>
  </separator>
  <dos>
   <i name="efermi">      9.82158871 </i>
   <total>
    <array>
     <dimension dim="1">gridpoints</dimension>
     <dimension dim="2">spin</dimension>
     <field>energy</field>
     <field>total</field>
     <field>integrated</field>
     <set>
      <set comment="spin 1">
       <r>   -13.4212     0.0000     0.0000 </r>
       <r>   -13.2976     0.0000     0.0000 </r>
       <r>   -13.1740     0.0000     0.0000 </r>
       <r>   -13.0504     0.0000     0.0000 </r>
       <r>   -12.9268     0.0000     0.0000 </r>
       <r>   -12.8032     0.0000     0.0000 </r>
       <r>   -12.6797     0.0000     0.0000 </r>
       <r>   -12.5561     0.0000     0.0000 </r>
       <r>   -12.4325     0.0000     0.0000 </r>
       <r>   -12.3089     0.0000     0.0000 </r>
       <r>   -12.1853     0.0000     0.0000 </r>
       <r>   -12.0617     0.0000     0.0000 </r>
       <r>   -11.9381     0.0000     0.0000 </r>
       <r>   -11.8145     0.0000     0.0000 </r>
       <r>   -11.6909     0.0364     0.0005 </r>
       <r>   -11.5673     0.1556     0.0154 </r>
       <r>   -11.4437     0.2427     0.0401 </r>
       <r>   -11.3202     0.2755     0.0718 </r>
       <r>   -11.1966     0.3241     0.1088 </r>
       <r>   -11.0730     0.3622     0.1517 </r>
       <r>   -10.9494     0.3924     0.1983 </r>
       <r>   -10.8258     0.4252     0.2487 </r>
       <r>   -10.7022     0.4638     0.3037 </r>
       <r>   -10.5786     0.4856     0.3624 </r>
       <r>   -10.4550     0.5095     0.4239 </r>
       <r>   -10.3314     0.5365     0.4885 </r>
       <r>   -10.2078     0.5652     0.5565 </r>
       <r>   -10.0842     0.5909     0.6281 </r>
       <r>    -9.9607     0.6124     0.7024 </r>
       <r>    -9.8371     0.6363     0.7796 </r>
       <r>    -9.7135     0.6639     0.8599 </r>
       <r>    -9.5899     0.6941     0.9438 </r>
       <r>    -9.4663     0.7271     1.0315 </r>
       <r>    -9.3427     0.7286     1.1212 </r>
       <r>    -9.2191     0.7342     1.2116 </r>
       <r>    -9.0955     0.7543     1.3036 </r>
       <r>    -8.9719     0.7711     1.3978 </r>
       <r>    -8.8483     0.7949     1.4945 </r>
       <r>    -8.7247     0.8191     1.5943 </r>
       <r>    -8.6012     0.8386     1.6969 </r>
       <r>    -8.4776     0.8586     1.8016 </r>
       <r>    -8.3540     0.8813     1.9091 </r>
       <r>    -8.2304     0.9016     2.0193 </r>
       <r>    -8.1068     0.9205     2.1319 </r>
       <r>    -7.9832     0.9324     2.2465 </r>
       <r>    -7.8596     0.9496     2.3628 </r>
       <r>    -7.7360     1.0566     2.4856 </r>
       <r>    -7.6124     1.0941     2.6192 </r>
       <r>    -7.4888     1.1061     2.7552 </r>
       <r>    -7.3652     1.0756     2.8906 </r>
       <r>    -7.2417     1.0542     3.0210 </r>
       <r>    -7.1181     1.0509     3.1509 </r>
       <r>    -6.9945     1.0862     3.2830 </r>
       <r>    -6.8709     1.1185     3.4190 </r>
       <r>    -6.7473     1.1820     3.5608 </r>
       <r>    -6.6237     1.1685     3.7064 </r>
       <r>    -6.5001     1.2482     3.8541 </r>
       <r>    -6.3765     1.2741     4.0104 </r>
       <r>    -6.2529     1.3833     4.1736 </r>
       <r>    -6.1293     1.4752     4.3503 </r>
       <r>    -6.0058     1.5248     4.5341 </r>
       <r>    -5.8822     1.5116     4.7241 </r>
       <r>    -5.7586     1.4097     4.9023 </r>
       <r>    -5.6350     1.3769     5.0738 </r>
       <r>    -5.5114     1.4328     5.2462 </r>
       <r>    -5.3878     1.4577     5.4249 </r>
       <r>    -5.2642     1.4004     5.6005 </r>
       <r>    -5.1406     1.3351     5.7693 </r>
       <r>    -5.0170     1.2945     5.9305 </r>
       <r>    -4.8934     1.2410     6.0872 </r>
       <r>    -4.7698     1.2318     6.2404 </r>
       <r>    -4.6463     1.1747     6.3908 </r>
       <r>    -4.5227     1.1297     6.5329 </r>
       <r>    -4.3991     1.0686     6.6688 </r>
       <r>    -4.2755     1.1839     6.8082 </r>
       <r>    -4.1519     1.0438     6.9426 </r>
       <r>    -4.0283     1.0414     7.0712 </r>
       <r>    -3.9047     1.0049     7.1984 </r>
       <r>    -3.7811     0.9762     7.3218 </r>
       <r>    -3.6575     0.8985     7.4375 </r>
       <r>    -3.5339     0.8907     7.5466 </r>
       <r>    -3.4103     1.0225     7.6658 </r>
       <r>    -3.2868     1.0316     7.7907 </r>
       <r>    -3.1632     1.0877     7.9307 </r>
       <r>    -3.0396     0.9567     8.0558 </r>
       <r>    -2.9160     0.8268     8.1650 </r>
       <r>    -2.7924     0.9979     8.2727 </r>
       <r>    -2.6688     0.7949     8.3835 </r>
       <r>    -2.5452     0.8824     8.4863 </r>
       <r>    -2.4216     1.0247     8.6041 </r>
       <r>    -2.2980     1.2152     8.7413 </r>
       <r>    -2.1744     1.4612     8.9068 </r>
       <r>    -2.0508     1.8720     9.1141 </r>
       <r>    -1.9273     2.1012     9.3620 </r>
       <r>    -1.8037     2.2504     9.6293 </r>
       <r>    -1.6801     2.7427     9.9354 </r>
       <r>    -1.5565     2.4181    10.2601 </r>
       <r>    -1.4329     2.2268    10.5516 </r>
       <r>    -1.3093     1.9306    10.8065 </r>
       <r>    -1.1857     1.7174    11.0365 </r>
       <r>    -1.0621     1.5718    11.2380 </r>
       <r>    -0.9385     1.4859    11.4265 </r>
       <r>    -0.8149     1.4274    11.6064 </r>
       <r>    -0.6913     1.3729    11.7795 </r>
       <r>    -0.5678     1.3259    11.9462 </r>
       <r>    -0.4442     1.2395    12.1038 </r>
       <r>    -0.3206     1.2153    12.2574 </r>
       <r>    -0.1970     1.1980    12.4061 </r>
       <r>    -0.0734     1.1855    12.5562 </r>
       <r>     0.0502     1.1007    12.6945 </r>
       <r>     0.1738     1.0595    12.8283 </r>
       <r>     0.2974     1.0054    12.9549 </r>
       <r>     0.4210     1.0351    13.0798 </r>
       <r>     0.5446     1.2790    13.2203 </r>
       <r>     0.6681     1.5910    13.3975 </r>
       <r>     0.7917     1.8593    13.6115 </r>
       <r>     0.9153     2.3861    13.8656 </r>
       <r>     1.0389     2.2390    14.1485 </r>
       <r>     1.1625     2.1647    14.4188 </r>
       <r>     1.2861     2.1984    14.6860 </r>
       <r>     1.4097     2.2258    14.9587 </r>
       <r>     1.5333     2.1689    15.2367 </r>
       <r>     1.6569     1.7720    15.4816 </r>
       <r>     1.7805     1.5370    15.6735 </r>
       <r>     1.9041     1.4520    15.8504 </r>
       <r>     2.0276     1.8005    16.0512 </r>
       <r>     2.1512     2.2612    16.3007 </r>
       <r>     2.2748     2.4618    16.6066 </r>
       <r>     2.3984     2.3263    16.8990 </r>
       <r>     2.5220     2.2644    17.1817 </r>
       <r>     2.6456     2.3362    17.4637 </r>
       <r>     2.7692     2.3608    17.7555 </r>
       <r>     2.8928     2.6708    18.0577 </r>
       <r>     3.0164     3.0252    18.4133 </r>
       <r>     3.1400     2.9228    18.7735 </r>
       <r>     3.2636     2.6632    19.1149 </r>
       <r>     3.3871     2.7339    19.4517 </r>
       <r>     3.5107     2.5802    19.7774 </r>
       <r>     3.6343     2.6918    20.1002 </r>
       <r>     3.7579     3.0800    20.4568 </r>
       <r>     3.8815     3.7170    20.8744 </r>
       <r>     4.0051     3.3280    21.3168 </r>
       <r>     4.1287     3.1164    21.7147 </r>
       <r>     4.2523     3.0533    22.0993 </r>
       <r>     4.3759     2.8437    22.4597 </r>
       <r>     4.4995     2.8729    22.8069 </r>
       <r>     4.6231     2.7841    23.1557 </r>
       <r>     4.7466     3.0803    23.5151 </r>
       <r>     4.8702     2.8246    23.8861 </r>
       <r>     4.9938     2.8794    24.2390 </r>
       <r>     5.1174     2.8936    24.5960 </r>
       <r>     5.2410     2.9946    24.9586 </r>
       <r>     5.3646     3.0434    25.3304 </r>
       <r>     5.4882     2.8573    25.6980 </r>
       <r>     5.6118     2.6096    26.0344 </r>
       <r>     5.7354     2.4188    26.3396 </r>
       <r>     5.8590     2.5346    26.6423 </r>
       <r>     5.9826     2.6628    26.9634 </r>
       <r>     6.1061     2.7629    27.2996 </r>
       <r>     6.2297     2.7137    27.6392 </r>
       <r>     6.3533     2.7962    27.9864 </r>
       <r>     6.4769     2.6446    28.3252 </r>
       <r>     6.6005     2.4593    28.6364 </r>
       <r>     6.7241     2.1819    28.9263 </r>
       <r>     6.8477     2.2576    29.1936 </r>
       <r>     6.9713     2.2567    29.4657 </r>
       <r>     7.0949     2.3205    29.7588 </r>
       <r>     7.2185     1.8303    30.0099 </r>
       <r>     7.3420     1.6275    30.2222 </r>
       <r>     7.4656     1.4519    30.4123 </r>
       <r>     7.5892     1.3449    30.5856 </r>
       <r>     7.7128     1.2563    30.7465 </r>
       <r>     7.8364     1.1513    30.8957 </r>
       <r>     7.9600     1.0503    31.0313 </r>
       <r>     8.0836     0.9564    31.1552 </r>
       <r>     8.2072     0.8831    31.2689 </r>
       <r>     8.3308     0.8388    31.3747 </r>
       <r>     8.4544     0.7891    31.4761 </r>
       <r>     8.5780     0.6885    31.5669 </r>
       <r>     8.7015     0.6143    31.6474 </r>
       <r>     8.8251     0.5667    31.7202 </r>
       <r>     8.9487     0.5224    31.7872 </r>
       <r>     9.0723     0.4072    31.8456 </r>
       <r>     9.1959     0.3685    31.8921 </r>
       <r>     9.3195     0.3724    31.9378 </r>
       <r>     9.4431     0.1854    31.9732 </r>
       <r>     9.5667     0.1444    31.9909 </r>
       <r>     9.6903     0.0068    31.9999 </r>
       <r>     9.8139     0.0000    32.0000 </r>
       <r>     9.9375     0.0000    32.0000 </r>
       <r>    10.0610     0.0000    32.0000 </r>
       <r>    10.1846     0.0000    32.0000 </r>
       <r>    10.3082     0.0000    32.0000 </r>
       <r>    10.4318     0.0000    32.0000 </r>
       <r>    10.5554     0.0000    32.0000 </r>
       <r>    10.6790     0.0000    32.0000 </r>
       <r>    10.8026     0.0000    32.0000 </r>
       <r>    10.9262     0.0000    32.0000 </r>
       <r>    11.0498     0.0000    32.0000 </r>
       <r>    11.1734     0.0000    32.0000 </r>
       <r>    11.2970     0.0000    32.0000 </r>
       <r>    11.4205     0.0000    32.0000 </r>
       <r>    11.5441     0.0000    32.0000 </r>
       <r>    11.6677     0.0000    32.0000 </r>
       <r>    11.7913     0.0000    32.0000 </r>
       <r>    11.9149     0.0000    32.0000 </r>
       <r>    12.0385     0.0000    32.0000 </r>
       <r>    12.1621     0.0000    32.0000 </r>
       <r>    12.2857     0.0000    32.0000 </r>
       <r>    12.4093     0.0000    32.0000 </r>
       <r>    12.5329     0.0000    32.0000 </r>
       <r>    12.6565     0.0000    32.0000 </r>
       <r>    12.7800     0.0000    32.0000 </r>
       <r>    12.9036     0.0000    32.0000 </r>
       <r>    13.0272     0.0000    32.0000 </r>
       <r>    13.1508     0.0000    32.0000 </r>
       <r>    13.2744     0.0000    32.0000 </r>
       <r>    13.3980     0.0000    32.0000 </r>
       <r>    13.5216     0.0000    32.0000 </r>
       <r>    13.6452     0.0000    32.0000 </r>
       <r>    13.7688     0.0329    32.0006 </r>
       <r>    13.8924     0.2922    32.0199 </r>
       <r>    14.0159     0.5898    32.0801 </r>
       <r>    14.1395     0.5723    32.1526 </r>
       <r>    14.2631     0.6545    32.2284 </r>
       <r>    14.3867     0.7556    32.3147 </r>
       <r>    14.5103     0.8387    32.4127 </r>
       <r>    14.6339     0.9489    32.5234 </r>
       <r>    14.7575     1.0436    32.6463 </r>
       <r>    14.8811     1.2647    32.7940 </r>
       <r>    15.0047     1.3548    32.9580 </r>
       <r>    15.1283     1.3799    33.1260 </r>
       <r>    15.2519     1.4792    33.3036 </r>
       <r>    15.3754     1.5698    33.4940 </r>
       <r>    15.4990     1.6581    33.6928 </r>
       <r>    15.6226     1.7604    33.9036 </r>
       <r>    15.7462     1.8956    34.1296 </r>
       <r>    15.8698     1.9949    34.3701 </r>
       <r>    15.9934     2.1044    34.6245 </r>
       <r>    16.1170     2.2014    34.8928 </r>
       <r>    16.2406     2.1506    35.1665 </r>
       <r>    16.3642     2.1750    35.4328 </r>
       <r>    16.4878     2.2706    35.7076 </r>
       <r>    16.6114     2.3843    35.9956 </r>
       <r>    16.7349     2.5179    36.2993 </r>
       <r>    16.8585     2.6766    36.6207 </r>
       <r>    16.9821     2.8170    36.9586 </r>
       <r>    17.1057     3.3233    37.3290 </r>
       <r>    17.2293     3.2360    37.7388 </r>
       <r>    17.3529     3.3633    38.1393 </r>
       <r>    17.4765     4.0163    38.5933 </r>
       <r>    17.6001     3.6825    39.0823 </r>
       <r>    17.7237     4.3314    39.5707 </r>
       <r>    17.8473     4.2572    40.1193 </r>
       <r>    17.9709     3.5080    40.6174 </r>
       <r>    18.0944     3.4906    41.0607 </r>
       <r>    18.2180     3.4694    41.4989 </r>
       <r>    18.3416     3.0747    41.9061 </r>
       <r>    18.4652     3.2285    42.2918 </r>
       <r>    18.5888     3.1162    42.6853 </r>
       <r>    18.7124     2.9406    43.0600 </r>
       <r>    18.8360     3.0133    43.4243 </r>
       <r>    18.9596     3.3223    43.8143 </r>
       <r>    19.0832     3.1332    44.2174 </r>
       <r>    19.2068     2.9199    44.5951 </r>
       <r>    19.3304     2.8117    44.9502 </r>
       <r>    19.4539     2.7977    45.2941 </r>
       <r>    19.5775     2.8080    45.6419 </r>
       <r>    19.7011     2.8876    45.9947 </r>
       <r>    19.8247     2.7949    46.3470 </r>
       <r>    19.9483     2.6841    46.6844 </r>
       <r>    20.0719     2.6098    47.0109 </r>
       <r>    20.1955     2.2059    47.3161 </r>
       <r>    20.3191     1.6927    47.5570 </r>
       <r>    20.4427     1.1172    47.7308 </r>
       <r>    20.5663     0.6693    47.8402 </r>
       <r>    20.6898     0.3613    47.9027 </r>
       <r>    20.8134     0.2246    47.9380 </r>
       <r>    20.9370     0.1368    47.9597 </r>
       <r>    21.0606     0.0933    47.9734 </r>
       <r>    21.1842     0.0745    47.9838 </r>
       <r>    21.3078     0.0440    47.9912 </r>
       <r>    21.4314     0.0258    47.9953 </r>
       <r>    21.5550     0.0155    47.9978 </r>
       <r>    21.6786     0.0077    47.9993 </r>
       <r>    21.8022     0.0026    47.9999 </r>
       <r>    21.9258     0.0002    48.0000 </r>
       <r>    22.0493     0.0000    48.0000 </r>
       <r>    22.1729     0.0000    48.0000 </r>
       <r>    22.2965     0.0000    48.0000 </r>
       <r>    22.4201     0.0000    48.0000 </r>
       <r>    22.5437     0.0000    48.0000 </r>
       <r>    22.6673     0.0000    48.0000 </r>
       <r>    22.7909     0.0000    48.0000 </r>
       <r>    22.9145     0.0000    48.0000 </r>
       <r>    23.0381     0.0000    48.0000 </r>
       <r>    23.1617     0.0000    48.0000 </r>
       <r>    23.2853     0.0000    48.0000 </r>
       <r>    23.4088     0.0000    48.0000 </r>
       <r>    23.5324     0.0000    48.0000 </r>
       <r>    23.6560     0.0000    48.0000 </r>
      </set>
     </set>
    </array>
   </total>
  </dos>
 </calculation>
 <structure name="finalpos" >
  <crystal>
   <varray name="basis" >
    <v>       3.57371000       0.00000000       0.00000000 </v>
    <v>      -0.10721100       3.57210100       0.00000000 </v>
    <v>      -0.10721100      -0.11047700       3.57039300 </v>
   </varray>
   <i name="volume">     45.57839834 </i>
   <varray name="rec_basis" >
    <v>       0.27982125       0.00839840       0.00866228 </v>
    <v>       0.00000000       0.27994729       0.00866228 </v>
    <v>       0.00000000       0.00000000       0.28008121 </v>
   </varray>
  </crystal>
  <varray name="positions" >
   <v>       0.25000000       0.75000000       0.25000000 </v>
   <v>       0.00000000       0.00000000       0.50000000 </v>
   <v>       0.25000000       0.25000000       0.75000000 </v>
   <v>       0.00000000       0.50000000       0.00000000 </v>
   <v>       0.75000000       0.75000000       0.75000000 </v>
   <v>       0.50000000       0.00000000       0.00000000 </v>
   <v>       0.75000000       0.25000000       0.25000000 </v>
   <v>       0.50000000       0.50000000       0.50000000 </v>
  </varray>
 </structure>
</modeling>
