       N       E                     dE             d eps       ncg     rms          rms(c)
DAV:   1     0.594342591554E+02    0.59434E+02   -0.14546E+04  4040   0.106E+03
DAV:   2    -0.714459952692E+02   -0.13088E+03   -0.12480E+03  5568   0.227E+02
DAV:   3    -0.754670453801E+02   -0.40211E+01   -0.40066E+01  5144   0.369E+01
DAV:   4    -0.755040236807E+02   -0.36978E-01   -0.36945E-01  5064   0.393E+00
DAV:   5    -0.755046834948E+02   -0.65981E-03   -0.65935E-03  5192   0.469E-01    0.102E+01
DAV:   6    -0.732650534930E+02    0.22396E+01   -0.14650E+00  4472   0.701E+00    0.552E+00
DAV:   7    -0.725102050501E+02    0.75485E+00   -0.16298E+00  4648   0.760E+00    0.711E-01
DAV:   8    -0.725182744694E+02   -0.80694E-02   -0.30720E-02  5112   0.103E+00    0.834E-02
DAV:   9    -0.725184769558E+02   -0.20249E-03   -0.41986E-04  4784   0.140E-01    0.290E-02
DAV:  10    -0.725185276848E+02   -0.50729E-04   -0.40885E-05  5096   0.495E-02    0.270E-03
DAV:  11    -0.725185283478E+02   -0.66302E-06   -0.98676E-07  3704   0.708E-03
   1 F= -.72518528E+02 E0= -.72518528E+02  d E =0.000000E+00
