  64  64   0   0
  0.5782669E+01  0.7179999E-09  0.7179998E-09  0.7179999E-09  0.5000000E-15
  1.000000000000000E-004
  CAR 
 unknown system                          
     22.63180613    -13.37995226  301      9.79511475      1.00000000
    -13.380  0.0000E+00  0.0000E+00
    -13.260  0.0000E+00  0.0000E+00
    -13.140  0.0000E+00  0.0000E+00
    -13.020  0.0000E+00  0.0000E+00
    -12.900  0.0000E+00  0.0000E+00
    -12.780  0.0000E+00  0.0000E+00
    -12.660  0.0000E+00  0.0000E+00
    -12.540  0.0000E+00  0.0000E+00
    -12.420  0.0000E+00  0.0000E+00
    -12.300  0.0000E+00  0.0000E+00
    -12.180  0.0000E+00  0.0000E+00
    -12.060  0.3357E-14  0.4030E-15
    -11.939  0.1413E-06  0.1697E-07
    -11.819  0.2999E-02  0.3600E-03
    -11.699  0.2350E+00  0.2857E-01
    -11.579  0.1222E+01  0.1752E+00
    -11.459  0.1406E+01  0.3440E+00
    -11.339  0.2833E+01  0.6840E+00
    -11.219  0.1527E+01  0.8673E+00
    -11.099  0.3541E+01  0.1292E+01
    -10.979  0.2872E+01  0.1637E+01
    -10.859  0.3803E+01  0.2094E+01
    -10.739  0.2367E+01  0.2378E+01
    -10.619  0.4584E+01  0.2928E+01
    -10.499  0.4357E+01  0.3451E+01
    -10.379  0.4996E+01  0.4051E+01
    -10.259  0.2437E+01  0.4343E+01
    -10.139  0.4579E+01  0.4893E+01
    -10.019  0.6406E+01  0.5662E+01
     -9.899  0.5369E+01  0.6306E+01
     -9.779  0.4629E+01  0.6862E+01
     -9.659  0.3989E+01  0.7341E+01
     -9.539  0.6789E+01  0.8156E+01
     -9.419  0.5255E+01  0.8787E+01
     -9.299  0.5535E+01  0.9451E+01
     -9.179  0.6565E+01  0.1024E+02
     -9.059  0.7434E+01  0.1113E+02
     -8.939  0.5975E+01  0.1185E+02
     -8.818  0.5743E+01  0.1254E+02
     -8.698  0.3895E+01  0.1301E+02
     -8.578  0.8925E+01  0.1408E+02
     -8.458  0.7630E+01  0.1499E+02
     -8.338  0.9401E+01  0.1612E+02
     -8.218  0.5584E+01  0.1679E+02
     -8.098  0.6560E+01  0.1758E+02
     -7.978  0.7163E+01  0.1844E+02
     -7.858  0.7933E+01  0.1939E+02
     -7.738  0.6292E+01  0.2015E+02
     -7.618  0.1075E+02  0.2144E+02
     -7.498  0.8853E+01  0.2250E+02
     -7.378  0.7367E+01  0.2338E+02
     -7.258  0.7022E+01  0.2423E+02
     -7.138  0.1208E+02  0.2568E+02
     -7.018  0.9136E+01  0.2677E+02
     -6.898  0.6200E+01  0.2752E+02
     -6.778  0.7861E+01  0.2846E+02
     -6.658  0.1060E+02  0.2973E+02
     -6.538  0.1063E+02  0.3101E+02
     -6.418  0.1117E+02  0.3235E+02
     -6.298  0.1299E+02  0.3391E+02
     -6.178  0.1117E+02  0.3525E+02
     -6.058  0.1011E+02  0.3646E+02
     -5.938  0.9646E+01  0.3762E+02
     -5.817  0.1223E+02  0.3909E+02
     -5.697  0.1256E+02  0.4060E+02
     -5.577  0.1245E+02  0.4209E+02
     -5.457  0.1209E+02  0.4354E+02
     -5.337  0.1031E+02  0.4478E+02
     -5.217  0.1164E+02  0.4618E+02
     -5.097  0.1168E+02  0.4758E+02
     -4.977  0.1082E+02  0.4888E+02
     -4.857  0.8321E+01  0.4988E+02
     -4.737  0.1044E+02  0.5113E+02
     -4.617  0.7203E+01  0.5200E+02
     -4.497  0.8158E+01  0.5298E+02
     -4.377  0.8588E+01  0.5401E+02
     -4.257  0.1035E+02  0.5525E+02
     -4.137  0.7593E+01  0.5616E+02
     -4.017  0.7600E+01  0.5707E+02
     -3.897  0.1101E+02  0.5839E+02
     -3.777  0.7750E+01  0.5932E+02
     -3.657  0.8519E+01  0.6035E+02
     -3.537  0.4617E+01  0.6090E+02
     -3.417  0.5612E+01  0.6157E+02
     -3.297  0.7184E+01  0.6244E+02
     -3.177  0.8944E+01  0.6351E+02
     -3.057  0.7575E+01  0.6442E+02
     -2.937  0.1120E+02  0.6577E+02
     -2.817  0.1144E+02  0.6714E+02
     -2.696  0.1052E+02  0.6840E+02
     -2.576  0.7090E+01  0.6925E+02
     -2.456  0.8164E+01  0.7023E+02
     -2.336  0.1226E+02  0.7170E+02
     -2.216  0.1029E+02  0.7294E+02
     -2.096  0.1034E+02  0.7418E+02
     -1.976  0.1294E+02  0.7573E+02
     -1.856  0.1984E+02  0.7811E+02
     -1.736  0.2762E+02  0.8143E+02
     -1.616  0.2436E+02  0.8435E+02
     -1.496  0.1624E+02  0.8630E+02
     -1.376  0.1413E+02  0.8800E+02
     -1.256  0.1155E+02  0.8939E+02
     -1.136  0.8607E+01  0.9042E+02
     -1.016  0.8671E+01  0.9146E+02
     -0.896  0.1275E+02  0.9299E+02
     -0.776  0.1165E+02  0.9439E+02
     -0.656  0.7386E+01  0.9528E+02
     -0.536  0.1031E+02  0.9651E+02
     -0.416  0.1555E+02  0.9838E+02
     -0.296  0.1496E+02  0.1002E+03
     -0.176  0.7981E+01  0.1011E+03
     -0.056  0.4221E+01  0.1016E+03
      0.064  0.3004E+01  0.1020E+03
      0.184  0.8036E+01  0.1030E+03
      0.305  0.1461E+02  0.1047E+03
      0.425  0.1137E+02  0.1061E+03
      0.545  0.8034E+01  0.1070E+03
      0.665  0.7896E+01  0.1080E+03
      0.785  0.1661E+02  0.1100E+03
      0.905  0.2419E+02  0.1129E+03
      1.025  0.2206E+02  0.1155E+03
      1.145  0.1300E+02  0.1171E+03
      1.265  0.1106E+02  0.1184E+03
      1.385  0.1350E+02  0.1201E+03
      1.505  0.1461E+02  0.1218E+03
      1.625  0.1912E+02  0.1241E+03
      1.745  0.2630E+02  0.1273E+03
      1.865  0.1551E+02  0.1291E+03
      1.985  0.9074E+01  0.1302E+03
      2.105  0.1596E+02  0.1321E+03
      2.225  0.1922E+02  0.1344E+03
      2.345  0.2417E+02  0.1373E+03
      2.465  0.1800E+02  0.1395E+03
      2.585  0.1505E+02  0.1413E+03
      2.705  0.1616E+02  0.1432E+03
      2.825  0.2011E+02  0.1457E+03
      2.945  0.2094E+02  0.1482E+03
      3.065  0.2189E+02  0.1508E+03
      3.185  0.2365E+02  0.1536E+03
      3.305  0.2920E+02  0.1571E+03
      3.426  0.2523E+02  0.1602E+03
      3.546  0.1975E+02  0.1625E+03
      3.666  0.1805E+02  0.1647E+03
      3.786  0.2646E+02  0.1679E+03
      3.906  0.3051E+02  0.1715E+03
      4.026  0.3017E+02  0.1752E+03
      4.146  0.2842E+02  0.1786E+03
      4.266  0.1708E+02  0.1806E+03
      4.386  0.2186E+02  0.1833E+03
      4.506  0.2466E+02  0.1862E+03
      4.626  0.2149E+02  0.1888E+03
      4.746  0.2230E+02  0.1915E+03
      4.866  0.2743E+02  0.1948E+03
      4.986  0.2620E+02  0.1979E+03
      5.106  0.2134E+02  0.2005E+03
      5.226  0.2184E+02  0.2031E+03
      5.346  0.2172E+02  0.2057E+03
      5.466  0.2195E+02  0.2083E+03
      5.586  0.2437E+02  0.2113E+03
      5.706  0.1737E+02  0.2133E+03
      5.826  0.1927E+02  0.2157E+03
      5.946  0.2499E+02  0.2187E+03
      6.066  0.2431E+02  0.2216E+03
      6.186  0.2374E+02  0.2244E+03
      6.306  0.2047E+02  0.2269E+03
      6.427  0.1627E+02  0.2288E+03
      6.547  0.1448E+02  0.2306E+03
      6.667  0.2017E+02  0.2330E+03
      6.787  0.2635E+02  0.2362E+03
      6.907  0.2358E+02  0.2390E+03
      7.027  0.7926E+01  0.2399E+03
      7.147  0.8729E+01  0.2410E+03
      7.267  0.1431E+02  0.2427E+03
      7.387  0.1133E+02  0.2441E+03
      7.507  0.1006E+02  0.2453E+03
      7.627  0.1429E+02  0.2470E+03
      7.747  0.6822E+01  0.2478E+03
      7.867  0.8256E+01  0.2488E+03
      7.987  0.6109E+01  0.2495E+03
      8.107  0.7815E+01  0.2505E+03
      8.227  0.7657E+01  0.2514E+03
      8.347  0.6302E+01  0.2521E+03
      8.467  0.3845E+01  0.2526E+03
      8.587  0.5549E+01  0.2533E+03
      8.707  0.6351E+01  0.2540E+03
      8.827  0.3731E+01  0.2545E+03
      8.947  0.1982E+01  0.2547E+03
      9.067  0.3355E+01  0.2551E+03
      9.187  0.3570E+01  0.2556E+03
      9.307  0.2137E+01  0.2558E+03
      9.427  0.9378E+00  0.2559E+03
      9.548  0.6242E+00  0.2560E+03
      9.668  0.3935E-01  0.2560E+03
      9.788  0.1653E-04  0.2560E+03
      9.908  0.4012E-11  0.2560E+03
     10.028  0.0000E+00  0.2560E+03
     10.148  0.0000E+00  0.2560E+03
     10.268  0.0000E+00  0.2560E+03
     10.388  0.0000E+00  0.2560E+03
     10.508  0.0000E+00  0.2560E+03
     10.628  0.0000E+00  0.2560E+03
     10.748  0.0000E+00  0.2560E+03
     10.868  0.0000E+00  0.2560E+03
     10.988  0.0000E+00  0.2560E+03
     11.108  0.0000E+00  0.2560E+03
     11.228  0.0000E+00  0.2560E+03
     11.348  0.0000E+00  0.2560E+03
     11.468  0.0000E+00  0.2560E+03
     11.588  0.0000E+00  0.2560E+03
     11.708  0.0000E+00  0.2560E+03
     11.828  0.0000E+00  0.2560E+03
     11.948  0.0000E+00  0.2560E+03
     12.068  0.0000E+00  0.2560E+03
     12.188  0.0000E+00  0.2560E+03
     12.308  0.0000E+00  0.2560E+03
     12.428  0.0000E+00  0.2560E+03
     12.549  0.0000E+00  0.2560E+03
     12.669  0.0000E+00  0.2560E+03
     12.789  0.0000E+00  0.2560E+03
     12.909  0.0000E+00  0.2560E+03
     13.029  0.0000E+00  0.2560E+03
     13.149  0.0000E+00  0.2560E+03
     13.269  0.1075E-11  0.2560E+03
     13.389  0.1092E-04  0.2560E+03
     13.509  0.6584E-01  0.2560E+03
     13.629  0.9821E+00  0.2561E+03
     13.749  0.8424E+00  0.2562E+03
     13.869  0.3409E+01  0.2566E+03
     13.989  0.5254E+01  0.2573E+03
     14.109  0.6963E+01  0.2581E+03
     14.229  0.5391E+01  0.2587E+03
     14.349  0.3324E+01  0.2591E+03
     14.469  0.6402E+01  0.2599E+03
     14.589  0.8874E+01  0.2610E+03
     14.709  0.1295E+02  0.2625E+03
     14.829  0.1360E+02  0.2642E+03
     14.949  0.1421E+02  0.2659E+03
     15.069  0.1141E+02  0.2672E+03
     15.189  0.8983E+01  0.2683E+03
     15.309  0.1350E+02  0.2699E+03
     15.429  0.1520E+02  0.2718E+03
     15.549  0.1341E+02  0.2734E+03
     15.670  0.1940E+02  0.2757E+03
     15.790  0.2011E+02  0.2781E+03
     15.910  0.1843E+02  0.2803E+03
     16.030  0.1641E+02  0.2823E+03
     16.150  0.1945E+02  0.2846E+03
     16.270  0.1875E+02  0.2869E+03
     16.390  0.1857E+02  0.2891E+03
     16.510  0.2506E+02  0.2921E+03
     16.630  0.1689E+02  0.2942E+03
     16.750  0.1855E+02  0.2964E+03
     16.870  0.2116E+02  0.2989E+03
     16.990  0.2025E+02  0.3014E+03
     17.110  0.3154E+02  0.3051E+03
     17.230  0.3245E+02  0.3090E+03
     17.350  0.3941E+02  0.3138E+03
     17.470  0.3120E+02  0.3175E+03
     17.590  0.2966E+02  0.3211E+03
     17.710  0.2897E+02  0.3245E+03
     17.830  0.1983E+02  0.3269E+03
     17.950  0.3096E+02  0.3306E+03
     18.070  0.3999E+02  0.3354E+03
     18.190  0.3702E+02  0.3399E+03
     18.310  0.3612E+02  0.3442E+03
     18.430  0.3012E+02  0.3478E+03
     18.550  0.3590E+02  0.3521E+03
     18.671  0.3110E+02  0.3559E+03
     18.791  0.2542E+02  0.3589E+03
     18.911  0.1965E+02  0.3613E+03
     19.031  0.2043E+02  0.3637E+03
     19.151  0.2423E+02  0.3667E+03
     19.271  0.2943E+02  0.3702E+03
     19.391  0.2869E+02  0.3736E+03
     19.511  0.2668E+02  0.3768E+03
     19.631  0.1732E+02  0.3789E+03
     19.751  0.1312E+02  0.3805E+03
     19.871  0.5979E+01  0.3812E+03
     19.991  0.5068E+01  0.3818E+03
     20.111  0.4642E+01  0.3824E+03
     20.231  0.4004E+01  0.3828E+03
     20.351  0.3461E+01  0.3833E+03
     20.471  0.1614E+01  0.3835E+03
     20.591  0.1130E+01  0.3836E+03
     20.711  0.1190E+01  0.3837E+03
     20.831  0.9161E+00  0.3838E+03
     20.951  0.6633E+00  0.3839E+03
     21.071  0.6053E+00  0.3840E+03
     21.191  0.1908E-01  0.3840E+03
     21.311  0.7433E-06  0.3840E+03
     21.431  0.1523E-13  0.3840E+03
     21.551  0.0000E+00  0.3840E+03
     21.671  0.0000E+00  0.3840E+03
     21.792  0.0000E+00  0.3840E+03
     21.912  0.0000E+00  0.3840E+03
     22.032  0.0000E+00  0.3840E+03
     22.152  0.0000E+00  0.3840E+03
     22.272  0.0000E+00  0.3840E+03
     22.392  0.0000E+00  0.3840E+03
     22.512  0.0000E+00  0.3840E+03
     22.632  0.0000E+00  0.3840E+03
