  64   64
1 1
    42.763487202969998    -0.925053228870000    -0.915939402180000
    -0.925053228870000    42.781981860879995    -0.906830019560000
    -0.915939402180000    -0.906830019560000    42.799943230389999
1 2
    -0.160935028670000    -0.001072462190000    -0.001061892510000
    -0.001072462190000    -0.092703180090000     0.000270247500000
    -0.001061892510000     0.000270247500000    -0.092708585040000
1 3
    -0.092731526050000    -0.001754446770000     0.000259677820000
    -0.001754446770000    -0.160906802820000    -0.001064534930000
     0.000259677820000    -0.001064534930000    -0.092708585040000
1 4
    -0.113456386440000     0.005867253390000     0.001360005530000
     0.005867253390000    -0.113573733910000     0.001346433100000
     0.001360005530000     0.001346433100000     0.567967159750000
1 5
    -0.092731526050000     0.000242261870000    -0.001756969080000
     0.000242261870000    -0.092736330450000    -0.001739433020000
    -0.001756969080000    -0.001739433020000    -0.160878937300000
1 6
    -0.113456386440000     0.001418138770000     0.005853440740000
     0.001418138770000     0.567926922900000    -0.005401346700000
     0.005853440740000    -0.005401346700000    -0.113533617170000
1 7
     0.567887286600000    -0.005395701530000    -0.005342492800000
    -0.005395701530000    -0.113416630030000     0.005907250020000
    -0.005342492800000     0.005907250020000    -0.113533617170000
1 8
    -0.051577636200000    -0.001182603060000    -0.001170952390000
    -0.001182603060000    -0.051553974530000    -0.001159181610000
    -0.001170952390000    -0.001159181610000    -0.051531033520000
1 9
     0.149712430710000     0.086001282310000    -0.019561114600000
     0.086001282310000     0.058007124500000    -0.090230235300000
    -0.019561114600000    -0.090230235300000     0.164547216810000
1 10
    -0.084546149660000     0.112564089250000     0.214657709360000
     0.112564089250000    -0.091500878990000    -0.217970102940000
     0.214657709360000    -0.217970102940000    -0.346719254910000
1 11
    -8.984737026179999     2.069085845010000     2.048700655700000
     2.069085845010000    -9.087223405989999    -2.106214968870000
     2.048700655700000    -2.106214968870000    -9.045515568819999
1 12
     0.077871636960000     0.098592413610000     0.097620963930000
     0.098592413610000     0.153181567840000     0.029715694440000
     0.097620963930000     0.029715694440000     0.152593148950000
1 13
    -0.327567955630000     0.213271399740000     0.211170195400000
     0.213271399740000    -0.068866149490000    -0.093383603240000
     0.211170195400000    -0.093383603240000    -0.067016935930000
1 14
     0.033046584960000     0.031714805280000     0.031402399170000
     0.031714805280000     0.033982361970000    -0.029760375360000
     0.031402399170000    -0.029760375360000     0.034571741740000
1 15
     0.149712430710000    -0.018708693930000     0.086190695780000
    -0.018708693930000     0.162750130990000    -0.091267385150000
     0.086190695780000    -0.091267385150000     0.059804210320000
1 16
    -0.084546149660000     0.215761640370000     0.110433217740000
     0.215761640370000    -0.351010064550000    -0.215400589710000
     0.110433217740000    -0.215400589710000    -0.087209829130000
1 17
     1.385107318900000    -0.721686099730000     0.715334322600000
     0.708153906580000    -1.509119212360000     1.580646278790000
    -0.728733193650000     1.596960339650000    -1.540581906750000
1 18
     0.057639227570000    -0.038087121220000     0.035019631930000
     0.034640804990000    -0.082728284810000    -0.076807702580000
    -0.038431957030000    -0.077662285230000    -0.081198804070000
1 19
     1.357705063170000    -0.726327990900000    -0.719172077320000
     0.656789585740000    -1.469085228150000    -1.505094926810000
     0.650318659490000    -1.505094926810000    -1.439280532200000
1 20
     0.054067996940000    -0.040677893920000    -0.040277086850000
     0.036001290960000    -0.082330120160000     0.073421681570000
     0.035646606130000     0.073421681570000    -0.083784051710000
1 21
     1.357705063170000     0.656789585740000     0.650318659490000
    -0.726327990900000    -1.469085228150000    -1.505094926810000
    -0.719172077320000    -1.505094926810000    -1.439280532200000
1 22
     0.054067996940000     0.036001290960000     0.035646606130000
    -0.040677893920000    -0.082330120160000     0.073421681570000
    -0.040277086850000     0.073421681570000    -0.083784051710000
1 23
     1.385107318900000     0.708153906580000    -0.728733193650000
    -0.721686099730000    -1.509119212360000     1.596960339650000
     0.715334322600000     1.580646278790000    -1.540581906750000
1 24
     0.057639227570000     0.034640804990000    -0.038431957030000
    -0.038087121220000    -0.082728284810000    -0.077662285230000
     0.035019631930000    -0.076807702580000    -0.081198804070000
1 25
    -8.386119836299999    -1.320737607370000    -1.307725370410000
    -1.320737607370000    -8.359702002130000    -1.294711812240000
    -1.307725370410000    -1.294711812240000    -8.334064042189999
1 26
     0.065369387060000    -0.098105127340000    -0.097138602170000
    -0.098105127340000     0.155411530100000     0.027014660760000
    -0.097138602170000     0.027014660760000     0.154876560160000
1 27
     0.153440525000000    -0.098985893970000     0.026042009980000
    -0.098985893970000     0.067340392160000    -0.097403925160000
     0.026042009980000    -0.097403925160000     0.154876560160000
1 28
    -0.084038084360000    -0.094842459300000    -0.205253096360000
    -0.094842459300000    -0.082141067020000    -0.203210625810000
    -0.205253096360000    -0.203210625810000    -0.341931670310000
1 29
     0.153440525000000     0.025060591170000    -0.099238845630000
     0.025060591170000     0.152939305970000    -0.098251421320000
    -0.099238845630000    -0.098251421320000     0.069277646350000
1 30
    -0.084038084360000    -0.206182027100000    -0.092805633920000
    -0.206182027100000    -0.345929891990000    -0.200598713750000
    -0.092805633920000    -0.200598713750000    -0.078142845340000
1 31
    -0.350027204420000    -0.203521950930000    -0.201516834590000
    -0.203521950930000    -0.079940892040000    -0.090794992520000
    -0.201516834590000    -0.090794992520000    -0.078142845340000
1 32
     0.030817103140000    -0.031073177660000    -0.030767137380000
    -0.031073177660000     0.031438552280000    -0.030460976990000
    -0.030767137380000    -0.030460976990000     0.032041744700000
1 33
    -1.469498526660000     0.685063119410000    -1.512211684530000
    -0.698054577340000     1.358117520910000    -0.704084940110000
    -1.498516742330000     0.665337213890000    -1.439280532200000
1 34
    -1.508964991120000     0.737095732290000     1.587720517570000
    -0.692744033800000     1.384952977550000     0.699492294040000
     1.589593152580000    -0.744666025370000    -1.540581906750000
1 35
    -0.082363270520000     0.037365740560000     0.073015229330000
    -0.039313444320000     0.054101027190000    -0.041009277410000
     0.073774444640000     0.034910692160000    -0.083784051710000
1 36
    -0.082748703510000     0.036044770780000    -0.076453738410000
    -0.036683155430000     0.057659646270000     0.035785933730000
    -0.078042793710000    -0.037653404010000    -0.081198804070000
1 37
    -1.508964991120000    -0.692744033800000     1.589593152580000
     0.737095732290000     1.384952977550000    -0.744666025370000
     1.587720517570000     0.699492294040000    -1.540581906750000
1 38
    -1.469498526660000    -0.698054577340000    -1.498516742330000
     0.685063119410000     1.358117520910000     0.665337213890000
    -1.512211684530000    -0.704084940110000    -1.439280532200000
1 39
    -0.082748703510000    -0.036683155430000    -0.078042793710000
     0.036044770780000     0.057659646270000    -0.037653404010000
    -0.076453738410000     0.035785933730000    -0.081198804070000
1 40
    -0.082363270520000    -0.039313444320000     0.073774444640000
     0.037365740560000     0.054101027190000     0.034910692160000
     0.073015229330000    -0.041009277410000    -0.083784051710000
1 41
     0.162374787240000    -0.090582878260000    -0.017939269270000
    -0.090582878260000     0.061537637840000     0.087975890710000
    -0.017939269270000     0.087975890710000     0.148354346940000
1 42
    -0.064626867040000    -0.089177230930000     0.211535209690000
    -0.089177230930000    -0.062843233540000     0.209430402050000
     0.211535209690000     0.209430402050000    -0.335980940470000
1 43
    -9.045835661969999    -2.065029850420000     2.090245503600000
    -2.065029850420000    -9.004531994950000     2.069447376110000
     2.090245503600000     2.069447376110000    -9.067109184840000
1 44
     0.059736228060000    -0.089556538310000     0.087792122410000
    -0.089556538310000     0.164176197020000    -0.018818234250000
     0.087792122410000    -0.018818234250000     0.148354346940000
1 45
    -0.346668568490000    -0.212112818680000     0.220493974370000
    -0.212112818680000    -0.084980827750000     0.112543070000000
     0.220493974370000     0.112543070000000    -0.091116767210000
1 46
     0.034616542770000    -0.029129557640000     0.031989136520000
    -0.029129557640000     0.035199196380000     0.031670845020000
     0.031989136520000     0.031670845020000     0.031784949520000
1 47
     0.155145846780000     0.031657392700000     0.097510943170000
     0.031657392700000     0.154512626860000     0.096540694590000
     0.097510943170000     0.096540694590000     0.073988000220000
1 48
    -0.089249056710000    -0.214687136310000     0.114742404210000
    -0.214687136310000    -0.342400339530000     0.219357493550000
     0.114742404210000     0.219357493550000    -0.091116767210000
1 49
    -1.508964991120000     1.582656439750000    -0.708448536410000
     1.594940449780000    -1.540742133490000     0.728460543950000
     0.721339822600000    -0.715697775460000     1.385113564620000
1 50
    -1.469498526660000    -1.505354604630000    -0.683183758240000
    -1.505354724740000    -1.439389712190000    -0.676385892570000
     0.700001800660000     0.693036261430000     1.358227061230000
1 51
    -1.469498526660000    -1.505354724740000     0.700001800660000
    -1.505354604630000    -1.439389712190000     0.693036261430000
    -0.683183758240000    -0.676385892570000     1.358227061230000
1 52
    -1.508964991120000     1.594940449780000     0.721339822600000
     1.582656439750000    -1.540742133490000    -0.715697775460000
    -0.708448536410000     0.728460543950000     1.385113564620000
1 53
    -0.082748703510000    -0.078402162830000    -0.035908686150000
    -0.076093048080000    -0.081203608470000     0.037160832900000
     0.036799902350000    -0.036278504840000     0.057664450670000
1 54
    -0.082363270520000     0.073381684940000    -0.040042031580000
     0.073381684940000    -0.083830894610000    -0.039643626710000
     0.036640996820000     0.036276342860000     0.054147990200000
1 55
    -0.082363270520000     0.073381684940000     0.036640996820000
     0.073381684940000    -0.083830894610000     0.036276342860000
    -0.040042031580000    -0.039643626710000     0.054147990200000
1 56
    -0.082748703510000    -0.076093048080000     0.036799902350000
    -0.078402162830000    -0.081203608470000    -0.036278504840000
    -0.035908686150000     0.037160832900000     0.057664450670000
1 57
    -9.045835661969999     2.069697325020000    -2.085623911020000
     2.069697325020000    -9.026125731079999     2.069661171910000
    -2.085623911020000     2.069661171910000    -9.045515568819999
1 58
     0.059736228060000     0.086901146430000    -0.090421330310000
     0.086901146430000     0.147983207040000    -0.018657887400000
    -0.090421330310000    -0.018657887400000     0.164547216810000
1 59
     0.155145846780000     0.097819625870000     0.030690387090000
     0.097819625870000     0.075907358020000     0.097318887280000
     0.030690387090000     0.097318887280000     0.152593148950000
1 60
    -0.089249056710000     0.112611172370000    -0.215812687120000
     0.112611172370000    -0.086797971940000     0.216826655740000
    -0.215812687120000     0.216826655740000    -0.346719254910000
1 61
     0.162374787240000    -0.018835289870000    -0.090400911610000
    -0.018835289870000     0.150087774460000     0.087099087710000
    -0.090400911610000     0.087099087710000     0.059804210320000
1 62
    -0.064626867040000     0.210641951620000    -0.091267265040000
     0.210641951620000    -0.331807238080000     0.212093480970000
    -0.091267265040000     0.212093480970000    -0.067016935930000
1 63
    -0.346668568490000     0.218383041120000    -0.214285488470000
     0.218383041120000    -0.088887765830000     0.112581745420000
    -0.214285488470000     0.112581745420000    -0.087209829130000
1 64
     0.034616542770000     0.031699190980000    -0.029444846390000
     0.031699190980000     0.032412404160000     0.031698350210000
    -0.029444846390000     0.031698350210000     0.034571741740000
2 1
    -0.160935028670000    -0.001072462190000    -0.001061892510000
    -0.001072462190000    -0.092703180090000     0.000270247500000
    -0.001061892510000     0.000270247500000    -0.092708585040000
2 2
    42.763487202969998    -0.925053228870000    -0.915939402180000
    -0.925053228870000    42.781981860879995    -0.906830019560000
    -0.915939402180000    -0.906830019560000    42.799943230389999
2 3
    -0.113456386440000     0.005867253390000     0.001360005530000
     0.005867253390000    -0.113573733910000     0.001346433100000
     0.001360005530000     0.001346433100000     0.567967159750000
2 4
    -0.092731526050000    -0.001754446770000     0.000259677820000
    -0.001754446770000    -0.160906802820000    -0.001064534930000
     0.000259677820000    -0.001064534930000    -0.092708585040000
2 5
    -0.113456386440000     0.001418138770000     0.005853440740000
     0.001418138770000     0.567926922900000    -0.005401346700000
     0.005853440740000    -0.005401346700000    -0.113533617170000
2 6
    -0.092731526050000     0.000242261870000    -0.001756969080000
     0.000242261870000    -0.092736330450000    -0.001739433020000
    -0.001756969080000    -0.001739433020000    -0.160878937300000
2 7
    -0.051577636200000    -0.001182603060000    -0.001170952390000
    -0.001182603060000    -0.051553974530000    -0.001159181610000
    -0.001170952390000    -0.001159181610000    -0.051531033520000
2 8
     0.567887286600000    -0.005395701530000    -0.005342492800000
    -0.005395701530000    -0.113416630030000     0.005907250020000
    -0.005342492800000     0.005907250020000    -0.113533617170000
2 9
    -0.084546149660000     0.112564089250000     0.214657709360000
     0.112564089250000    -0.091500878990000    -0.217970102940000
     0.214657709360000    -0.217970102940000    -0.346719254910000
2 10
     0.149712430710000     0.086001282310000    -0.019561114600000
     0.086001282310000     0.058007124500000    -0.090230235300000
    -0.019561114600000    -0.090230235300000     0.164547216810000
2 11
     0.077871636960000     0.098592413610000     0.097620963930000
     0.098592413610000     0.153181567840000     0.029715694440000
     0.097620963930000     0.029715694440000     0.152593148950000
2 12
    -8.984737026179999     2.069085845010000     2.048700655700000
     2.069085845010000    -9.087223405989999    -2.106214968870000
     2.048700655700000    -2.106214968870000    -9.045515568819999
2 13
     0.033046584960000     0.031714805280000     0.031402399170000
     0.031714805280000     0.033982361970000    -0.029760375360000
     0.031402399170000    -0.029760375360000     0.034571741740000
2 14
    -0.327567955630000     0.213271399740000     0.211170195400000
     0.213271399740000    -0.068866149490000    -0.093383603240000
     0.211170195400000    -0.093383603240000    -0.067016935930000
2 15
    -0.084546149660000     0.215761640370000     0.110433217740000
     0.215761640370000    -0.351010064550000    -0.215400589710000
     0.110433217740000    -0.215400589710000    -0.087209829130000
2 16
     0.149712430710000    -0.018708693930000     0.086190695780000
    -0.018708693930000     0.162750130990000    -0.091267385150000
     0.086190695780000    -0.091267385150000     0.059804210320000
2 17
     0.057639227570000    -0.038087121220000     0.035019631930000
     0.034640804990000    -0.082728284810000    -0.076807702580000
    -0.038431957030000    -0.077662285230000    -0.081198804070000
2 18
     1.385107318900000    -0.721686099730000     0.715334322600000
     0.708153906580000    -1.509119212360000     1.580646278790000
    -0.728733193650000     1.596960339650000    -1.540581906750000
2 19
     0.054067996940000    -0.040677893920000    -0.040277086850000
     0.036001290960000    -0.082330120160000     0.073421681570000
     0.035646606130000     0.073421681570000    -0.083784051710000
2 20
     1.357705063170000    -0.726327990900000    -0.719172077320000
     0.656789585740000    -1.469085228150000    -1.505094926810000
     0.650318659490000    -1.505094926810000    -1.439280532200000
2 21
     0.054067996940000     0.036001290960000     0.035646606130000
    -0.040677893920000    -0.082330120160000     0.073421681570000
    -0.040277086850000     0.073421681570000    -0.083784051710000
2 22
     1.357705063170000     0.656789585740000     0.650318659490000
    -0.726327990900000    -1.469085228150000    -1.505094926810000
    -0.719172077320000    -1.505094926810000    -1.439280532200000
2 23
     0.057639227570000     0.034640804990000    -0.038431957030000
    -0.038087121220000    -0.082728284810000    -0.077662285230000
     0.035019631930000    -0.076807702580000    -0.081198804070000
2 24
     1.385107318900000     0.708153906580000    -0.728733193650000
    -0.721686099730000    -1.509119212360000     1.596960339650000
     0.715334322600000     1.580646278790000    -1.540581906750000
2 25
     0.065369387060000    -0.098105127340000    -0.097138602170000
    -0.098105127340000     0.155411530100000     0.027014660760000
    -0.097138602170000     0.027014660760000     0.154876560160000
2 26
    -8.386119836299999    -1.320737607370000    -1.307725370410000
    -1.320737607370000    -8.359702002130000    -1.294711812240000
    -1.307725370410000    -1.294711812240000    -8.334064042189999
2 27
    -0.084038084360000    -0.094842459300000    -0.205253096360000
    -0.094842459300000    -0.082141067020000    -0.203210625810000
    -0.205253096360000    -0.203210625810000    -0.341931670310000
2 28
     0.153440525000000    -0.098985893970000     0.026042009980000
    -0.098985893970000     0.067340392160000    -0.097403925160000
     0.026042009980000    -0.097403925160000     0.154876560160000
2 29
    -0.084038084360000    -0.206182027100000    -0.092805633920000
    -0.206182027100000    -0.345929891990000    -0.200598713750000
    -0.092805633920000    -0.200598713750000    -0.078142845340000
2 30
     0.153440525000000     0.025060591170000    -0.099238845630000
     0.025060591170000     0.152939305970000    -0.098251421320000
    -0.099238845630000    -0.098251421320000     0.069277646350000
2 31
     0.030817103140000    -0.031073177660000    -0.030767137380000
    -0.031073177660000     0.031438552280000    -0.030460976990000
    -0.030767137380000    -0.030460976990000     0.032041744700000
2 32
    -0.350027204420000    -0.203521950930000    -0.201516834590000
    -0.203521950930000    -0.079940892040000    -0.090794992520000
    -0.201516834590000    -0.090794992520000    -0.078142845340000
2 33
    -1.508964991120000     0.737095732290000     1.587720517570000
    -0.692744033800000     1.384952977550000     0.699492294040000
     1.589593152580000    -0.744666025370000    -1.540581906750000
2 34
    -1.469498526660000     0.685063119410000    -1.512211684530000
    -0.698054577340000     1.358117520910000    -0.704084940110000
    -1.498516742330000     0.665337213890000    -1.439280532200000
2 35
    -0.082748703510000     0.036044770780000    -0.076453738410000
    -0.036683155430000     0.057659646270000     0.035785933730000
    -0.078042793710000    -0.037653404010000    -0.081198804070000
2 36
    -0.082363270520000     0.037365740560000     0.073015229330000
    -0.039313444320000     0.054101027190000    -0.041009277410000
     0.073774444640000     0.034910692160000    -0.083784051710000
2 37
    -1.469498526660000    -0.698054577340000    -1.498516742330000
     0.685063119410000     1.358117520910000     0.665337213890000
    -1.512211684530000    -0.704084940110000    -1.439280532200000
2 38
    -1.508964991120000    -0.692744033800000     1.589593152580000
     0.737095732290000     1.384952977550000    -0.744666025370000
     1.587720517570000     0.699492294040000    -1.540581906750000
2 39
    -0.082363270520000    -0.039313444320000     0.073774444640000
     0.037365740560000     0.054101027190000     0.034910692160000
     0.073015229330000    -0.041009277410000    -0.083784051710000
2 40
    -0.082748703510000    -0.036683155430000    -0.078042793710000
     0.036044770780000     0.057659646270000    -0.037653404010000
    -0.076453738410000     0.035785933730000    -0.081198804070000
2 41
    -0.064626867040000    -0.089177230930000     0.211535209690000
    -0.089177230930000    -0.062843233540000     0.209430402050000
     0.211535209690000     0.209430402050000    -0.335980940470000
2 42
     0.162374787240000    -0.090582878260000    -0.017939269270000
    -0.090582878260000     0.061537637840000     0.087975890710000
    -0.017939269270000     0.087975890710000     0.148354346940000
2 43
     0.059736228060000    -0.089556538310000     0.087792122410000
    -0.089556538310000     0.164176197020000    -0.018818234250000
     0.087792122410000    -0.018818234250000     0.148354346940000
2 44
    -9.045835661969999    -2.065029850420000     2.090245503600000
    -2.065029850420000    -9.004531994950000     2.069447376110000
     2.090245503600000     2.069447376110000    -9.067109184840000
2 45
     0.034616542770000    -0.029129557640000     0.031989136520000
    -0.029129557640000     0.035199196380000     0.031670845020000
     0.031989136520000     0.031670845020000     0.031784949520000
2 46
    -0.346668568490000    -0.212112818680000     0.220493974370000
    -0.212112818680000    -0.084980827750000     0.112543070000000
     0.220493974370000     0.112543070000000    -0.091116767210000
2 47
    -0.089249056710000    -0.214687136310000     0.114742404210000
    -0.214687136310000    -0.342400339530000     0.219357493550000
     0.114742404210000     0.219357493550000    -0.091116767210000
2 48
     0.155145846780000     0.031657392700000     0.097510943170000
     0.031657392700000     0.154512626860000     0.096540694590000
     0.097510943170000     0.096540694590000     0.073988000220000
2 49
    -1.469498526660000    -1.505354604630000    -0.683183758240000
    -1.505354724740000    -1.439389712190000    -0.676385892570000
     0.700001800660000     0.693036261430000     1.358227061230000
2 50
    -1.508964991120000     1.582656439750000    -0.708448536410000
     1.594940449780000    -1.540742133490000     0.728460543950000
     0.721339822600000    -0.715697775460000     1.385113564620000
2 51
    -1.508964991120000     1.594940449780000     0.721339822600000
     1.582656439750000    -1.540742133490000    -0.715697775460000
    -0.708448536410000     0.728460543950000     1.385113564620000
2 52
    -1.469498526660000    -1.505354724740000     0.700001800660000
    -1.505354604630000    -1.439389712190000     0.693036261430000
    -0.683183758240000    -0.676385892570000     1.358227061230000
2 53
    -0.082363270520000     0.073381684940000    -0.040042031580000
     0.073381684940000    -0.083830894610000    -0.039643626710000
     0.036640996820000     0.036276342860000     0.054147990200000
2 54
    -0.082748703510000    -0.078402162830000    -0.035908686150000
    -0.076093048080000    -0.081203608470000     0.037160832900000
     0.036799902350000    -0.036278504840000     0.057664450670000
2 55
    -0.082748703510000    -0.076093048080000     0.036799902350000
    -0.078402162830000    -0.081203608470000    -0.036278504840000
    -0.035908686150000     0.037160832900000     0.057664450670000
2 56
    -0.082363270520000     0.073381684940000     0.036640996820000
     0.073381684940000    -0.083830894610000     0.036276342860000
    -0.040042031580000    -0.039643626710000     0.054147990200000
2 57
     0.059736228060000     0.086901146430000    -0.090421330310000
     0.086901146430000     0.147983207040000    -0.018657887400000
    -0.090421330310000    -0.018657887400000     0.164547216810000
2 58
    -9.045835661969999     2.069697325020000    -2.085623911020000
     2.069697325020000    -9.026125731079999     2.069661171910000
    -2.085623911020000     2.069661171910000    -9.045515568819999
2 59
    -0.089249056710000     0.112611172370000    -0.215812687120000
     0.112611172370000    -0.086797971940000     0.216826655740000
    -0.215812687120000     0.216826655740000    -0.346719254910000
2 60
     0.155145846780000     0.097819625870000     0.030690387090000
     0.097819625870000     0.075907358020000     0.097318887280000
     0.030690387090000     0.097318887280000     0.152593148950000
2 61
    -0.064626867040000     0.210641951620000    -0.091267265040000
     0.210641951620000    -0.331807238080000     0.212093480970000
    -0.091267265040000     0.212093480970000    -0.067016935930000
2 62
     0.162374787240000    -0.018835289870000    -0.090400911610000
    -0.018835289870000     0.150087774460000     0.087099087710000
    -0.090400911610000     0.087099087710000     0.059804210320000
2 63
     0.034616542770000     0.031699190980000    -0.029444846390000
     0.031699190980000     0.032412404160000     0.031698350210000
    -0.029444846390000     0.031698350210000     0.034571741740000
2 64
    -0.346668568490000     0.218383041120000    -0.214285488470000
     0.218383041120000    -0.088887765830000     0.112581745420000
    -0.214285488470000     0.112581745420000    -0.087209829130000
3 1
    -0.092731526050000    -0.001754446770000     0.000259677820000
    -0.001754446770000    -0.160906802820000    -0.001064534930000
     0.000259677820000    -0.001064534930000    -0.092708585040000
3 2
    -0.113456386440000     0.005867253390000     0.001360005530000
     0.005867253390000    -0.113573733910000     0.001346433100000
     0.001360005530000     0.001346433100000     0.567967159750000
3 3
    42.763487202969998    -0.925053228870000    -0.915939402180000
    -0.925053228870000    42.781981860879995    -0.906830019560000
    -0.915939402180000    -0.906830019560000    42.799943230389999
3 4
    -0.160935028670000    -0.001072462190000    -0.001061892510000
    -0.001072462190000    -0.092703180090000     0.000270247500000
    -0.001061892510000     0.000270247500000    -0.092708585040000
3 5
     0.567887286600000    -0.005395701530000    -0.005342492800000
    -0.005395701530000    -0.113416630030000     0.005907250020000
    -0.005342492800000     0.005907250020000    -0.113533617170000
3 6
    -0.051577636200000    -0.001182603060000    -0.001170952390000
    -0.001182603060000    -0.051553974530000    -0.001159181610000
    -0.001170952390000    -0.001159181610000    -0.051531033520000
3 7
    -0.092731526050000     0.000242261870000    -0.001756969080000
     0.000242261870000    -0.092736330450000    -0.001739433020000
    -0.001756969080000    -0.001739433020000    -0.160878937300000
3 8
    -0.113456386440000     0.001418138770000     0.005853440740000
     0.001418138770000     0.567926922900000    -0.005401346700000
     0.005853440740000    -0.005401346700000    -0.113533617170000
3 9
    -8.984737026179999     2.069085845010000     2.048700655700000
     2.069085845010000    -9.087223405989999    -2.106214968870000
     2.048700655700000    -2.106214968870000    -9.045515568819999
3 10
     0.077871636960000     0.098592413610000     0.097620963930000
     0.098592413610000     0.153181567840000     0.029715694440000
     0.097620963930000     0.029715694440000     0.152593148950000
3 11
     0.149712430710000     0.086001282310000    -0.019561114600000
     0.086001282310000     0.058007124500000    -0.090230235300000
    -0.019561114600000    -0.090230235300000     0.164547216810000
3 12
    -0.084546149660000     0.112564089250000     0.214657709360000
     0.112564089250000    -0.091500878990000    -0.217970102940000
     0.214657709360000    -0.217970102940000    -0.346719254910000
3 13
     0.149712430710000    -0.018708693930000     0.086190695780000
    -0.018708693930000     0.162750130990000    -0.091267385150000
     0.086190695780000    -0.091267385150000     0.059804210320000
3 14
    -0.084546149660000     0.215761640370000     0.110433217740000
     0.215761640370000    -0.351010064550000    -0.215400589710000
     0.110433217740000    -0.215400589710000    -0.087209829130000
3 15
    -0.327567955630000     0.213271399740000     0.211170195400000
     0.213271399740000    -0.068866149490000    -0.093383603240000
     0.211170195400000    -0.093383603240000    -0.067016935930000
3 16
     0.033046584960000     0.031714805280000     0.031402399170000
     0.031714805280000     0.033982361970000    -0.029760375360000
     0.031402399170000    -0.029760375360000     0.034571741740000
3 17
     1.357705063170000    -0.726327990900000    -0.719172077320000
     0.656789585740000    -1.469085228150000    -1.505094926810000
     0.650318659490000    -1.505094926810000    -1.439280532200000
3 18
     0.054067996940000    -0.040677893920000    -0.040277086850000
     0.036001290960000    -0.082330120160000     0.073421681570000