       N       E                     dE             d eps       ncg     rms          rms(c)
DAV:   1     0.505223817746E+03    0.50522E+03   -0.11345E+05 12288   0.106E+03
DAV:   2    -0.559051890341E+03   -0.10643E+04   -0.10148E+04 16256   0.230E+02
DAV:   3    -0.600363865869E+03   -0.41312E+02   -0.41064E+02 16224   0.425E+01
DAV:   4    -0.600819415555E+03   -0.45555E+00   -0.45464E+00 16416   0.492E+00
DAV:   5    -0.600828623775E+03   -0.92082E-02   -0.92045E-02 15296   0.651E-01    0.263E+01
DAV:   6    -0.586492536388E+03    0.14336E+02   -0.95159E+00 14560   0.618E+00    0.144E+01
DAV:   7    -0.581649882218E+03    0.48427E+01   -0.10929E+01 14976   0.682E+00    0.195E+00
DAV:   8    -0.581708923599E+03   -0.59041E-01   -0.25101E-01 15456   0.100E+00    0.213E-01
DAV:   9    -0.581711079295E+03   -0.21557E-02   -0.36818E-03 15840   0.145E-01    0.804E-02
DAV:  10    -0.581711541710E+03   -0.46241E-03   -0.40611E-04 14944   0.531E-02    0.820E-03
DAV:  11    -0.581711547781E+03   -0.60704E-05   -0.11758E-05 16224   0.807E-03    0.222E-03
DAV:  12    -0.581711547883E+03   -0.10272E-06   -0.41868E-07 15776   0.157E-03    0.262E-04
DAV:  13    -0.581711547970E+03   -0.86487E-07   -0.70658E-09 11968   0.216E-04    0.925E-05
DAV:  14    -0.581711547987E+03   -0.17037E-07   -0.13816E-09 10752   0.100E-04    0.585E-05
DAV:  15    -0.581711547991E+03   -0.38654E-08   -0.28984E-10  9664   0.401E-05
   1 F= -.58171155E+03 E0= -.58171155E+03  d E =-.214599E-13
 Linear response reoptimize wavefunctions
DAV:   1    -0.581711547991E+03   -0.40200E-09   -0.53438E-11  9184   0.179E-05
DAV:   2    -0.581711547991E+03    0.12187E-09   -0.14683E-11  9216   0.896E-06
DAV:   3    -0.581711547991E+03   -0.81855E-10   -0.61672E-12  9216   0.446E-06
 Linear response DOF=           1
 Linear response progress:
  Degree of freedom:   1/  1
       N       E                     dE             d eps       ncg     rms          rms(c)
RMM:   1    -0.145002187039E+00   -0.14500E+00    0.36496E-03 73255   0.735E-01
RMM:   2    -0.123437252521E+00    0.21565E-01   -0.71838E-03 44311   0.191E-01    0.177E-01
RMM:   3    -0.123298180254E+00    0.13907E-03   -0.87246E-04 46665   0.498E-02    0.899E-02
RMM:   4    -0.123554870434E+00   -0.25669E-03   -0.23756E-04 46835   0.271E-02    0.274E-02
RMM:   5    -0.123636271535E+00   -0.81401E-04   -0.15599E-05 47398   0.765E-03    0.653E-03
RMM:   6    -0.123619323754E+00    0.16948E-04   -0.13586E-06 48119   0.197E-03    0.136E-03
RMM:   7    -0.123610960793E+00    0.83630E-05   -0.14155E-06 49069   0.622E-04    0.381E-04
RMM:   8    -0.123610398770E+00    0.56202E-06   -0.12981E-06 50663   0.267E-04    0.856E-05
RMM:   9    -0.123610173877E+00    0.22489E-06   -0.11383E-06 53591   0.162E-04    0.374E-05
RMM:  10    -0.123610245223E+00   -0.71346E-07   -0.11584E-06 55409   0.153E-04    0.112E-05
RMM:  11    -0.123610249495E+00   -0.42719E-08   -0.11681E-06 56105   0.150E-04    0.453E-06
 Linear response finished
