 vasp.5.4.4.18Apr17-6-g9f103f2a35 (build Mar 12 2022 03:36:41) complex          
  
 executed on IFC19.0.3.199_CrayMP date 2022.12.02  02:42:55
 running on   32 total cores
 distrk:  each k-point on   32 cores,    1 groups
 distr:  one band on NCORES_PER_BAND=   1 cores,   32 groups


--------------------------------------------------------------------------------------------------------


 INCAR:
 POTCAR:   PAW_PBE C 08Apr2002                    

 ----------------------------------------------------------------------------- 
|                                                                             |
|           W    W    AA    RRRRR   N    N  II  N    N   GGGG   !!!           |
|           W    W   A  A   R    R  NN   N  II  NN   N  G    G  !!!           |
|           W    W  A    A  R    R  N N  N  II  N N  N  G       !!!           |
|           W WW W  AAAAAA  RRRRR   N  N N  II  N  N N  G  GGG   !            |
|           WW  WW  A    A  R   R   N   NN  II  N   NN  G    G                |
|           W    W  A    A  R    R  N    N  II  N    N   GGGG   !!!           |
|                                                                             |
|      For optimal performance we recommend to set                            |
|        NCORE= 4 - approx SQRT( number of cores)                             |
|      NCORE specifies how many cores store one orbital (NPAR=cpu/NCORE).     |
|      This setting can  greatly improve the performance of VASP for DFT.     |
|      The default,   NCORE=1            might be grossly inefficient         |
|      on modern multi-core architectures or massively parallel machines.     |
|      Do your own testing !!!!                                               |
|      Unfortunately you need to use the default for GW and RPA calculations. |
|      (for HF NCORE is supported but not extensively tested yet)             |
|                                                                             |
 ----------------------------------------------------------------------------- 

 POTCAR:   PAW_PBE C 08Apr2002                    
   VRHFIN =C: s2p2                                                              
   LEXCH  = PE                                                                  
   EATOM  =   147.1560 eV,   10.8157 Ry                                         
                                                                                
   TITEL  = PAW_PBE C 08Apr2002                                                 
   LULTRA =        F    use ultrasoft PP ?                                      
   IUNSCR =        0    unscreen: 0-lin 1-nonlin 2-no                           
   RPACOR =     .000    partial core radius                                     
   POMASS =   12.011; ZVAL   =    4.000    mass and valenz                      
   RCORE  =    1.500    outmost cutoff radius                                   
   RWIGS  =    1.630; RWIGS  =     .863    wigner-seitz radius (au A)           
   ENMAX  =  400.000; ENMIN  =  300.000 eV                                      
   ICORE  =        2    local potential                                         
   LCOR   =        T    correct aug charges                                     
   LPAW   =        T    paw PP                                                  
   EAUG   =  644.873                                                            
   DEXC   =     .000                                                            
   RMAX   =    2.266    core radius for proj-oper                               
   RAUG   =    1.300    factor for augmentation sphere                          
   RDEP   =    1.501    radius for radial grids                                 
   RDEPT  =    1.300    core radius for aug-charge                              
   QCUT   =   -5.516; QGAM   =   11.032    optimization parameters              
                                                                                
   Description                                                                  
     l     E      TYP  RCUT    TYP  RCUT                                        
     0   .000     23  1.200                                                     
     0   .000     23  1.200                                                     
     1   .000     23  1.500                                                     
     1  2.500     23  1.500                                                     
     2   .000      7  1.500                                                     
  local pseudopotential read in
  atomic valenz-charges read in
  non local Contribution for L=           0  read in
    real space projection operators read in
  non local Contribution for L=           0  read in
    real space projection operators read in
  non local Contribution for L=           1  read in
    real space projection operators read in
  non local Contribution for L=           1  read in
    real space projection operators read in
    PAW grid and wavefunctions read in
 
   number of l-projection  operators is LMAX  =           4
   number of lm-projection operators is LMMAX =           8
 

 ----------------------------------------------------------------------------- 
|                                                                             |
|  ADVICE TO THIS USER RUNNING 'VASP/VAMP'   (HEAR YOUR MASTER'S VOICE ...):  |
|                                                                             |
|      You have a (more or less) 'large supercell' and for larger cells       |
|      it might be more efficient to use real space projection operators      |
|      So try LREAL= Auto  in the INCAR   file.                               |
|      Mind: If you want to do a very accurate calculations keep the          |
|      reciprocal projection scheme          (i.e. LREAL=.FALSE.)             |
|                                                                             |
 ----------------------------------------------------------------------------- 

 PAW_PBE C 08Apr2002                    :
 energy of atom  1       EATOM= -147.1560
 kinetic energy error for atom=    0.0288 (will be added to EATOM!!)
 
 
 POSCAR: generated by phonopy                    
  positions in direct lattice
  No initial velocities read in
 exchange correlation table for  LEXCH =        8
   RHO(1)=    0.500       N(1)  =     2000
   RHO(2)=  100.500       N(2)  =     4000
 


--------------------------------------------------------------------------------------------------------


 ion  position               nearest neighbor table
   1  0.125  0.375  0.125-  11 1.55  43 1.55  57 1.55  25 1.57
   2  0.625  0.375  0.125-  12 1.55  44 1.55  58 1.55  26 1.57
   3  0.125  0.875  0.125-   9 1.55  41 1.55  59 1.55  27 1.57
   4  0.625  0.875  0.125-  10 1.55  42 1.55  60 1.55  28 1.57
   5  0.125  0.375  0.625-  15 1.55  47 1.55  61 1.55  29 1.57
   6  0.625  0.375  0.625-  16 1.55  48 1.55  62 1.55  30 1.57
   7  0.125  0.875  0.625-  13 1.55  45 1.55  63 1.55  31 1.57
   8  0.625  0.875  0.625-  14 1.55  46 1.55  64 1.55  32 1.57
   9  0.000  0.000  0.250-   3 1.55  36 1.55  50 1.55  17 1.57
  10  0.500  0.000  0.250-   4 1.55  35 1.55  49 1.55  18 1.57
  11  0.000  0.500  0.250-   1 1.55  34 1.55  52 1.55  19 1.57
  12  0.500  0.500  0.250-   2 1.55  33 1.55  51 1.55  20 1.57
  13  0.000  0.000  0.750-   7 1.55  40 1.55  54 1.55  21 1.57
  14  0.500  0.000  0.750-   8 1.55  39 1.55  53 1.55  22 1.57
  15  0.000  0.500  0.750-   5 1.55  38 1.55  56 1.55  23 1.57
  16  0.500  0.500  0.750-   6 1.55  37 1.55  55 1.55  24 1.57
  17  0.125  0.125  0.375-  29 1.55  45 1.55  57 1.55   9 1.57
  18  0.625  0.125  0.375-  30 1.55  46 1.55  58 1.55  10 1.57
  19  0.125  0.625  0.375-  31 1.55  47 1.55  59 1.55  11 1.57
  20  0.625  0.625  0.375-  32 1.55  48 1.55  60 1.55  12 1.57
  21  0.125  0.125  0.875-  25 1.55  41 1.55  61 1.55  13 1.57
  22  0.625  0.125  0.875-  26 1.55  42 1.55  62 1.55  14 1.57
  23  0.125  0.625  0.875-  27 1.55  43 1.55  63 1.55  15 1.57
  24  0.625  0.625  0.875-  28 1.55  44 1.55  64 1.55  16 1.57
  25  0.000  0.250  0.000-  21 1.55  38 1.55  50 1.55   1 1.57
  26  0.500  0.250  0.000-  22 1.55  37 1.55  49 1.55   2 1.57
  27  0.000  0.750  0.000-  23 1.55  40 1.55  52 1.55   3 1.57
  28  0.500  0.750  0.000-  24 1.55  39 1.55  51 1.55   4 1.57
  29  0.000  0.250  0.500-  17 1.55  34 1.55  54 1.55   5 1.57
  30  0.500  0.250  0.500-  18 1.55  33 1.55  53 1.55   6 1.57
  31  0.000  0.750  0.500-  19 1.55  36 1.55  56 1.55   7 1.57
  32  0.500  0.750  0.500-  20 1.55  35 1.55  55 1.55   8 1.57
  33  0.375  0.375  0.375-  47 1.55  30 1.55  12 1.55  57 1.57
  34  0.875  0.375  0.375-  48 1.55  29 1.55  11 1.55  58 1.57
  35  0.375  0.875  0.375-  45 1.55  32 1.55  10 1.55  59 1.57
  36  0.875  0.875  0.375-  46 1.55  31 1.55   9 1.55  60 1.57
  37  0.375  0.375  0.875-  43 1.55  26 1.55  16 1.55  61 1.57
  38  0.875  0.375  0.875-  44 1.55  25 1.55  15 1.55  62 1.57
  39  0.375  0.875  0.875-  41 1.55  28 1.55  14 1.55  63 1.57
  40  0.875  0.875  0.875-  42 1.55  27 1.55  13 1.55  64 1.57
  41  0.250  0.000  0.000-  39 1.55  21 1.55   3 1.55  49 1.57
  42  0.750  0.000  0.000-  40 1.55  22 1.55   4 1.55  50 1.57
  43  0.250  0.500  0.000-  37 1.55  23 1.55   1 1.55  51 1.57
  44  0.750  0.500  0.000-  38 1.55  24 1.55   2 1.55  52 1.57
  45  0.250  0.000  0.500-  35 1.55  17 1.55   7 1.55  53 1.57
  46  0.750  0.000  0.500-  36 1.55  18 1.55   8 1.55  54 1.57
  47  0.250  0.500  0.500-  33 1.55  19 1.55   5 1.55  55 1.57
  48  0.750  0.500  0.500-  34 1.55  20 1.55   6 1.55  56 1.57
  49  0.375  0.125  0.125-  57 1.55  26 1.55  10 1.55  41 1.57
  50  0.875  0.125  0.125-  58 1.55  25 1.55   9 1.55  42 1.57
  51  0.375  0.625  0.125-  59 1.55  28 1.55  12 1.55  43 1.57
  52  0.875  0.625  0.125-  60 1.55  27 1.55  11 1.55  44 1.57
  53  0.375  0.125  0.625-  61 1.55  30 1.55  14 1.55  45 1.57
  54  0.875  0.125  0.625-  62 1.55  29 1.55  13 1.55  46 1.57
  55  0.375  0.625  0.625-  63 1.55  32 1.55  16 1.55  47 1.57
  56  0.875  0.625  0.625-  64 1.55  31 1.55  15 1.55  48 1.57
  57  0.250  0.250  0.250-  49 1.55  17 1.55   1 1.55  33 1.57
  58  0.750  0.250  0.250-  50 1.55  18 1.55   2 1.55  34 1.57
  59  0.250  0.750  0.250-  51 1.55  19 1.55   3 1.55  35 1.57
  60  0.750  0.750  0.250-  52 1.55  20 1.55   4 1.55  36 1.57
  61  0.250  0.250  0.750-  53 1.55  21 1.55   5 1.55  37 1.57
  62  0.750  0.250  0.750-  54 1.55  22 1.55   6 1.55  38 1.57
  63  0.250  0.750  0.750-  55 1.55  23 1.55   7 1.55  39 1.57
  64  0.750  0.750  0.750-  56 1.55  24 1.55   8 1.55  40 1.57
 
  LATTYP: Found a trigonal (rhomboedric) cell.
 ALAT       =     7.1799980931
 COS(alpha) =     0.0099999729
  
  Lattice vectors:
  
 A1 = (   7.1799987179,   0.0000000000,   0.0000000000)
 A2 = (   0.0717997863,   7.1796390861,   0.0000000000)
 A3 = (   0.0717997863,   0.0710845409,   7.1792874908)


Analysis of symmetry for initial positions (statically):
=====================================================================
 Subroutine PRICEL returns following result:
 
  LATTYP: Found a trigonal (rhomboedric) cell.
 ALAT       =     2.5511735391
 COS(alpha) =     0.5099009041
  
  Lattice vectors:
  
 A1 = (  -0.0358998931,  -1.8126809068,  -1.7948218727)
 A2 = (  -1.8129496260,  -1.7949097715,   0.0000000000)
 A3 = (  -1.8129496260,  -0.0177711352,  -1.7948218727)
 
  32 primitive cells build up your supercell.
 

 Routine SETGRP: Setting up the symmetry group for a 
 trigonal (rhombohedral) supercell.


 Subroutine GETGRP returns: Found 12 space group operations
 (whereof  6 operations were pure point group operations)
 out of a pool of 12 trial point group operations.


The static configuration has the point symmetry C_3v.
 The point group associated with its full space group is D_3d.


Analysis of symmetry for dynamics (positions and initial velocities):
=====================================================================
 Subroutine PRICEL returns following result:
 
  LATTYP: Found a trigonal (rhomboedric) cell.
 ALAT       =     2.5511735391
 COS(alpha) =     0.5099009041
  
  Lattice vectors:
  
 A1 = (  -0.0358998931,  -1.8126809068,  -1.7948218727)
 A2 = (  -1.8129496260,  -1.7949097715,   0.0000000000)
 A3 = (  -1.8129496260,  -0.0177711352,  -1.7948218727)
 
  32 primitive cells build up your supercell.
 

 Routine SETGRP: Setting up the symmetry group for a 
 trigonal (rhombohedral) supercell.


 Subroutine GETGRP returns: Found 12 space group operations
 (whereof  6 operations were pure point group operations)
 out of a pool of 12 trial point group operations.


The dynamic configuration has the point symmetry C_3v.
 The point group associated with its full space group is D_3d.


 Subroutine INISYM returns: Found 12 space group operations
 (whereof  6 operations are pure point group operations),
 and found    32 'primitive' translations

 
 
 KPOINTS: kpt_density=3000                        

Automatic generation of k-mesh.
Space group operators:
 irot       det(A)        alpha          n_x          n_y          n_z        tau_x        tau_y        tau_z
    1     1.000000     0.000001     1.000000     0.000000     0.000000     0.000000     0.000000     0.000000
    2    -1.000000   180.000000     0.000000    -0.703598     0.710599     0.000000     0.000000     0.000000
    3     1.000000   120.000000    -0.583095    -0.577293    -0.571605     0.000000     0.000000     0.000000
    4    -1.000000   179.999999    -0.703562     0.710634     0.000000     0.000000     0.000000     0.000000
    5     1.000000   120.000000     0.583095     0.577293     0.571605     0.000000     0.000000     0.000000
    6    -1.000000   179.999999    -0.703562     0.007036     0.710599     0.000000     0.000000     0.000000
    7    -1.000000     0.000001     1.000000     0.000000     0.000000    -0.375000    -0.375000    -0.375000
    8     1.000000   180.000000     0.000000    -0.703598     0.710599    -0.375000    -0.375000    -0.375000
    9    -1.000000   120.000000    -0.583095    -0.577293    -0.571605    -0.375000    -0.375000    -0.375000
   10     1.000000   179.999999    -0.703562     0.710634     0.000000    -0.375000    -0.375000    -0.375000
   11    -1.000000   120.000000     0.583095     0.577293     0.571605    -0.375000    -0.375000    -0.375000
   12     1.000000   179.999999    -0.703562     0.007036     0.710599    -0.375000    -0.375000    -0.375000
 
 Subroutine IBZKPT returns following result:
 ===========================================
 
 Found     32 irreducible k-points:
 
 Following reciprocal coordinates:
            Coordinates               Weight
  0.000000  0.000000  0.000000      1.000000
  0.166667 -0.000000 -0.000000      6.000000
  0.333333 -0.000000 -0.000000      6.000000
  0.500000 -0.000000 -0.000000      3.000000
  0.166667  0.166667  0.000000      6.000000
  0.333333  0.166667 -0.000000     12.000000
  0.500000  0.166667  0.000000     12.000000
 -0.333333  0.166667  0.000000     12.000000
 -0.166667  0.166667  0.000000      6.000000
  0.333333  0.333333  0.000000      6.000000
  0.500000  0.333333 -0.000000     12.000000
 -0.333333  0.333333  0.000000      6.000000
  0.500000  0.500000 -0.000000      3.000000
  0.166667  0.166667  0.166667      2.000000
  0.333333  0.166667  0.166667      6.000000
  0.500000  0.166667  0.166667      6.000000
 -0.333333  0.166667  0.166667      6.000000
 -0.166667  0.166667  0.166667      6.000000
  0.333333  0.333333  0.166667      6.000000
  0.500000  0.333333  0.166667     12.000000
 -0.333333  0.333333  0.166667     12.000000
 -0.166667  0.333333  0.166667     12.000000
  0.500000  0.500000  0.166667      6.000000
 -0.333333  0.500000  0.166667     12.000000
 -0.166667  0.500000  0.166667      6.000000
 -0.333333 -0.333333  0.166667      6.000000
  0.333333  0.333333  0.333333      2.000000
  0.500000  0.333333  0.333333      6.000000
 -0.333333  0.333333  0.333333      6.000000
  0.500000  0.500000  0.333333      6.000000
 -0.333333  0.500000  0.333333      6.000000
  0.500000  0.500000  0.500000      1.000000
 
 Following cartesian coordinates:
            Coordinates               Weight
  0.000000  0.000000  0.000000      1.000000
  0.023213 -0.000232 -0.000230      6.000000
  0.046425 -0.000464 -0.000460      6.000000
  0.069638 -0.000696 -0.000690      3.000000
  0.023213  0.022982 -0.000460      6.000000
  0.046425  0.022750 -0.000690     12.000000
  0.069638  0.022517 -0.000919     12.000000
 -0.046425  0.023678  0.000230     12.000000
 -0.023213  0.023446  0.000000      6.000000
  0.046425  0.045963 -0.000919      6.000000
  0.069638  0.045731 -0.001149     12.000000
 -0.046425  0.046892  0.000000      6.000000
  0.069638  0.068945 -0.001379      3.000000
  0.023213  0.022982  0.022755      2.000000
  0.046425  0.022750  0.022525      6.000000
  0.069638  0.022517  0.022296      6.000000
 -0.046425  0.023678  0.023445      6.000000
 -0.023213  0.023446  0.023215      6.000000
  0.046425  0.045963  0.022296      6.000000
  0.069638  0.045731  0.022066     12.000000
 -0.046425  0.046892  0.023215     12.000000
 -0.023213  0.046660  0.022985     12.000000
  0.069638  0.068945  0.021836      6.000000
 -0.046425  0.070106  0.022985     12.000000
 -0.023213  0.069874  0.022755      6.000000
 -0.046425 -0.045963  0.024134      6.000000
  0.046425  0.045963  0.045510      2.000000
  0.069638  0.045731  0.045281      6.000000
 -0.046425  0.046892  0.046430      6.000000
  0.069638  0.068945  0.045051      6.000000
 -0.046425  0.070106  0.046200      6.000000
  0.069638  0.068945  0.068266      1.000000
 
 
 Subroutine IBZKPT_HF returns following result:
 ==============================================
 
 Found    216 k-points in 1st BZ
 the following    216 k-points will be used (e.g. in the exchange kernel)
 Following reciprocal coordinates:   # in IRBZ
  0.000000  0.000000  0.000000    0.00462963   1 t-inv F
  0.166667 -0.000000 -0.000000    0.00462963   2 t-inv F
  0.333333 -0.000000 -0.000000    0.00462963   3 t-inv F
  0.500000 -0.000000 -0.000000    0.00462963   4 t-inv F
  0.166667  0.166667  0.000000    0.00462963   5 t-inv F
  0.333333  0.166667 -0.000000    0.00462963   6 t-inv F
  0.500000  0.166667  0.000000    0.00462963   7 t-inv F
 -0.333333  0.166667  0.000000    0.00462963   8 t-inv F
 -0.166667  0.166667  0.000000    0.00462963   9 t-inv F
  0.333333  0.333333  0.000000    0.00462963  10 t-inv F
  0.500000  0.333333 -0.000000    0.00462963  11 t-inv F
 -0.333333  0.333333  0.000000    0.00462963  12 t-inv F
  0.500000  0.500000 -0.000000    0.00462963  13 t-inv F
  0.166667  0.166667  0.166667    0.00462963  14 t-inv F
  0.333333  0.166667  0.166667    0.00462963  15 t-inv F
  0.500000  0.166667  0.166667    0.00462963  16 t-inv F
 -0.333333  0.166667  0.166667    0.00462963  17 t-inv F
 -0.166667  0.166667  0.166667    0.00462963  18 t-inv F
  0.333333  0.333333  0.166667    0.00462963  19 t-inv F
  0.500000  0.333333  0.166667    0.00462963  20 t-inv F
 -0.333333  0.333333  0.166667    0.00462963  21 t-inv F
 -0.166667  0.333333  0.166667    0.00462963  22 t-inv F
  0.500000  0.500000  0.166667    0.00462963  23 t-inv F
 -0.333333  0.500000  0.166667    0.00462963  24 t-inv F
 -0.166667  0.500000  0.166667    0.00462963  25 t-inv F
 -0.333333 -0.333333  0.166667    0.00462963  26 t-inv F
  0.333333  0.333333  0.333333    0.00462963  27 t-inv F
  0.500000  0.333333  0.333333    0.00462963  28 t-inv F
 -0.333333  0.333333  0.333333    0.00462963  29 t-inv F
  0.500000  0.500000  0.333333    0.00462963  30 t-inv F
 -0.333333  0.500000  0.333333    0.00462963  31 t-inv F
  0.500000  0.500000  0.500000    0.00462963  32 t-inv F
 -0.000000  0.166667 -0.000000    0.00462963   2 t-inv F
 -0.000000 -0.000000  0.166667    0.00462963   2 t-inv F
 -0.166667  0.000000  0.000000    0.00462963   2 t-inv F
  0.000000 -0.166667  0.000000    0.00462963   2 t-inv F
  0.000000  0.000000 -0.166667    0.00462963   2 t-inv F
 -0.000000  0.333333 -0.000000    0.00462963   3 t-inv F
 -0.000000 -0.000000  0.333333    0.00462963   3 t-inv F
 -0.333333  0.000000  0.000000    0.00462963   3 t-inv F
  0.000000 -0.333333  0.000000    0.00462963   3 t-inv F
  0.000000  0.000000 -0.333333    0.00462963   3 t-inv F
 -0.000000  0.500000 -0.000000    0.00462963   4 t-inv F
 -0.000000 -0.000000  0.500000    0.00462963   4 t-inv F
  0.166667  0.000000  0.166667    0.00462963   5 t-inv F
  0.000000  0.166667  0.166667    0.00462963   5 t-inv F
 -0.166667 -0.166667 -0.000000    0.00462963   5 t-inv F
 -0.166667 -0.000000 -0.166667    0.00462963   5 t-inv F
 -0.000000 -0.166667 -0.166667    0.00462963   5 t-inv F
  0.333333 -0.000000  0.166667    0.00462963   6 t-inv F
 -0.000000  0.333333  0.166667    0.00462963   6 t-inv F
  0.166667  0.333333 -0.000000    0.00462963   6 t-inv F
  0.166667 -0.000000  0.333333    0.00462963   6 t-inv F
 -0.000000  0.166667  0.333333    0.00462963   6 t-inv F
 -0.333333 -0.166667  0.000000    0.00462963   6 t-inv F
 -0.333333  0.000000 -0.166667    0.00462963   6 t-inv F
  0.000000 -0.333333 -0.166667    0.00462963   6 t-inv F
 -0.166667 -0.333333  0.000000    0.00462963   6 t-inv F
 -0.166667  0.000000 -0.333333    0.00462963   6 t-inv F
  0.000000 -0.166667 -0.333333    0.00462963   6 t-inv F
  0.500000  0.000000  0.166667    0.00462963   7 t-inv F
  0.000000  0.500000  0.166667    0.00462963   7 t-inv F
  0.166667  0.500000  0.000000    0.00462963   7 t-inv F
  0.166667  0.000000  0.500000    0.00462963   7 t-inv F
  0.000000  0.166667  0.500000    0.00462963   7 t-inv F
 -0.500000 -0.166667 -0.000000    0.00462963   7 t-inv F
 -0.500000 -0.000000 -0.166667    0.00462963   7 t-inv F
 -0.000000 -0.500000 -0.166667    0.00462963   7 t-inv F
 -0.166667 -0.500000 -0.000000    0.00462963   7 t-inv F
 -0.166667 -0.000000 -0.500000    0.00462963   7 t-inv F
 -0.000000 -0.166667 -0.500000    0.00462963   7 t-inv F
 -0.333333  0.000000  0.166667    0.00462963   8 t-inv F
  0.000000 -0.333333  0.166667    0.00462963   8 t-inv F
  0.166667 -0.333333  0.000000    0.00462963   8 t-inv F
  0.166667  0.000000 -0.333333    0.00462963   8 t-inv F
  0.000000  0.166667 -0.333333    0.00462963   8 t-inv F
  0.333333 -0.166667 -0.000000    0.00462963   8 t-inv F
  0.333333 -0.000000 -0.166667    0.00462963   8 t-inv F
 -0.000000  0.333333 -0.166667    0.00462963   8 t-inv F
 -0.166667  0.333333 -0.000000    0.00462963   8 t-inv F
 -0.166667 -0.000000  0.333333    0.00462963   8 t-inv F
 -0.000000 -0.166667  0.333333    0.00462963   8 t-inv F
 -0.166667  0.000000  0.166667    0.00462963   9 t-inv F
  0.000000 -0.166667  0.166667    0.00462963   9 t-inv F
  0.166667 -0.166667  0.000000    0.00462963   9 t-inv F
  0.166667  0.000000 -0.166667    0.00462963   9 t-inv F
  0.000000  0.166667 -0.166667    0.00462963   9 t-inv F
  0.333333  0.000000  0.333333    0.00462963  10 t-inv F
  0.000000  0.333333  0.333333    0.00462963  10 t-inv F
 -0.333333 -0.333333 -0.000000    0.00462963  10 t-inv F
 -0.333333 -0.000000 -0.333333    0.00462963  10 t-inv F
 -0.000000 -0.333333 -0.333333    0.00462963  10 t-inv F
  0.500000 -0.000000  0.333333    0.00462963  11 t-inv F
 -0.000000  0.500000  0.333333    0.00462963  11 t-inv F
  0.333333  0.500000 -0.000000    0.00462963  11 t-inv F
  0.333333 -0.000000  0.500000    0.00462963  11 t-inv F
 -0.000000  0.333333  0.500000    0.00462963  11 t-inv F
 -0.500000 -0.333333  0.000000    0.00462963  11 t-inv F
 -0.500000  0.000000 -0.333333    0.00462963  11 t-inv F
  0.000000 -0.500000 -0.333333    0.00462963  11 t-inv F
 -0.333333 -0.500000  0.000000    0.00462963  11 t-inv F
 -0.333333  0.000000 -0.500000    0.00462963  11 t-inv F
  0.000000 -0.333333 -0.500000    0.00462963  11 t-inv F
 -0.333333  0.000000  0.333333    0.00462963  12 t-inv F
  0.000000 -0.333333  0.333333    0.00462963  12 t-inv F
  0.333333 -0.333333  0.000000    0.00462963  12 t-inv F
  0.333333  0.000000 -0.333333    0.00462963  12 t-inv F
  0.000000  0.333333 -0.333333    0.00462963  12 t-inv F
  0.500000 -0.000000  0.500000    0.00462963  13 t-inv F
 -0.000000  0.500000  0.500000    0.00462963  13 t-inv F
 -0.166667 -0.166667 -0.166667    0.00462963  14 t-inv F
  0.166667  0.333333  0.166667    0.00462963  15 t-inv F
  0.166667  0.166667  0.333333    0.00462963  15 t-inv F
 -0.333333 -0.166667 -0.166667    0.00462963  15 t-inv F
 -0.166667 -0.333333 -0.166667    0.00462963  15 t-inv F
 -0.166667 -0.166667 -0.333333    0.00462963  15 t-inv F
  0.166667  0.500000  0.166667    0.00462963  16 t-inv F
  0.166667  0.166667  0.500000    0.00462963  16 t-inv F
 -0.500000 -0.166667 -0.166667    0.00462963  16 t-inv F
 -0.166667 -0.500000 -0.166667    0.00462963  16 t-inv F
 -0.166667 -0.166667 -0.500000    0.00462963  16 t-inv F
  0.166667 -0.333333  0.166667    0.00462963  17 t-inv F
  0.166667  0.166667 -0.333333    0.00462963  17 t-inv F
  0.333333 -0.166667 -0.166667    0.00462963  17 t-inv F
 -0.166667  0.333333 -0.166667    0.00462963  17 t-inv F
 -0.166667 -0.166667  0.333333    0.00462963  17 t-inv F
  0.166667 -0.166667  0.166667    0.00462963  18 t-inv F
  0.166667  0.166667 -0.166667    0.00462963  18 t-inv F
  0.166667 -0.166667 -0.166667    0.00462963  18 t-inv F
 -0.166667  0.166667 -0.166667    0.00462963  18 t-inv F
 -0.166667 -0.166667  0.166667    0.00462963  18 t-inv F
  0.333333  0.166667  0.333333    0.00462963  19 t-inv F
  0.166667  0.333333  0.333333    0.00462963  19 t-inv F
 -0.333333 -0.333333 -0.166667    0.00462963  19 t-inv F
 -0.333333 -0.166667 -0.333333    0.00462963  19 t-inv F
 -0.166667 -0.333333 -0.333333    0.00462963  19 t-inv F
  0.500000  0.166667  0.333333    0.00462963  20 t-inv F
  0.166667  0.500000  0.333333    0.00462963  20 t-inv F
  0.333333  0.500000  0.166667    0.00462963  20 t-inv F
  0.333333  0.166667  0.500000    0.00462963  20 t-inv F
  0.166667  0.333333  0.500000    0.00462963  20 t-inv F
 -0.500000 -0.333333 -0.166667    0.00462963  20 t-inv F
 -0.500000 -0.166667 -0.333333    0.00462963  20 t-inv F
 -0.166667 -0.500000 -0.333333    0.00462963  20 t-inv F
 -0.333333 -0.500000 -0.166667    0.00462963  20 t-inv F
 -0.333333 -0.166667 -0.500000    0.00462963  20 t-inv F
 -0.166667 -0.333333 -0.500000    0.00462963  20 t-inv F
 -0.333333  0.166667  0.333333    0.00462963  21 t-inv F
  0.166667 -0.333333  0.333333    0.00462963  21 t-inv F
  0.333333 -0.333333  0.166667    0.00462963  21 t-inv F
  0.333333  0.166667 -0.333333    0.00462963  21 t-inv F
  0.166667  0.333333 -0.333333    0.00462963  21 t-inv F
  0.333333 -0.333333 -0.166667    0.00462963  21 t-inv F
  0.333333 -0.166667 -0.333333    0.00462963  21 t-inv F
 -0.166667  0.333333 -0.333333    0.00462963  21 t-inv F
 -0.333333  0.333333 -0.166667    0.00462963  21 t-inv F
 -0.333333 -0.166667  0.333333    0.00462963  21 t-inv F
 -0.166667 -0.333333  0.333333    0.00462963  21 t-inv F
 -0.166667  0.166667  0.333333    0.00462963  22 t-inv F
  0.166667 -0.166667  0.333333    0.00462963  22 t-inv F
  0.333333 -0.166667  0.166667    0.00462963  22 t-inv F
  0.333333  0.166667 -0.166667    0.00462963  22 t-inv F
  0.166667  0.333333 -0.166667    0.00462963  22 t-inv F
  0.166667 -0.333333 -0.166667    0.00462963  22 t-inv F
  0.166667 -0.166667 -0.333333    0.00462963  22 t-inv F
 -0.166667  0.166667 -0.333333    0.00462963  22 t-inv F
 -0.333333  0.166667 -0.166667    0.00462963  22 t-inv F
 -0.333333 -0.166667  0.166667    0.00462963  22 t-inv F
 -0.166667 -0.333333  0.166667    0.00462963  22 t-inv F
  0.500000  0.166667  0.500000    0.00462963  23 t-inv F
  0.166667  0.500000  0.500000    0.00462963  23 t-inv F
 -0.500000 -0.500000 -0.166667    0.00462963  23 t-inv F
 -0.500000 -0.166667 -0.500000    0.00462963  23 t-inv F
 -0.166667 -0.500000 -0.500000    0.00462963  23 t-inv F
 -0.333333  0.166667  0.500000    0.00462963  24 t-inv F
  0.166667 -0.333333  0.500000    0.00462963  24 t-inv F
  0.500000 -0.333333  0.166667    0.00462963  24 t-inv F
  0.500000  0.166667 -0.333333    0.00462963  24 t-inv F
  0.166667  0.500000 -0.333333    0.00462963  24 t-inv F
  0.333333 -0.500000 -0.166667    0.00462963  24 t-inv F
  0.333333 -0.166667 -0.500000    0.00462963  24 t-inv F
 -0.166667  0.333333 -0.500000    0.00462963  24 t-inv F
 -0.500000  0.333333 -0.166667    0.00462963  24 t-inv F
 -0.500000 -0.166667  0.333333    0.00462963  24 t-inv F
 -0.166667 -0.500000  0.333333    0.00462963  24 t-inv F
 -0.166667  0.166667  0.500000    0.00462963  25 t-inv F
  0.166667 -0.166667  0.500000    0.00462963  25 t-inv F
  0.500000 -0.166667  0.166667    0.00462963  25 t-inv F
  0.500000  0.166667 -0.166667    0.00462963  25 t-inv F
  0.166667  0.500000 -0.166667    0.00462963  25 t-inv F
 -0.333333  0.166667 -0.333333    0.00462963  26 t-inv F
  0.166667 -0.333333 -0.333333    0.00462963  26 t-inv F
  0.333333  0.333333 -0.166667    0.00462963  26 t-inv F
  0.333333 -0.166667  0.333333    0.00462963  26 t-inv F
 -0.166667  0.333333  0.333333    0.00462963  26 t-inv F
 -0.333333 -0.333333 -0.333333    0.00462963  27 t-inv F
  0.333333  0.500000  0.333333    0.00462963  28 t-inv F
  0.333333  0.333333  0.500000    0.00462963  28 t-inv F
 -0.500000 -0.333333 -0.333333    0.00462963  28 t-inv F
 -0.333333 -0.500000 -0.333333    0.00462963  28 t-inv F
 -0.333333 -0.333333 -0.500000    0.00462963  28 t-inv F
  0.333333 -0.333333  0.333333    0.00462963  29 t-inv F
  0.333333  0.333333 -0.333333    0.00462963  29 t-inv F
  0.333333 -0.333333 -0.333333    0.00462963  29 t-inv F
 -0.333333  0.333333 -0.333333    0.00462963  29 t-inv F
 -0.333333 -0.333333  0.333333    0.00462963  29 t-inv F
  0.500000  0.333333  0.500000    0.00462963  30 t-inv F
  0.333333  0.500000  0.500000    0.00462963  30 t-inv F
 -0.500000 -0.500000 -0.333333    0.00462963  30 t-inv F
 -0.500000 -0.333333 -0.500000    0.00462963  30 t-inv F
 -0.333333 -0.500000 -0.500000    0.00462963  30 t-inv F
 -0.333333  0.333333  0.500000    0.00462963  31 t-inv F
  0.333333 -0.333333  0.500000    0.00462963  31 t-inv F
  0.500000 -0.333333  0.333333    0.00462963  31 t-inv F
  0.500000  0.333333 -0.333333    0.00462963  31 t-inv F
  0.333333  0.500000 -0.333333    0.00462963  31 t-inv F


--------------------------------------------------------------------------------------------------------




 Dimension of arrays:
   k-points           NKPTS =     32   k-points in BZ     NKDIM =     32   number of bands    NBANDS=    192
   number of dos      NEDOS =    301   number of ions     NIONS =     64
   non local maximal  LDIM  =      4   non local SUM 2l+1 LMDIM =      8
   total plane-waves  NPLWV = 110592
   max r-space proj   IRMAX =      1   max aug-charges    IRDMAX=  28407
   dimension x,y,z NGX =    48 NGY =   48 NGZ =   48
   dimension x,y,z NGXF=    96 NGYF=   96 NGZF=   96
   support grid    NGXF=   192 NGYF=  192 NGZF=  192
   ions per type =              64
   NGX,Y,Z   is equivalent  to a cutoff of  11.11, 11.11, 11.11 a.u.
   NGXF,Y,Z  is equivalent  to a cutoff of  22.23, 22.23, 22.23 a.u.

 SYSTEM =  unknown system                          
 POSCAR =  generated by phonopy                    

 Startparameter for this run:
   NWRITE =      2    write-flag & timer
   PREC   = accura    normal or accurate (medium, high low for compatibility)
   ISTART =      0    job   : 0-new  1-cont  2-samecut
   ICHARG =      2    charge: 1-file 2-atom 10-const
   ISPIN  =      1    spin polarized calculation?
   LNONCOLLINEAR =      F non collinear calculations
   LSORBIT =      F    spin-orbit coupling
   INIWAV =      1    electr: 0-lowe 1-rand  2-diag
   LASPH  =      F    aspherical Exc in radial PAW
   METAGGA=      F    non-selfconsistent MetaGGA calc.

 Electronic Relaxation 1
   ENCUT  =  400.0 eV  29.40 Ry    5.42 a.u.  11.71 11.71 11.71*2*pi/ulx,y,z
   ENINI  =  400.0     initial cutoff
   ENAUG  =  644.9 eV  augmentation charge cutoff
   NELM   =     60;   NELMIN=  2; NELMDL= -5     # of ELM steps 
   EDIFF  = 0.1E-07   stopping-criterion for ELM
   LREAL  =      F    real-space projection
   NLSPLINE    = F    spline interpolate recip. space projectors
   LCOMPAT=      F    compatible to vasp.4.4
   GGA_COMPAT  = T    GGA compatible to vasp.4.4-vasp.4.6
   LMAXPAW     = -100 max onsite density
   LMAXMIX     =    2 max onsite mixed and CHGCAR
   VOSKOWN=      0    Vosko Wilk Nusair interpolation
   ROPT   =    0.00000
 Ionic relaxation
   EDIFFG = 0.1E-06   stopping-criterion for IOM
   NSW    =      1    number of steps for IOM
   NBLOCK =      1;   KBLOCK =      1    inner block; outer block 
   IBRION =      8    ionic relax: 0-MD 1-quasi-New 2-CG
   NFREE  =      0    steps in history (QN), initial steepest desc. (CG)
   ISIF   =      2    stress and relaxation
   IWAVPR =     11    prediction:  0-non 1-charg 2-wave 3-comb
   ISYM   =      2    0-nonsym 1-usesym 2-fastsym
   LCORR  =      T    Harris-Foulkes like correction to forces

   POTIM  = 0.5000    time-step for ionic-motion
   TEIN   =    0.0    initial temperature
   TEBEG  =    0.0;   TEEND  =   0.0 temperature during run
   SMASS  =  -3.00    Nose mass-parameter (am)
   estimated Nose-frequenzy (Omega)   =  0.10E-29 period in steps =****** mass=  -0.118E-26a.u.
   SCALEE = 1.0000    scale energy and forces
   NPACO  =    256;   APACO  = 16.0  distance and # of slots for P.C.
   PSTRESS=    0.0 pullay stress

  Mass of Ions in am
   POMASS =  12.01
  Ionic Valenz
   ZVAL   =   4.00
  Atomic Wigner-Seitz radii
   RWIGS  =  -1.00
  virtual crystal weights 
   VCA    =   1.00
   NELECT =     256.0000    total number of electrons
   NUPDOWN=      -1.0000    fix difference up-down

 DOS related values:
   EMIN   =  10.00;   EMAX   =-10.00  energy-range for DOS
   EFERMI =   0.00
   ISMEAR =     0;   SIGMA  =   0.06  broadening in eV -4-tet -1-fermi 0-gaus

 Electronic relaxation 2 (details)
   IALGO  =     38    algorithm
   LDIAG  =      T    sub-space diagonalisation (order eigenvalues)
   LSUBROT=      F    optimize rotation matrix (better conditioning)
   TURBO    =      0    0=normal 1=particle mesh
   IRESTART =      0    0=no restart 2=restart with 2 vectors
   NREBOOT  =      0    no. of reboots
   NMIN     =      0    reboot dimension
   EREF     =   0.00    reference energy to select bands
   IMIX   =      4    mixing-type and parameters
     AMIX     =   0.40;   BMIX     =  1.00
     AMIX_MAG =   1.60;   BMIX_MAG =  1.00
     AMIN     =   0.10
     WC   =   100.;   INIMIX=   1;  MIXPRE=   1;  MAXMIX= -45

 Intra band minimization:
   WEIMIN = 0.0010     energy-eigenvalue tresh-hold
   EBREAK =  0.13E-10  absolut break condition
   DEPER  =   0.30     relativ break condition  

   TIME   =   0.40     timestep for ELM

  volume/ion in A,a.u.               =       5.78        39.02
  Fermi-wavevector in a.u.,A,eV,Ry     =   1.447834  2.736009 28.520841  2.096223
  Thomas-Fermi vector in A             =   2.565744
 
 Write flags
   LWAVE        =      F    write WAVECAR
   LDOWNSAMPLE  =      F    k-point downsampling of WAVECAR
   LCHARG       =      F    write CHGCAR
   LVTOT        =      F    write LOCPOT, total local potential
   LVHAR        =      F    write LOCPOT, Hartree potential only
   LELF         =      F    write electronic localiz. function (ELF)
   LORBIT       =      0    0 simple, 1 ext, 2 COOP (PROOUT), +10 PAW based schemes


 Dipole corrections
   LMONO  =      F    monopole corrections only (constant potential shift)
   LDIPOL =      F    correct potential (dipole corrections)
   IDIPOL =      0    1-x, 2-y, 3-z, 4-all directions 
   EPSILON=  1.0000000 bulk dielectric constant

 Exchange correlation treatment:
   GGA     =    --    GGA type
   LEXCH   =     8    internal setting for exchange type
   VOSKOWN=      0    Vosko Wilk Nusair interpolation
   LHFCALC =     F    Hartree Fock is set to
   LHFONE  =     F    Hartree Fock one center treatment
   AEXX    =    0.0000 exact exchange contribution

 Linear response parameters
   LEPSILON=     F    determine dielectric tensor
   LRPA    =     F    only Hartree local field effects (RPA)
   LNABLA  =     F    use nabla operator in PAW spheres
   LVEL    =     F    velocity operator in full k-point grid
   LINTERFAST=   F  fast interpolation
   KINTER  =     0    interpolate to denser k-point grid
   CSHIFT  =0.1000    complex shift for real part using Kramers Kronig
   OMEGAMAX=  -1.0    maximum frequency
   DEG_THRESHOLD= 0.2000000E-02 threshold for treating states as degnerate
   RTIME   =   -0.100 relaxation time in fs
  (WPLASMAI=    0.000 imaginary part of plasma frequency in eV, 0.658/RTIME)
   DFIELD  = 0.0000000 0.0000000 0.0000000 field for delta impulse in time
 
 Orbital magnetization related:
   ORBITALMAG=     F  switch on orbital magnetization
   LCHIMAG   =     F  perturbation theory with respect to B field
   DQ        =  0.001000  dq finite difference perturbation B field
   LLRAUG    =     F  two centre corrections for induced B field



--------------------------------------------------------------------------------------------------------


 linear response using symmetry
 charge density and potential will be updated during run
 non-spin polarized calculation
 Variant of blocked Davidson
 Davidson routine will perform the subspace rotation
 perform sub-space diagonalisation
    after iterative eigenvector-optimisation
 modified Broyden-mixing scheme, WC =      100.0
 initial mixing is a Kerker type mixing with AMIX =  0.4000 and BMIX =      1.0000
 Hartree-type preconditioning will be used
 using additional bands           64
 reciprocal scheme for non local part
 calculate Harris-corrections to forces 
   (improved forces if not selfconsistent)
 use gradient corrections 
 use of overlap-Matrix (Vanderbilt PP)
 Gauss-broadening in eV      SIGMA  =   0.06


--------------------------------------------------------------------------------------------------------


  energy-cutoff  :      400.00
  volume of cell :      370.09
      direct lattice vectors                 reciprocal lattice vectors
     7.179998718  0.000000000  0.000000000     0.139275791 -0.001392824 -0.001379101
     0.071799786  7.179639086  0.000000000     0.000000000  0.139282767 -0.001379086
     0.071799786  0.071084541  7.179287491     0.000000000  0.000000000  0.139289588

  length of vectors
     7.179998718  7.179998093  7.179998405     0.139289583  0.139289595  0.139289588


 
 k-points in units of 2pi/SCALE and weight: kpt_density=3000                        
   0.00000000  0.00000000  0.00000000       0.005
   0.02321263 -0.00023214 -0.00022985       0.028
   0.04642526 -0.00046427 -0.00045970       0.028
   0.06963790 -0.00069641 -0.00068955       0.014
   0.02321263  0.02298166 -0.00045970       0.028
   0.04642526  0.02274952 -0.00068955       0.056
   0.06963790  0.02251738 -0.00091940       0.056
  -0.04642526  0.02367807  0.00022985       0.056
  -0.02321263  0.02344593  0.00000000       0.028
   0.04642526  0.04596331 -0.00091940       0.028
   0.06963790  0.04573118 -0.00114925       0.056
  -0.04642526  0.04689186  0.00000001       0.028
   0.06963790  0.06894497 -0.00137909       0.014
   0.02321263  0.02298166  0.02275523       0.009
   0.04642526  0.02274952  0.02252538       0.028
   0.06963790  0.02251738  0.02229553       0.028
  -0.04642526  0.02367807  0.02344478       0.028
  -0.02321263  0.02344593  0.02321493       0.028
   0.04642526  0.04596331  0.02229554       0.028
   0.06963790  0.04573118  0.02206569       0.056
  -0.04642526  0.04689186  0.02321494       0.056
  -0.02321263  0.04665973  0.02298509       0.056
   0.06963790  0.06894497  0.02183584       0.028
  -0.04642526  0.07010566  0.02298509       0.056
  -0.02321263  0.06987352  0.02275524       0.028
  -0.04642526 -0.04596331  0.02413433       0.028
   0.04642526  0.04596331  0.04551047       0.009
   0.06963790  0.04573118  0.04528062       0.028
  -0.04642526  0.04689186  0.04642987       0.028
   0.06963790  0.06894497  0.04505077       0.028
  -0.04642526  0.07010566  0.04620002       0.028
   0.06963790  0.06894497  0.06826570       0.005
 
 k-points in reciprocal lattice and weights: kpt_density=3000                        
   0.00000000  0.00000000  0.00000000       0.005
   0.16666667 -0.00000000 -0.00000000       0.028
   0.33333333 -0.00000000 -0.00000000       0.028
   0.50000000 -0.00000000 -0.00000000       0.014
   0.16666667  0.16666667  0.00000000       0.028
   0.33333333  0.16666667 -0.00000000       0.056
   0.50000000  0.16666667  0.00000000       0.056
  -0.33333333  0.16666667  0.00000000       0.056
  -0.16666667  0.16666667  0.00000000       0.028
   0.33333333  0.33333333  0.00000000       0.028
   0.50000000  0.33333333 -0.00000000       0.056
  -0.33333333  0.33333333  0.00000000       0.028
   0.50000000  0.50000000 -0.00000000       0.014
   0.16666667  0.16666667  0.16666667       0.009
   0.33333333  0.16666667  0.16666667       0.028
   0.50000000  0.16666667  0.16666667       0.028
  -0.33333333  0.16666667  0.16666667       0.028
  -0.16666667  0.16666667  0.16666667       0.028
   0.33333333  0.33333333  0.16666667       0.028
   0.50000000  0.33333333  0.16666667       0.056
  -0.33333333  0.33333333  0.16666667       0.056
  -0.16666667  0.33333333  0.16666667       0.056
   0.50000000  0.50000000  0.16666667       0.028
  -0.33333333  0.50000000  0.16666667       0.056
  -0.16666667  0.50000000  0.16666667       0.028
  -0.33333333 -0.33333333  0.16666667       0.028
   0.33333333  0.33333333  0.33333333       0.009
   0.50000000  0.33333333  0.33333333       0.028
  -0.33333333  0.33333333  0.33333333       0.028
   0.50000000  0.50000000  0.33333333       0.028
  -0.33333333  0.50000000  0.33333333       0.028
   0.50000000  0.50000000  0.50000000       0.005
 
 position of ions in fractional coordinates (direct lattice) 
   0.12500000  0.37500000  0.12500000
   0.62500000  0.37500000  0.12500000
   0.12500000  0.87500000  0.12500000
   0.62500000  0.87500000  0.12500000
   0.12500000  0.37500000  0.62500000
   0.62500000  0.37500000  0.62500000
   0.12500000  0.87500000  0.62500000
   0.62500000  0.87500000  0.62500000
   0.00000000  0.00000000  0.25000000
   0.50000000  0.00000000  0.25000000
   0.00000000  0.50000000  0.25000000
   0.50000000  0.50000000  0.25000000
   0.00000000  0.00000000  0.75000000
   0.50000000  0.00000000  0.75000000
   0.00000000  0.50000000  0.75000000
   0.50000000  0.50000000  0.75000000
   0.12500000  0.12500000  0.37500000
   0.62500000  0.12500000  0.37500000
   0.12500000  0.62500000  0.37500000
   0.62500000  0.62500000  0.37500000
   0.12500000  0.12500000  0.87500000
   0.62500000  0.12500000  0.87500000
   0.12500000  0.62500000  0.87500000
   0.62500000  0.62500000  0.87500000
   0.00000000  0.25000000  0.00000000
   0.50000000  0.25000000  0.00000000
   0.00000000  0.75000000  0.00000000
   0.50000000  0.75000000  0.00000000
   0.00000000  0.25000000  0.50000000
   0.50000000  0.25000000  0.50000000
   0.00000000  0.75000000  0.50000000
   0.50000000  0.75000000  0.50000000
   0.37500000  0.37500000  0.37500000
   0.87500000  0.37500000  0.37500000
   0.37500000  0.87500000  0.37500000
   0.87500000  0.87500000  0.37500000
   0.37500000  0.37500000  0.87500000
   0.87500000  0.37500000  0.87500000
   0.37500000  0.87500000  0.87500000
   0.87500000  0.87500000  0.87500000
   0.25000000  0.00000000  0.00000000
   0.75000000  0.00000000  0.00000000
   0.25000000  0.50000000  0.00000000
   0.75000000  0.50000000  0.00000000
   0.25000000  0.00000000  0.50000000
   0.75000000  0.00000000  0.50000000
   0.25000000  0.50000000  0.50000000
   0.75000000  0.50000000  0.50000000
   0.37500000  0.12500000  0.12500000
   0.87500000  0.12500000  0.12500000
   0.37500000  0.62500000  0.12500000
   0.87500000  0.62500000  0.12500000
   0.37500000  0.12500000  0.62500000
   0.87500000  0.12500000  0.62500000
   0.37500000  0.62500000  0.62500000
   0.87500000  0.62500000  0.62500000
   0.25000000  0.25000000  0.25000000
   0.75000000  0.25000000  0.25000000
   0.25000000  0.75000000  0.25000000
   0.75000000  0.75000000  0.25000000
   0.25000000  0.25000000  0.75000000
   0.75000000  0.25000000  0.75000000
   0.25000000  0.75000000  0.75000000
   0.75000000  0.75000000  0.75000000
 
 position of ions in cartesian coordinates  (Angst):
   0.93339973  2.70125022  0.89741094
   4.52339909  2.70125022  0.89741094
   0.96929963  6.29106977  0.89741094
   4.55929898  6.29106977  0.89741094
   0.96929963  2.73679250  4.48705468
   4.55929898  2.73679250  4.48705468
   1.00519952  6.32661204  4.48705468
   4.59519888  6.32661204  4.48705468
   0.01794995  0.01777114  1.79482187
   3.60794931  0.01777114  1.79482187
   0.05384984  3.60759068  1.79482187
   3.64384920  3.60759068  1.79482187
   0.05384984  0.05331341  5.38446562
   3.64384920  0.05331341  5.38446562
   0.08974973  3.64313295  5.38446562
   3.67974909  3.64313295  5.38446562
   0.93339973  0.92411159  2.69223281
   4.52339909  0.92411159  2.69223281
   0.96929963  4.51393113  2.69223281
   4.55929898  4.51393113  2.69223281
   0.96929963  0.95965386  6.28187655
   4.55929898  0.95965386  6.28187655
   1.00519952  4.54947340  6.28187655
   4.59519888  4.54947340  6.28187655
   0.01794995  1.79490977  0.00000000
   3.60794931  1.79490977  0.00000000
   0.05384984  5.38472931  0.00000000
   3.64384920  5.38472931  0.00000000
   0.05384984  1.83045204  3.58964375
   3.64384920  1.83045204  3.58964375
   0.08974973  5.42027159  3.58964375
   3.67974909  5.42027159  3.58964375
   2.74634936  2.71902136  2.69223281
   6.33634872  2.71902136  2.69223281
   2.78224925  6.30884090  2.69223281
   6.37224861  6.30884090  2.69223281
   2.78224925  2.75456363  6.28187655
   6.37224861  2.75456363  6.28187655
   2.81814915  6.34438317  6.28187655
   6.40814850  6.34438317  6.28187655
   1.79499968  0.00000000  0.00000000
   5.38499904  0.00000000  0.00000000
   1.83089957  3.58981954  0.00000000
   5.42089893  3.58981954  0.00000000
   1.83089957  0.03554227  3.58964375
   5.42089893  0.03554227  3.58964375
   1.86679947  3.62536181  3.58964375
   5.45679882  3.62536181  3.58964375
   2.71044947  0.90634045  0.89741094
   6.30044882  0.90634045  0.89741094
   2.74634936  4.49616000  0.89741094
   6.33634872  4.49616000  0.89741094
   2.74634936  0.94188272  4.48705468
   6.33634872  0.94188272  4.48705468
   2.78224925  4.53170227  4.48705468
   6.37224861  4.53170227  4.48705468
   1.83089957  1.81268091  1.79482187
   5.42089893  1.81268091  1.79482187
   1.86679947  5.40250045  1.79482187
   5.45679882  5.40250045  1.79482187
   1.86679947  1.84822318  5.38446562
   5.45679882  1.84822318  5.38446562
   1.90269936  5.43804272  5.38446562
   5.49269872  5.43804272  5.38446562
 


--------------------------------------------------------------------------------------------------------


 k-point  1 :   0.0000 0.0000 0.0000  plane waves:    6733
 k-point  2 :   0.1667-0.0000-0.0000  plane waves:    6733
 k-point  3 :   0.3333-0.0000-0.0000  plane waves:    6727
 k-point  4 :   0.5000-0.0000-0.0000  plane waves:    6708
 k-point  5 :   0.1667 0.1667 0.0000  plane waves:    6738
 k-point  6 :   0.3333 0.1667-0.0000  plane waves:    6719
 k-point  7 :   0.5000 0.1667 0.0000  plane waves:    6729
 k-point  8 :  -0.3333 0.1667 0.0000  plane waves:    6714
 k-point  9 :  -0.1667 0.1667 0.0000  plane waves:    6739
 k-point 10 :   0.3333 0.3333 0.0000  plane waves:    6715
 k-point 11 :   0.5000 0.3333-0.0000  plane waves:    6720
 k-point 12 :  -0.3333 0.3333 0.0000  plane waves:    6720
 k-point 13 :   0.5000 0.5000-0.0000  plane waves:    6730
 k-point 14 :   0.1667 0.1667 0.1667  plane waves:    6727
 k-point 15 :   0.3333 0.1667 0.1667  plane waves:    6716
 k-point 16 :   0.5000 0.1667 0.1667  plane waves:    6723
 k-point 17 :  -0.3333 0.1667 0.1667  plane waves:    6715
 k-point 18 :  -0.1667 0.1667 0.1667  plane waves:    6742
 k-point 19 :   0.3333 0.3333 0.1667  plane waves:    6704
 k-point 20 :   0.5000 0.3333 0.1667  plane waves:    6718
 k-point 21 :  -0.3333 0.3333 0.1667  plane waves:    6725
 k-point 22 :  -0.1667 0.3333 0.1667  plane waves:    6721
 k-point 23 :   0.5000 0.5000 0.1667  plane waves:    6714
 k-point 24 :  -0.3333 0.5000 0.1667  plane waves:    6718
 k-point 25 :  -0.1667 0.5000 0.1667  plane waves:    6724
 k-point 26 :  -0.3333-0.3333 0.1667  plane waves:    6716
 k-point 27 :   0.3333 0.3333 0.3333  plane waves:    6758
 k-point 28 :   0.5000 0.3333 0.3333  plane waves:    6740
 k-point 29 :  -0.3333 0.3333 0.3333  plane waves:    6729
 k-point 30 :   0.5000 0.5000 0.3333  plane waves:    6730
 k-point 31 :  -0.3333 0.5000 0.3333  plane waves:    6704
 k-point 32 :   0.5000 0.5000 0.5000  plane waves:    6758

 maximum and minimum number of plane-waves per node :      6758     6704

 maximum number of plane-waves:      6758
 maximum index in each direction: 
   IXMAX=   12   IYMAX=   12   IZMAX=   11
   IXMIN=  -12   IYMIN=  -12   IZMIN=  -12


 serial   3D FFT for wavefunctions
 parallel 3D FFT for charge:
    minimum data exchange during FFTs selected (reduces bandwidth)


 total amount of memory used by VASP MPI-rank0    83792. kBytes
=======================================================================

   base      :      30000. kBytes
   nonl-proj :      20840. kBytes
   fftplans  :       4537. kBytes
   grid      :       5806. kBytes
   one-center:        196. kBytes
   wavefun   :      22413. kBytes
 
     INWAV:  cpu time    0.0003: real time    0.0005
 Broyden mixing: mesh for mixing (old mesh)
   NGX = 23   NGY = 23   NGZ = 23
  (NGX  = 96   NGY  = 96   NGZ  = 96)
  gives a total of  12167 points

 initial charge density was supplied:
 charge density of overlapping atoms calculated
 number of electron     256.0000000 magnetization 
 keeping initial charge density in first step


--------------------------------------------------------------------------------------------------------


 Maximum index for augmentation-charges         1097 (set IRDMAX)


--------------------------------------------------------------------------------------------------------


 First call to EWALD:  gamma=   0.247
 Maximum number of real-space cells 3x 3x 3
 Maximum number of reciprocal cells 3x 3x 3

    FEWALD:  cpu time    0.0149: real time    0.0149


--------------------------------------- Iteration      1(   1)  ---------------------------------------


    POTLOK:  cpu time    0.0649: real time    0.1543
    SETDIJ:  cpu time    0.0413: real time    0.0416
     EDDAV:  cpu time   23.0509: real time   23.0615
       DOS:  cpu time    0.0079: real time    0.0079
    --------------------------------------------
      LOOP:  cpu time   23.1652: real time   23.2654

 eigenvalue-minimisations  : 12288
 total energy-change (2. order) : 0.5052238E+03  (-0.1134476E+05)
 number of electron     256.0000000 magnetization 
 augmentation part      256.0000000 magnetization 

 Free energy of the ion-electron system (eV)
  ---------------------------------------------------
  alpha Z        PSCENC =       901.78606030
  Ewald energy   TEWEN  =    -11062.66543762
  -Hartree energ DENC   =      -577.58691184
  -exchange      EXHF   =         0.00000000
  -V(xc)+E(xc)   XCENC  =       911.17840182
  PAW double counting   =      2421.21235816    -2494.84305711
  entropy T*S    EENTRO =        -0.00994187
  eigenvalues    EBANDS =       990.01001813
  atomic energy  EATOM  =      9416.14232778
  Solvation  Ediel_sol  =         0.00000000
  ---------------------------------------------------
  free energy    TOTEN  =       505.22381775 eV

  energy without entropy =      505.23375961  energy(sigma->0) =      505.22878868


--------------------------------------------------------------------------------------------------------




--------------------------------------- Iteration      1(   2)  ---------------------------------------


     EDDAV:  cpu time   27.5181: real time   27.5199
       DOS:  cpu time    0.0040: real time    0.0040
    --------------------------------------------
      LOOP:  cpu time   27.5221: real time   27.5238

 eigenvalue-minimisations  : 16256
 total energy-change (2. order) :-0.1064276E+04  (-0.1014835E+04)
 number of electron     256.0000000 magnetization 
 augmentation part      256.0000000 magnetization 

 Free energy of the ion-electron system (eV)
  ---------------------------------------------------
  alpha Z        PSCENC =       901.78606030
  Ewald energy   TEWEN  =    -11062.66543762
  -Hartree energ DENC   =      -577.58691184
  -exchange      EXHF   =         0.00000000
  -V(xc)+E(xc)   XCENC  =       911.17840182
  PAW double counting   =      2421.21235816    -2494.84305711
  entropy T*S    EENTRO =        -0.00000000
  eigenvalues    EBANDS =       -74.27563183
  atomic energy  EATOM  =      9416.14232778
  Solvation  Ediel_sol  =         0.00000000
  ---------------------------------------------------
  free energy    TOTEN  =      -559.05189034 eV

  energy without entropy =     -559.05189034  energy(sigma->0) =     -559.05189034


--------------------------------------------------------------------------------------------------------




--------------------------------------- Iteration      1(   3)  ---------------------------------------


     EDDAV:  cpu time   27.4603: real time   27.4621
       DOS:  cpu time    0.0037: real time    0.0037
    --------------------------------------------
      LOOP:  cpu time   27.4640: real time   27.4657

 eigenvalue-minimisations  : 16224
 total energy-change (2. order) :-0.4131198E+02  (-0.4106379E+02)
 number of electron     256.0000000 magnetization 
 augmentation part      256.0000000 magnetization 

 Free energy of the ion-electron system (eV)
  ---------------------------------------------------
  alpha Z        PSCENC =       901.78606030
  Ewald energy   TEWEN  =    -11062.66543762
  -Hartree energ DENC   =      -577.58691184
  -exchange      EXHF   =         0.00000000
  -V(xc)+E(xc)   XCENC  =       911.17840182
  PAW double counting   =      2421.21235816    -2494.84305711
  entropy T*S    EENTRO =        -0.00000000
  eigenvalues    EBANDS =      -115.58760736
  atomic energy  EATOM  =      9416.14232778
  Solvation  Ediel_sol  =         0.00000000
  ---------------------------------------------------
  free energy    TOTEN  =      -600.36386587 eV

  energy without entropy =     -600.36386587  energy(sigma->0) =     -600.36386587


--------------------------------------------------------------------------------------------------------




--------------------------------------- Iteration      1(   4)  ---------------------------------------


     EDDAV:  cpu time   27.4640: real time   27.4657
       DOS:  cpu time    0.0041: real time    0.0041
    --------------------------------------------
      LOOP:  cpu time   27.4681: real time   27.4698

 eigenvalue-minimisations  : 16416
 total energy-change (2. order) :-0.4555497E+00  (-0.4546388E+00)
 number of electron     256.0000000 magnetization 
 augmentation part      256.0000000 magnetization 

 Free energy of the ion-electron system (eV)
  ---------------------------------------------------
  alpha Z        PSCENC =       901.78606030
  Ewald energy   TEWEN  =    -11062.66543762
  -Hartree energ DENC   =      -577.58691184
  -exchange      EXHF   =         0.00000000
  -V(xc)+E(xc)   XCENC  =       911.17840182
  PAW double counting   =      2421.21235816    -2494.84305711
  entropy T*S    EENTRO =        -0.00000000
  eigenvalues    EBANDS =      -116.04315704
  atomic energy  EATOM  =      9416.14232778
  Solvation  Ediel_sol  =         0.00000000
  ---------------------------------------------------
  free energy    TOTEN  =      -600.81941556 eV

  energy without entropy =     -600.81941556  energy(sigma->0) =     -600.81941556


--------------------------------------------------------------------------------------------------------




--------------------------------------- Iteration      1(   5)  ---------------------------------------


     EDDAV:  cpu time   26.6194: real time   26.6210
       DOS:  cpu time    0.0039: real time    0.0039
    CHARGE:  cpu time    0.6482: real time    0.6484
    MIXING:  cpu time    0.0037: real time    0.0037
    --------------------------------------------
      LOOP:  cpu time   27.2752: real time   27.2771

 eigenvalue-minimisations  : 15296
 total energy-change (2. order) :-0.9208220E-02  (-0.9204504E-02)
 number of electron     255.9999995 magnetization 
 augmentation part        6.1886039 magnetization 

 Broyden mixing:
  rms(total) = 0.26268E+01    rms(broyden)= 0.26263E+01
  rms(prec ) = 0.38394E+01
  weight for this iteration     100.00

 Free energy of the ion-electron system (eV)
  ---------------------------------------------------
  alpha Z        PSCENC =       901.78606030
  Ewald energy   TEWEN  =    -11062.66543762
  -Hartree energ DENC   =      -577.58691184
  -exchange      EXHF   =         0.00000000
  -V(xc)+E(xc)   XCENC  =       911.17840182
  PAW double counting   =      2421.21235816    -2494.84305711
  entropy T*S    EENTRO =        -0.00000000
  eigenvalues    EBANDS =      -116.05236526
  atomic energy  EATOM  =      9416.14232778
  Solvation  Ediel_sol  =         0.00000000
  ---------------------------------------------------
  free energy    TOTEN  =      -600.82862378 eV

  energy without entropy =     -600.82862378  energy(sigma->0) =     -600.82862378


--------------------------------------------------------------------------------------------------------




--------------------------------------- Iteration      1(   6)  ---------------------------------------


    POTLOK:  cpu time    0.0575: real time    0.0579
    SETDIJ:  cpu time    0.0415: real time    0.0415
     EDDAV:  cpu time   24.9876: real time   24.9889
       DOS:  cpu time    0.0040: real time    0.0040
    CHARGE:  cpu time    0.6429: real time    0.6430
    MIXING:  cpu time    0.0046: real time    0.0046
    --------------------------------------------
      LOOP:  cpu time   25.7381: real time   25.7398

 eigenvalue-minimisations  : 14560
 total energy-change (2. order) : 0.1433609E+02  (-0.9515902E+00)
 number of electron     255.9999995 magnetization 
 augmentation part        6.0468402 magnetization 

 Broyden mixing:
  rms(total) = 0.14444E+01    rms(broyden)= 0.14443E+01
  rms(prec ) = 0.20914E+01
  weight for this iteration     100.00

 eigenvalues of (default mixing * dielectric matrix)
  average eigenvalue GAMMA=   2.1739
  2.1739

 Free energy of the ion-electron system (eV)
  ---------------------------------------------------
  alpha Z        PSCENC =       901.78606030
  Ewald energy   TEWEN  =    -11062.66543762
  -Hartree energ DENC   =      -696.98918011
  -exchange      EXHF   =         0.00000000
  -V(xc)+E(xc)   XCENC  =       922.33619480
  PAW double counting   =      3124.37011200    -3202.13914420
  entropy T*S    EENTRO =        -0.00000000
  eigenvalues    EBANDS =        10.66653066
  atomic energy  EATOM  =      9416.14232778
  Solvation  Ediel_sol  =         0.00000000
  ---------------------------------------------------
  free energy    TOTEN  =      -586.49253639 eV

  energy without entropy =     -586.49253639  energy(sigma->0) =     -586.49253639


--------------------------------------------------------------------------------------------------------




--------------------------------------- Iteration      1(   7)  ---------------------------------------


    POTLOK:  cpu time    0.0587: real time    0.0591
    SETDIJ:  cpu time    0.0397: real time    0.0397
     EDDAV:  cpu time   27.3684: real time   27.3698
       DOS:  cpu time    0.0039: real time    0.0039
    CHARGE:  cpu time    0.6455: real time    0.6455
    MIXING:  cpu time    0.0041: real time    0.0041
    --------------------------------------------
      LOOP:  cpu time   28.1203: real time   28.1220

 eigenvalue-minimisations  : 14976
 total energy-change (2. order) : 0.4842654E+01  (-0.1092864E+01)
 number of electron     255.9999995 magnetization 
 augmentation part        5.8981995 magnetization 

 Broyden mixing:
  rms(total) = 0.19468E+00    rms(broyden)= 0.19374E+00
  rms(prec ) = 0.23845E+00
  weight for this iteration     100.00

 eigenvalues of (default mixing * dielectric matrix)
  average eigenvalue GAMMA=   2.2736
  2.0137  2.5336

 Free energy of the ion-electron system (eV)
  ---------------------------------------------------
  alpha Z        PSCENC =       901.78606030
  Ewald energy   TEWEN  =    -11062.66543762
  -Hartree energ DENC   =      -850.01749232
  -exchange      EXHF   =         0.00000000
  -V(xc)+E(xc)   XCENC  =       936.81332841
  PAW double counting   =      4080.65879953    -4162.36051174
  entropy T*S    EENTRO =        -0.00000000
  eigenvalues    EBANDS =       157.99304343
  atomic energy  EATOM  =      9416.14232778
  Solvation  Ediel_sol  =         0.00000000
  ---------------------------------------------------
  free energy    TOTEN  =      -581.64988222 eV

  energy without entropy =     -581.64988222  energy(sigma->0) =     -581.64988222


--------------------------------------------------------------------------------------------------------




--------------------------------------- Iteration      1(   8)  ---------------------------------------


    POTLOK:  cpu time    0.0843: real time    0.0846
    SETDIJ:  cpu time    0.0423: real time    0.0423
     EDDAV:  cpu time   26.0829: real time   26.0842
       DOS:  cpu time    0.0038: real time    0.0038
    CHARGE:  cpu time    0.6493: real time    0.6493
    MIXING:  cpu time    0.0045: real time    0.0045
    --------------------------------------------
      LOOP:  cpu time   26.8670: real time   26.8688

 eigenvalue-minimisations  : 15456
 total energy-change (2. order) :-0.5904138E-01  (-0.2510055E-01)
 number of electron     255.9999995 magnetization 
 augmentation part        5.9064577 magnetization 

 Broyden mixing:
  rms(total) = 0.21280E-01    rms(broyden)= 0.20986E-01
  rms(prec ) = 0.25822E-01
  weight for this iteration     100.00

 eigenvalues of (default mixing * dielectric matrix)
  average eigenvalue GAMMA=   2.1033
  1.4651  2.6857  2.1590

 Free energy of the ion-electron system (eV)
  ---------------------------------------------------
  alpha Z        PSCENC =       901.78606030
  Ewald energy   TEWEN  =    -11062.66543762
  -Hartree energ DENC   =      -852.97306299
  -exchange      EXHF   =         0.00000000
  -V(xc)+E(xc)   XCENC  =       937.12020174
  PAW double counting   =      4144.92471869    -4225.58464690
  entropy T*S    EENTRO =        -0.00000000
  eigenvalues    EBANDS =       159.54091540
  atomic energy  EATOM  =      9416.14232778
  Solvation  Ediel_sol  =         0.00000000
  ---------------------------------------------------
  free energy    TOTEN  =      -581.70892360 eV

  energy without entropy =     -581.70892360  energy(sigma->0) =     -581.70892360


--------------------------------------------------------------------------------------------------------




--------------------------------------- Iteration      1(   9)  ---------------------------------------


    POTLOK:  cpu time    0.0612: real time    0.0618
    SETDIJ:  cpu time    0.0398: real time    0.0398
     EDDAV:  cpu time   27.2359: real time   27.2372
       DOS:  cpu time    0.0038: real time    0.0038
    CHARGE:  cpu time    0.6412: real time    0.6413
    MIXING:  cpu time    0.0048: real time    0.0048
    --------------------------------------------
      LOOP:  cpu time   27.9867: real time   27.9886

 eigenvalue-minimisations  : 15840
 total energy-change (2. order) :-0.2155697E-02  (-0.3681769E-03)
 number of electron     255.9999995 magnetization 
 augmentation part        5.9054146 magnetization 

 Broyden mixing:
  rms(total) = 0.80354E-02    rms(broyden)= 0.80136E-02
  rms(prec ) = 0.10211E-01
  weight for this iteration     100.00

 eigenvalues of (default mixing * dielectric matrix)
  average eigenvalue GAMMA=   2.0304
  0.9578  2.7453  2.4400  1.9785

 Free energy of the ion-electron system (eV)
  ---------------------------------------------------
  alpha Z        PSCENC =       901.78606030
  Ewald energy   TEWEN  =    -11062.66543762
  -Hartree energ DENC   =      -852.51049707
  -exchange      EXHF   =         0.00000000
  -V(xc)+E(xc)   XCENC  =       937.07505013
  PAW double counting   =      4140.71079382    -4221.26990577
  entropy T*S    EENTRO =        -0.00000000
  eigenvalues    EBANDS =       159.02052913
  atomic energy  EATOM  =      9416.14232778
  Solvation  Ediel_sol  =         0.00000000
  ---------------------------------------------------
  free energy    TOTEN  =      -581.71107930 eV

  energy without entropy =     -581.71107930  energy(sigma->0) =     -581.71107930


--------------------------------------------------------------------------------------------------------




--------------------------------------- Iteration      1(  10)  ---------------------------------------


    POTLOK:  cpu time    0.0598: real time    0.0602
    SETDIJ:  cpu time    0.0419: real time    0.0419
     EDDAV:  cpu time   25.2210: real time   25.2222
       DOS:  cpu time    0.0039: real time    0.0039
    CHARGE:  cpu time    0.6417: real time    0.6418
    MIXING:  cpu time    0.0078: real time    0.0078
    --------------------------------------------
      LOOP:  cpu time   25.9760: real time   25.9776

 eigenvalue-minimisations  : 14944
 total energy-change (2. order) :-0.4624149E-03  (-0.4061141E-04)
 number of electron     255.9999995 magnetization 
 augmentation part        5.9051283 magnetization 

 Broyden mixing:
  rms(total) = 0.81985E-03    rms(broyden)= 0.80433E-03
  rms(prec ) = 0.12173E-02
  weight for this iteration     100.00

 eigenvalues of (default mixing * dielectric matrix)
  average eigenvalue GAMMA=   1.9566
  2.9359  2.5504  2.0634  0.9853  1.2480

 Free energy of the ion-electron system (eV)
  ---------------------------------------------------
  alpha Z        PSCENC =       901.78606030
  Ewald energy   TEWEN  =    -11062.66543762
  -Hartree energ DENC   =      -852.90780398
  -exchange      EXHF   =         0.00000000
  -V(xc)+E(xc)   XCENC  =       937.10962751
  PAW double counting   =      4137.26185227    -4217.83487076
  entropy T*S    EENTRO =        -0.00000000
  eigenvalues    EBANDS =       159.39670279
  atomic energy  EATOM  =      9416.14232778
  Solvation  Ediel_sol  =         0.00000000
  ---------------------------------------------------
  free energy    TOTEN  =      -581.71154171 eV

  energy without entropy =     -581.71154171  energy(sigma->0) =     -581.71154171


--------------------------------------------------------------------------------------------------------




--------------------------------------- Iteration      1(  11)  ---------------------------------------


    POTLOK:  cpu time    0.0644: real time    0.0647
    SETDIJ:  cpu time    0.0403: real time    0.0403
     EDDAV:  cpu time   28.4950: real time   28.4965
       DOS:  cpu time    0.0037: real time    0.0037
    CHARGE:  cpu time    0.6417: real time    0.6418
    MIXING:  cpu time    0.0053: real time    0.0053
    --------------------------------------------
      LOOP:  cpu time   29.2504: real time   29.2522

 eigenvalue-minimisations  : 16224
 total energy-change (2. order) :-0.6070450E-05  (-0.1175782E-05)
 number of electron     255.9999995 magnetization 
 augmentation part        5.9049386 magnetization 

 Broyden mixing:
  rms(total) = 0.22246E-03    rms(broyden)= 0.21699E-03
  rms(prec ) = 0.28898E-03
  weight for this iteration     100.00

 eigenvalues of (default mixing * dielectric matrix)
  average eigenvalue GAMMA=   1.9863
  2.9595  2.5586  2.3851  2.0261  0.9942  0.9942

 Free energy of the ion-electron system (eV)
  ---------------------------------------------------
  alpha Z        PSCENC =       901.78606030
  Ewald energy   TEWEN  =    -11062.66543762
  -Hartree energ DENC   =      -853.02842470
  -exchange      EXHF   =         0.00000000
  -V(xc)+E(xc)   XCENC  =       937.12080442
  PAW double counting   =      4137.53538042    -4218.11317241
  entropy T*S    EENTRO =        -0.00000000
  eigenvalues    EBANDS =       159.51091402
  atomic energy  EATOM  =      9416.14232778
  Solvation  Ediel_sol  =         0.00000000
  ---------------------------------------------------
  free energy    TOTEN  =      -581.71154778 eV

  energy without entropy =     -581.71154778  energy(sigma->0) =     -581.71154778


--------------------------------------------------------------------------------------------------------




--------------------------------------- Iteration      1(  12)  ---------------------------------------


    POTLOK:  cpu time    0.0663: real time    0.0666
    SETDIJ:  cpu time    0.0462: real time    0.0462
     EDDAV:  cpu time   27.4417: real time   27.4431
       DOS:  cpu time    0.0037: real time    0.0037
    CHARGE:  cpu time    0.6440: real time    0.6440
    MIXING:  cpu time    0.0048: real time    0.0048
    --------------------------------------------
      LOOP:  cpu time   28.2067: real time   28.2084

 eigenvalue-minimisations  : 15776
 total energy-change (2. order) :-0.1027165E-06  (-0.4186784E-07)
 number of electron     255.9999995 magnetization 
 augmentation part        5.9049558 magnetization 

 Broyden mixing:
  rms(total) = 0.26212E-04    rms(broyden)= 0.24542E-04
  rms(prec ) = 0.33952E-04
  weight for this iteration     100.00

 eigenvalues of (default mixing * dielectric matrix)
  average eigenvalue GAMMA=   1.9208
  2.8674  2.6793  2.5296  2.0454  0.9981  0.9981  1.3277

 Free energy of the ion-electron system (eV)
  ---------------------------------------------------
  alpha Z        PSCENC =       901.78606030
  Ewald energy   TEWEN  =    -11062.66543762
  -Hartree energ DENC   =      -853.01277768
  -exchange      EXHF   =         0.00000000
  -V(xc)+E(xc)   XCENC  =       937.11935917
  PAW double counting   =      4137.59732442    -4218.17344249
  entropy T*S    EENTRO =        -0.00000000
  eigenvalues    EBANDS =       159.49503824
  atomic energy  EATOM  =      9416.14232778
  Solvation  Ediel_sol  =         0.00000000
  ---------------------------------------------------
  free energy    TOTEN  =      -581.71154788 eV

  energy without entropy =     -581.71154788  energy(sigma->0) =     -581.71154788


--------------------------------------------------------------------------------------------------------




--------------------------------------- Iteration      1(  13)  ---------------------------------------


    POTLOK:  cpu time    0.0580: real time    0.0584
    SETDIJ:  cpu time    0.0440: real time    0.0440
     EDDAV:  cpu time   23.4246: real time   23.4258
       DOS:  cpu time    0.0039: real time    0.0039
    CHARGE:  cpu time    0.6433: real time    0.6433
    MIXING:  cpu time    0.0048: real time    0.0048
    --------------------------------------------
      LOOP:  cpu time   24.1785: real time   24.1801

 eigenvalue-minimisations  : 11968
 total energy-change (2. order) :-0.8648749E-07  (-0.7065823E-09)
 number of electron     255.9999995 magnetization 
 augmentation part        5.9049540 magnetization 

 Broyden mixing:
  rms(total) = 0.92549E-05    rms(broyden)= 0.74379E-05
  rms(prec ) = 0.96928E-05
  weight for this iteration     100.00
  WARNING: grid for Broyden might be to small

 eigenvalues of (default mixing * dielectric matrix)
  average eigenvalue GAMMA=   1.9523
  2.9714  2.0413  2.5768  2.4928  2.4928  0.9921  0.9921  1.0592

 Free energy of the ion-electron system (eV)
  ---------------------------------------------------
  alpha Z        PSCENC =       901.78606030
  Ewald energy   TEWEN  =    -11062.66543762
  -Hartree energ DENC   =      -853.01039904
  -exchange      EXHF   =         0.00000000
  -V(xc)+E(xc)   XCENC  =       937.11913594
  PAW double counting   =      4137.59438933    -4218.17040291
  entropy T*S    EENTRO =        -0.00000000
  eigenvalues    EBANDS =       159.49277825
  atomic energy  EATOM  =      9416.14232778
  Solvation  Ediel_sol  =         0.00000000
  ---------------------------------------------------
  free energy    TOTEN  =      -581.71154797 eV

  energy without entropy =     -581.71154797  energy(sigma->0) =     -581.71154797


--------------------------------------------------------------------------------------------------------




--------------------------------------- Iteration      1(  14)  ---------------------------------------


    POTLOK:  cpu time    0.0602: real time    0.0605
    SETDIJ:  cpu time    0.0402: real time    0.0402
     EDDAV:  cpu time   20.9921: real time   20.9931
       DOS:  cpu time    0.0042: real time    0.0042
    CHARGE:  cpu time    0.6483: real time    0.6483
    MIXING:  cpu time    0.0055: real time    0.0055
    --------------------------------------------
      LOOP:  cpu time   21.7504: real time   21.7518

 eigenvalue-minimisations  : 10752
 total energy-change (2. order) :-0.1703665E-07  (-0.1381578E-09)
 number of electron     255.9999995 magnetization 
 augmentation part        5.9049544 magnetization 

 Broyden mixing:
  rms(total) = 0.58484E-05    rms(broyden)= 0.24196E-05
  rms(prec ) = 0.33507E-05
  weight for this iteration     100.00
  WARNING: grid for Broyden might be to small

 eigenvalues of (default mixing * dielectric matrix)
  average eigenvalue GAMMA=   1.8548
  2.9410  2.6337  2.4703  2.0725  2.0725  1.0011  1.0011  0.9575  1.5438

 Free energy of the ion-electron system (eV)
  ---------------------------------------------------
  alpha Z        PSCENC =       901.78606030
  Ewald energy   TEWEN  =    -11062.66543762
  -Hartree energ DENC   =      -853.01005137
  -exchange      EXHF   =         0.00000000
  -V(xc)+E(xc)   XCENC  =       937.11910518
  PAW double counting   =      4137.59272086    -4218.16868649
  entropy T*S    EENTRO =        -0.00000000
  eigenvalues    EBANDS =       159.49241338
  atomic energy  EATOM  =      9416.14232778
  Solvation  Ediel_sol  =         0.00000000
  ---------------------------------------------------
  free energy    TOTEN  =      -581.71154799 eV

  energy without entropy =     -581.71154799  energy(sigma->0) =     -581.71154799


--------------------------------------------------------------------------------------------------------




--------------------------------------- Iteration      1(  15)  ---------------------------------------


    POTLOK:  cpu time    0.0653: real time    0.0657
    SETDIJ:  cpu time    0.0437: real time    0.0437
     EDDAV:  cpu time   19.5100: real time   19.5110
       DOS:  cpu time    0.0038: real time    0.0038
    --------------------------------------------
      LOOP:  cpu time   19.6228: real time   19.6241

 eigenvalue-minimisations  :  9664
 total energy-change (2. order) :-0.3865352E-08  (-0.2898362E-10)
 number of electron     255.9999995 magnetization 
 augmentation part        5.9049544 magnetization 

 Free energy of the ion-electron system (eV)
  ---------------------------------------------------
  alpha Z        PSCENC =       901.78606030
  Ewald energy   TEWEN  =    -11062.66543762
  -Hartree energ DENC   =      -853.01034553
  -exchange      EXHF   =         0.00000000
  -V(xc)+E(xc)   XCENC  =       937.11913261
  PAW double counting   =      4137.59400472    -4218.16999420
  entropy T*S    EENTRO =        -0.00000000
  eigenvalues    EBANDS =       159.49270395
  atomic energy  EATOM  =      9416.14232778
  Solvation  Ediel_sol  =         0.00000000
  ---------------------------------------------------
  free energy    TOTEN  =      -581.71154799 eV

  energy without entropy =     -581.71154799  energy(sigma->0) =     -581.71154799


--------------------------------------------------------------------------------------------------------




 average (electrostatic) potential at core
  the test charge radii are     0.6991
  (the norm of the test charge is              1.0000)
       1 -45.6567       2 -45.6567       3 -45.6567       4 -45.6567       5 -45.6567
       6 -45.6567       7 -45.6567       8 -45.6567       9 -45.6567      10 -45.6567
      11 -45.6567      12 -45.6567      13 -45.6567      14 -45.6567      15 -45.6567
      16 -45.6567      17 -45.6567      18 -45.6567      19 -45.6567      20 -45.6567
      21 -45.6567      22 -45.6567      23 -45.6567      24 -45.6567      25 -45.6567
      26 -45.6567      27 -45.6567      28 -45.6567      29 -45.6567      30 -45.6567
      31 -45.6567      32 -45.6567      33 -45.6567      34 -45.6567      35 -45.6567
      36 -45.6567      37 -45.6567      38 -45.6567      39 -45.6567      40 -45.6567
      41 -45.6567      42 -45.6567      43 -45.6567      44 -45.6567      45 -45.6567
      46 -45.6567      47 -45.6567      48 -45.6567      49 -45.6567      50 -45.6567
      51 -45.6567      52 -45.6567      53 -45.6567      54 -45.6567      55 -45.6567
      56 -45.6567      57 -45.6567      58 -45.6567      59 -45.6567      60 -45.6567
      61 -45.6567      62 -45.6567      63 -45.6567      64 -45.6567
 
 
 
 E-fermi :   9.7993     XC(G=0): -13.1267     alpha+bet :-17.3605


 k-point     1 :       0.0000    0.0000    0.0000
  band No.  band energies     occupation 
      1     -11.7431      2.00000
      2      -9.4893      2.00000
      3      -9.4893      2.00000
      4      -9.4893      2.00000
      5      -9.4893      2.00000
      6      -9.4893      2.00000
      7      -9.4893      2.00000
      8      -7.3919      2.00000
      9      -7.3919      2.00000
     10      -7.3919      2.00000
     11      -7.3919      2.00000
     12      -7.3919      2.00000
     13      -7.3919      2.00000
     14      -7.2885      2.00000
     15      -7.2885      2.00000
     16      -7.2885      2.00000
     17      -7.2885      2.00000
     18      -7.2885      2.00000
     19      -7.2885      2.00000
     20      -6.2872      2.00000
     21      -6.0093      2.00000
     22      -6.0093      2.00000
     23      -6.0093      2.00000
     24      -3.6892      2.00000
     25      -3.6892      2.00000
     26      -3.6892      2.00000
     27      -3.6653      2.00000
     28      -3.2097      2.00000
     29      -3.2097      2.00000
     30      -3.2097      2.00000
     31      -3.0980      2.00000
     32      -3.0980      2.00000
     33      -3.0980      2.00000
     34      -2.5217      2.00000
     35      -2.5217      2.00000
     36      -2.5217      2.00000
     37      -2.5217      2.00000
     38      -2.5217      2.00000
     39      -2.5217      2.00000
     40      -2.2653      2.00000
     41      -2.2653      2.00000
     42      -2.2653      2.00000
     43      -2.2653      2.00000
     44      -2.2653      2.00000
     45      -2.2653      2.00000
     46       0.8401      2.00000
     47       0.8401      2.00000
     48       0.8401      2.00000
     49       0.8401      2.00000
     50       0.8401      2.00000
     51       0.8401      2.00000
     52       0.8962      2.00000
     53       0.8962      2.00000
     54       0.8962      2.00000
     55       0.8962      2.00000
     56       0.8962      2.00000
     57       0.8962      2.00000
     58       1.3222      2.00000
     59       1.3222      2.00000
     60       1.3222      2.00000
     61       1.3222      2.00000
     62       1.3222      2.00000
     63       1.3222      2.00000
     64       1.3259      2.00000
     65       1.3259      2.00000
     66       1.3259      2.00000
     67       1.3259      2.00000
     68       1.3259      2.00000
     69       1.3259      2.00000
     70       1.9817      2.00000
     71       1.9817      2.00000
     72       1.9817      2.00000
     73       1.9817      2.00000
     74       1.9817      2.00000
     75       1.9817      2.00000
     76       2.0349      2.00000
     77       2.0349      2.00000
[...]
      4.559299  0.959654  6.281877     0.001613   -0.013302   -0.013171  
      1.005200  4.549473  6.281877    -0.001613    0.013302    0.013171  
      4.595199  4.549473  6.281877     0.001613   -0.013302   -0.013171  
      0.017950  1.794910  0.000000     0.007916    0.081624    0.080820  
      3.607949  1.794910  0.000000    -0.007916   -0.081624   -0.080820  
      0.053850  5.384729  0.000000     0.007916    0.081624    0.080820  
      3.643849  5.384729  0.000000    -0.007916   -0.081624   -0.080820  
      0.053850  1.830452  3.589644     0.007916    0.081624    0.080820  
      3.643849  1.830452  3.589644    -0.007916   -0.081624   -0.080820  
      0.089750  5.420272  3.589644     0.007916    0.081624    0.080820  
      3.679749  5.420272  3.589644    -0.007916   -0.081624   -0.080820  
      2.746349  2.719021  2.692233    -0.009360   -0.124729   -0.123499  
      6.336349  2.719021  2.692233     0.009360    0.124729    0.123499  
      2.782249  6.308841  2.692233    -0.009360   -0.124729   -0.123499  
      6.372249  6.308841  2.692233     0.009360    0.124729    0.123499  
      2.782249  2.754564  6.281877    -0.009360   -0.124729   -0.123499  
      6.372249  2.754564  6.281877     0.009360    0.124729    0.123499  
      2.818149  6.344383  6.281877    -0.009360   -0.124729   -0.123499  
      6.408149  6.344383  6.281877     0.009360    0.124729    0.123499  
      1.795000  0.000000  0.000000    -0.005248   -0.095245   -0.094307  
      5.384999  0.000000  0.000000     0.005248    0.095245    0.094307  
      1.830900  3.589820  0.000000    -0.005248   -0.095245   -0.094307  
      5.420899  3.589820  0.000000     0.005248    0.095245    0.094307  
      1.830900  0.035542  3.589644    -0.005248   -0.095245   -0.094307  
      5.420899  0.035542  3.589644     0.005248    0.095245    0.094307  
      1.866799  3.625362  3.589644    -0.005248   -0.095245   -0.094307  
      5.456799  3.625362  3.589644     0.005248    0.095245    0.094307  
      2.710449  0.906340  0.897411    -0.009360   -0.124729   -0.123499  
      6.300449  0.906340  0.897411     0.009360    0.124729    0.123499  
      2.746349  4.496160  0.897411    -0.009360   -0.124729   -0.123499  
      6.336349  4.496160  0.897411     0.009360    0.124729    0.123499  
      2.746349  0.941883  4.487055    -0.009360   -0.124729   -0.123499  
      6.336349  0.941883  4.487055     0.009360    0.124729    0.123499  
      2.782249  4.531702  4.487055    -0.009360   -0.124729   -0.123499  
      6.372249  4.531702  4.487055     0.009360    0.124729    0.123499  
      1.830900  1.812681  1.794822    -0.005248   -0.095245   -0.094307  
      5.420899  1.812681  1.794822     0.005248    0.095245    0.094307  
      1.866799  5.402500  1.794822    -0.005248   -0.095245   -0.094307  
      5.456799  5.402500  1.794822     0.005248    0.095245    0.094307  
      1.866799  1.848223  5.384466    -0.005248   -0.095245   -0.094307  
      5.456799  1.848223  5.384466     0.005248    0.095245    0.094307  
      1.902699  5.438043  5.384466    -0.005248   -0.095245   -0.094307  
      5.492699  5.438043  5.384466     0.005248    0.095245    0.094307  
 
 190 f  =    0.000002 THz     0.000014 2PiTHz    0.000072 cm-1     0.000009 meV
             X         Y         Z           dx          dy          dz
      0.933400  2.701250  0.897411     0.004877   -0.124904   -0.000534  
      4.523399  2.701250  0.897411     0.004877   -0.124904   -0.000534  
      0.969300  6.291070  0.897411     0.004877   -0.124904   -0.000534  
      4.559299  6.291070  0.897411     0.004877   -0.124904   -0.000534  
      0.969300  2.736792  4.487055     0.004877   -0.124904   -0.000534  
      4.559299  2.736792  4.487055     0.004877   -0.124904   -0.000534  
      1.005200  6.326612  4.487055     0.004877   -0.124904   -0.000534  
      4.595199  6.326612  4.487055     0.004877   -0.124904   -0.000534  
      0.017950  0.017771  1.794822     0.004877   -0.124904   -0.000534  
      3.607949  0.017771  1.794822     0.004877   -0.124904   -0.000534  
      0.053850  3.607591  1.794822     0.004877   -0.124904   -0.000534  
      3.643849  3.607591  1.794822     0.004877   -0.124904   -0.000534  
      0.053850  0.053313  5.384466     0.004877   -0.124904   -0.000534  
      3.643849  0.053313  5.384466     0.004877   -0.124904   -0.000534  
      0.089750  3.643133  5.384466     0.004877   -0.124904   -0.000534  
      3.679749  3.643133  5.384466     0.004877   -0.124904   -0.000534  
      0.933400  0.924112  2.692233     0.004877   -0.124904   -0.000534  
      4.523399  0.924112  2.692233     0.004877   -0.124904   -0.000534  
      0.969300  4.513931  2.692233     0.004877   -0.124904   -0.000534  
      4.559299  4.513931  2.692233     0.004877   -0.124904   -0.000534  
      0.969300  0.959654  6.281877     0.004877   -0.124904   -0.000534  
      4.559299  0.959654  6.281877     0.004877   -0.124904   -0.000534  
      1.005200  4.549473  6.281877     0.004877   -0.124904   -0.000534  
      4.595199  4.549473  6.281877     0.004877   -0.124904   -0.000534  
      0.017950  1.794910  0.000000     0.004877   -0.124904   -0.000534  
      3.607949  1.794910  0.000000     0.004877   -0.124904   -0.000534  
      0.053850  5.384729  0.000000     0.004877   -0.124904   -0.000534  
      3.643849  5.384729  0.000000     0.004877   -0.124904   -0.000534  
      0.053850  1.830452  3.589644     0.004877   -0.124904   -0.000534  
      3.643849  1.830452  3.589644     0.004877   -0.124904   -0.000534  
      0.089750  5.420272  3.589644     0.004877   -0.124904   -0.000534  
      3.679749  5.420272  3.589644     0.004877   -0.124904   -0.000534  
      2.746349  2.719021  2.692233     0.004877   -0.124904   -0.000534  
      6.336349  2.719021  2.692233     0.004877   -0.124904   -0.000534  
      2.782249  6.308841  2.692233     0.004877   -0.124904   -0.000534  
      6.372249  6.308841  2.692233     0.004877   -0.124904   -0.000534  
      2.782249  2.754564  6.281877     0.004877   -0.124904   -0.000534  
      6.372249  2.754564  6.281877     0.004877   -0.124904   -0.000534  
      2.818149  6.344383  6.281877     0.004877   -0.124904   -0.000534  
      6.408149  6.344383  6.281877     0.004877   -0.124904   -0.000534  
      1.795000  0.000000  0.000000     0.004877   -0.124904   -0.000534  
      5.384999  0.000000  0.000000     0.004877   -0.124904   -0.000534  
      1.830900  3.589820  0.000000     0.004877   -0.124904   -0.000534  
      5.420899  3.589820  0.000000     0.004877   -0.124904   -0.000534  
      1.830900  0.035542  3.589644     0.004877   -0.124904   -0.000534  
      5.420899  0.035542  3.589644     0.004877   -0.124904   -0.000534  
      1.866799  3.625362  3.589644     0.004877   -0.124904   -0.000534  
      5.456799  3.625362  3.589644     0.004877   -0.124904   -0.000534  
      2.710449  0.906340  0.897411     0.004877   -0.124904   -0.000534  
      6.300449  0.906340  0.897411     0.004877   -0.124904   -0.000534  
      2.746349  4.496160  0.897411     0.004877   -0.124904   -0.000534  
      6.336349  4.496160  0.897411     0.004877   -0.124904   -0.000534  
      2.746349  0.941883  4.487055     0.004877   -0.124904   -0.000534  
      6.336349  0.941883  4.487055     0.004877   -0.124904   -0.000534  
      2.782249  4.531702  4.487055     0.004877   -0.124904   -0.000534  
      6.372249  4.531702  4.487055     0.004877   -0.124904   -0.000534  
      1.830900  1.812681  1.794822     0.004877   -0.124904   -0.000534  
      5.420899  1.812681  1.794822     0.004877   -0.124904   -0.000534  
      1.866799  5.402500  1.794822     0.004877   -0.124904   -0.000534  
      5.456799  5.402500  1.794822     0.004877   -0.124904   -0.000534  
      1.866799  1.848223  5.384466     0.004877   -0.124904   -0.000534  
      5.456799  1.848223  5.384466     0.004877   -0.124904   -0.000534  
      1.902699  5.438043  5.384466     0.004877   -0.124904   -0.000534  
      5.492699  5.438043  5.384466     0.004877   -0.124904   -0.000534  
 
 191 f  =    0.000001 THz     0.000009 2PiTHz    0.000045 cm-1     0.000006 meV
             X         Y         Z           dx          dy          dz
      0.933400  2.701250  0.897411    -0.006398   -0.000784    0.124834  
      4.523399  2.701250  0.897411    -0.006398   -0.000784    0.124834  
      0.969300  6.291070  0.897411    -0.006398   -0.000784    0.124834  
      4.559299  6.291070  0.897411    -0.006398   -0.000784    0.124834  
      0.969300  2.736792  4.487055    -0.006398   -0.000784    0.124834  
      4.559299  2.736792  4.487055    -0.006398   -0.000784    0.124834  
      1.005200  6.326612  4.487055    -0.006398   -0.000784    0.124834  
      4.595199  6.326612  4.487055    -0.006398   -0.000784    0.124834  
      0.017950  0.017771  1.794822    -0.006398   -0.000784    0.124834  
      3.607949  0.017771  1.794822    -0.006398   -0.000784    0.124834  
      0.053850  3.607591  1.794822    -0.006398   -0.000784    0.124834  
      3.643849  3.607591  1.794822    -0.006398   -0.000784    0.124834  
      0.053850  0.053313  5.384466    -0.006398   -0.000784    0.124834  
      3.643849  0.053313  5.384466    -0.006398   -0.000784    0.124834  
      0.089750  3.643133  5.384466    -0.006398   -0.000784    0.124834  
      3.679749  3.643133  5.384466    -0.006398   -0.000784    0.124834  
      0.933400  0.924112  2.692233    -0.006398   -0.000784    0.124834  
      4.523399  0.924112  2.692233    -0.006398   -0.000784    0.124834  
      0.969300  4.513931  2.692233    -0.006398   -0.000784    0.124834  
      4.559299  4.513931  2.692233    -0.006398   -0.000784    0.124834  
      0.969300  0.959654  6.281877    -0.006398   -0.000784    0.124834  
      4.559299  0.959654  6.281877    -0.006398   -0.000784    0.124834  
      1.005200  4.549473  6.281877    -0.006398   -0.000784    0.124834  
      4.595199  4.549473  6.281877    -0.006398   -0.000784    0.124834  
      0.017950  1.794910  0.000000    -0.006398   -0.000784    0.124834  
      3.607949  1.794910  0.000000    -0.006398   -0.000784    0.124834  
      0.053850  5.384729  0.000000    -0.006398   -0.000784    0.124834  
      3.643849  5.384729  0.000000    -0.006398   -0.000784    0.124834  
      0.053850  1.830452  3.589644    -0.006398   -0.000784    0.124834  
      3.643849  1.830452  3.589644    -0.006398   -0.000784    0.124834  
      0.089750  5.420272  3.589644    -0.006398   -0.000784    0.124834  
      3.679749  5.420272  3.589644    -0.006398   -0.000784    0.124834  
      2.746349  2.719021  2.692233    -0.006398   -0.000784    0.124834  
      6.336349  2.719021  2.692233    -0.006398   -0.000784    0.124834  
      2.782249  6.308841  2.692233    -0.006398   -0.000784    0.124834  
      6.372249  6.308841  2.692233    -0.006398   -0.000784    0.124834  
      2.782249  2.754564  6.281877    -0.006398   -0.000784    0.124834  
      6.372249  2.754564  6.281877    -0.006398   -0.000784    0.124834  
      2.818149  6.344383  6.281877    -0.006398   -0.000784    0.124834  
      6.408149  6.344383  6.281877    -0.006398   -0.000784    0.124834  
      1.795000  0.000000  0.000000    -0.006398   -0.000784    0.124834  
      5.384999  0.000000  0.000000    -0.006398   -0.000784    0.124834  
      1.830900  3.589820  0.000000    -0.006398   -0.000784    0.124834  
      5.420899  3.589820  0.000000    -0.006398   -0.000784    0.124834  
      1.830900  0.035542  3.589644    -0.006398   -0.000784    0.124834  
      5.420899  0.035542  3.589644    -0.006398   -0.000784    0.124834  
      1.866799  3.625362  3.589644    -0.006398   -0.000784    0.124834  
      5.456799  3.625362  3.589644    -0.006398   -0.000784    0.124834  
      2.710449  0.906340  0.897411    -0.006398   -0.000784    0.124834  
      6.300449  0.906340  0.897411    -0.006398   -0.000784    0.124834  
      2.746349  4.496160  0.897411    -0.006398   -0.000784    0.124834  
      6.336349  4.496160  0.897411    -0.006398   -0.000784    0.124834  
      2.746349  0.941883  4.487055    -0.006398   -0.000784    0.124834  
      6.336349  0.941883  4.487055    -0.006398   -0.000784    0.124834  
      2.782249  4.531702  4.487055    -0.006398   -0.000784    0.124834  
      6.372249  4.531702  4.487055    -0.006398   -0.000784    0.124834  
      1.830900  1.812681  1.794822    -0.006398   -0.000784    0.124834  
      5.420899  1.812681  1.794822    -0.006398   -0.000784    0.124834  
      1.866799  5.402500  1.794822    -0.006398   -0.000784    0.124834  
      5.456799  5.402500  1.794822    -0.006398   -0.000784    0.124834  
      1.866799  1.848223  5.384466    -0.006398   -0.000784    0.124834  
      5.456799  1.848223  5.384466    -0.006398   -0.000784    0.124834  
      1.902699  5.438043  5.384466    -0.006398   -0.000784    0.124834  
      5.492699  5.438043  5.384466    -0.006398   -0.000784    0.124834  
 
 192 f/i=    0.000003 THz     0.000016 2PiTHz    0.000087 cm-1     0.000011 meV
             X         Y         Z           dx          dy          dz
      0.933400  2.701250  0.897411     0.124741    0.004844    0.006423  
      4.523399  2.701250  0.897411     0.124741    0.004844    0.006423  
      0.969300  6.291070  0.897411     0.124741    0.004844    0.006423  
      4.559299  6.291070  0.897411     0.124741    0.004844    0.006423  
      0.969300  2.736792  4.487055     0.124741    0.004844    0.006423  
      4.559299  2.736792  4.487055     0.124741    0.004844    0.006423  
      1.005200  6.326612  4.487055     0.124741    0.004844    0.006423  
      4.595199  6.326612  4.487055     0.124741    0.004844    0.006423  
      0.017950  0.017771  1.794822     0.124741    0.004844    0.006423  
      3.607949  0.017771  1.794822     0.124741    0.004844    0.006423  
      0.053850  3.607591  1.794822     0.124741    0.004844    0.006423  
      3.643849  3.607591  1.794822     0.124741    0.004844    0.006423  
      0.053850  0.053313  5.384466     0.124741    0.004844    0.006423  
      3.643849  0.053313  5.384466     0.124741    0.004844    0.006423  
      0.089750  3.643133  5.384466     0.124741    0.004844    0.006423  
      3.679749  3.643133  5.384466     0.124741    0.004844    0.006423  
      0.933400  0.924112  2.692233     0.124741    0.004844    0.006423  
      4.523399  0.924112  2.692233     0.124741    0.004844    0.006423  
      0.969300  4.513931  2.692233     0.124741    0.004844    0.006423  
      4.559299  4.513931  2.692233     0.124741    0.004844    0.006423  
      0.969300  0.959654  6.281877     0.124741    0.004844    0.006423  
      4.559299  0.959654  6.281877     0.124741    0.004844    0.006423  
      1.005200  4.549473  6.281877     0.124741    0.004844    0.006423  
      4.595199  4.549473  6.281877     0.124741    0.004844    0.006423  
      0.017950  1.794910  0.000000     0.124741    0.004844    0.006423  
      3.607949  1.794910  0.000000     0.124741    0.004844    0.006423  
      0.053850  5.384729  0.000000     0.124741    0.004844    0.006423  
      3.643849  5.384729  0.000000     0.124741    0.004844    0.006423  
      0.053850  1.830452  3.589644     0.124741    0.004844    0.006423  
      3.643849  1.830452  3.589644     0.124741    0.004844    0.006423  
      0.089750  5.420272  3.589644     0.124741    0.004844    0.006423  
      3.679749  5.420272  3.589644     0.124741    0.004844    0.006423  
      2.746349  2.719021  2.692233     0.124741    0.004844    0.006423  
      6.336349  2.719021  2.692233     0.124741    0.004844    0.006423  
      2.782249  6.308841  2.692233     0.124741    0.004844    0.006423  
      6.372249  6.308841  2.692233     0.124741    0.004844    0.006423  
      2.782249  2.754564  6.281877     0.124741    0.004844    0.006423  
      6.372249  2.754564  6.281877     0.124741    0.004844    0.006423  
      2.818149  6.344383  6.281877     0.124741    0.004844    0.006423  
      6.408149  6.344383  6.281877     0.124741    0.004844    0.006423  
      1.795000  0.000000  0.000000     0.124741    0.004844    0.006423  
      5.384999  0.000000  0.000000     0.124741    0.004844    0.006423  
      1.830900  3.589820  0.000000     0.124741    0.004844    0.006423  
      5.420899  3.589820  0.000000     0.124741    0.004844    0.006423  
      1.830900  0.035542  3.589644     0.124741    0.004844    0.006423  
      5.420899  0.035542  3.589644     0.124741    0.004844    0.006423  
      1.866799  3.625362  3.589644     0.124741    0.004844    0.006423  
      5.456799  3.625362  3.589644     0.124741    0.004844    0.006423  
      2.710449  0.906340  0.897411     0.124741    0.004844    0.006423  
      6.300449  0.906340  0.897411     0.124741    0.004844    0.006423  
      2.746349  4.496160  0.897411     0.124741    0.004844    0.006423  
      6.336349  4.496160  0.897411     0.124741    0.004844    0.006423  
      2.746349  0.941883  4.487055     0.124741    0.004844    0.006423  
      6.336349  0.941883  4.487055     0.124741    0.004844    0.006423  
      2.782249  4.531702  4.487055     0.124741    0.004844    0.006423  
      6.372249  4.531702  4.487055     0.124741    0.004844    0.006423  
      1.830900  1.812681  1.794822     0.124741    0.004844    0.006423  
      5.420899  1.812681  1.794822     0.124741    0.004844    0.006423  
      1.866799  5.402500  1.794822     0.124741    0.004844    0.006423  
      5.456799  5.402500  1.794822     0.124741    0.004844    0.006423  
      1.866799  1.848223  5.384466     0.124741    0.004844    0.006423  
      5.456799  1.848223  5.384466     0.124741    0.004844    0.006423  
      1.902699  5.438043  5.384466     0.124741    0.004844    0.006423  
      5.492699  5.438043  5.384466     0.124741    0.004844    0.006423  
 


--------------------------------------------------------------------------------------------------------



 ELASTIC MODULI CONTR FROM IONIC RELAXATION (kBar)
 Direction    XX          YY          ZZ          XY          YZ          ZX
 --------------------------------------------------------------------------------
 XX          -3.3981     -3.2580     -3.3331      1.2651      3.7945      1.2545
 YY          -3.2580     -3.4597     -3.4001      1.8185      0.9759      3.5651
 ZZ          -3.3331     -3.4001     -3.5094      3.3470      1.5335      1.5476
 XY           1.2651      1.8185      3.3470    -27.6583     11.9398     12.0853
 YZ           3.7945      0.9759      1.5335     11.9398    -28.1338     11.8044
 ZX           1.2545      3.5651      1.5476     12.0853     11.8044    -27.8983
 --------------------------------------------------------------------------------



--------------------------------------------------------------------------------------------------------


     LOOP+:  cpu time 1235.0004: real time 1237.7998
    4ORBIT:  cpu time    0.0000: real time    0.0000

 total amount of memory used by VASP MPI-rank0    83792. kBytes
=======================================================================

   base      :      30000. kBytes
   nonl-proj :      20840. kBytes
   fftplans  :       4537. kBytes
   grid      :       5806. kBytes
   one-center:        196. kBytes
   wavefun   :      22413. kBytes
 
  
  
 General timing and accounting informations for this job:
 ========================================================
  
                  Total CPU time used (sec):     1247.313
                            User time (sec):     1240.089
                          System time (sec):        7.224
                         Elapsed time (sec):     1250.294
  
                   Maximum memory used (kb):      436600.
                   Average memory used (kb):           0.
  
                          Minor page faults:        39332
                          Major page faults:           35
                 Voluntary context switches:          854
