# Thermal properties / unit cell (natom)

unit:
  temperature:   K
  free_energy:   kJ/mol
  entropy:       J/K/mol
  heat_capacity: J/K/mol

natom: 8    
cutoff_frequency:    0.000
num_modes: 2654208
num_integrated_modes: 2654208

zero_point_energy:     136.3234567
high_T_entropy:        436.3632022

thermal_properties:
- temperature:         0.0000000
  free_energy:       136.3234567
  entropy:             0.0000000
  heat_capacity:       0.0000000
  energy:            136.3234567

- temperature:         2.0000000
  free_energy:       136.3234567
  entropy:             0.0000000
  heat_capacity:       0.0000000
  energy:            136.3234567

- temperature:         4.0000000
  free_energy:       136.3234567
  entropy:             0.0000090
  heat_capacity:       0.0000561
  energy:            136.3234568

- temperature:         6.0000000
  free_energy:       136.3234567
  entropy:             0.0000728
  heat_capacity:       0.0003122
  energy:            136.3234571

- temperature:         8.0000000
  free_energy:       136.3234564
  entropy:             0.0002236
  heat_capacity:       0.0008023
  energy:            136.3234582

- temperature:        10.0000000
  free_energy:       136.3234557
  entropy:             0.0004809
  heat_capacity:       0.0015898
  energy:            136.3234605

- temperature:        12.0000000
  free_energy:       136.3234544
  entropy:             0.0008676
  heat_capacity:       0.0027565
  energy:            136.3234648

- temperature:        14.0000000
  free_energy:       136.3234521
  entropy:             0.0014082
  heat_capacity:       0.0043837
  energy:            136.3234719

- temperature:        16.0000000
  free_energy:       136.3234486
  entropy:             0.0021287
  heat_capacity:       0.0065517
  energy:            136.3234827

- temperature:        18.0000000
  free_energy:       136.3234435
  entropy:             0.0030549
  heat_capacity:       0.0093408
  energy:            136.3234985

- temperature:        20.0000000
  free_energy:       136.3234363
  entropy:             0.0042132
  heat_capacity:       0.0128321
  energy:            136.3235205

- temperature:        22.0000000
  free_energy:       136.3234265
  entropy:             0.0056302
  heat_capacity:       0.0171077
  energy:            136.3235503

- temperature:        24.0000000
  free_energy:       136.3234135
  entropy:             0.0073327
  heat_capacity:       0.0222510
  energy:            136.3235895

- temperature:        26.0000000
  free_energy:       136.3233969
  entropy:             0.0093478
  heat_capacity:       0.0283472
  energy:            136.3236400

- temperature:        28.0000000
  free_energy:       136.3233759
  entropy:             0.0117030
  heat_capacity:       0.0354834
  energy:            136.3237036

- temperature:        30.0000000
  free_energy:       136.3233499
  entropy:             0.0144262
  heat_capacity:       0.0437486
  energy:            136.3237826

- temperature:        32.0000000
  free_energy:       136.3233180
  entropy:             0.0175457
  heat_capacity:       0.0532346
  energy:            136.3238794

- temperature:        34.0000000
  free_energy:       136.3232794
  entropy:             0.0210902
  heat_capacity:       0.0640357
  energy:            136.3239965

- temperature:        36.0000000
  free_energy:       136.3232333
  entropy:             0.0250892
  heat_capacity:       0.0762499
  energy:            136.3241365

- temperature:        38.0000000
  free_energy:       136.3231787
  entropy:             0.0295725
  heat_capacity:       0.0899786
  energy:            136.3243025

- temperature:        40.0000000
  free_energy:       136.3231147
  entropy:             0.0345710
  heat_capacity:       0.1053282
  energy:            136.3244975

- temperature:        42.0000000
  free_energy:       136.3230401
  entropy:             0.0401160
  heat_capacity:       0.1224097
  energy:            136.3247249

- temperature:        44.0000000
  free_energy:       136.3229538
  entropy:             0.0462400
  heat_capacity:       0.1413405
  energy:            136.3249884

- temperature:        46.0000000
  free_energy:       136.3228547
  entropy:             0.0529765
  heat_capacity:       0.1622446
  energy:            136.3252916

- temperature:        48.0000000
  free_energy:       136.3227415
  entropy:             0.0603600
  heat_capacity:       0.1852539
  energy:            136.3256388

- temperature:        50.0000000
  free_energy:       136.3226128
  entropy:             0.0684265
  heat_capacity:       0.2105087
  energy:            136.3260341

- temperature:        52.0000000
  free_energy:       136.3224673
  entropy:             0.0772134
  heat_capacity:       0.2381586
  energy:            136.3264824

- temperature:        54.0000000
  free_energy:       136.3223034
  entropy:             0.0867597
  heat_capacity:       0.2683633
  energy:            136.3269885

- temperature:        56.0000000
  free_energy:       136.3221197
  entropy:             0.0971060
  heat_capacity:       0.3012926
  energy:            136.3275577

- temperature:        58.0000000
  free_energy:       136.3219145
  entropy:             0.1082951
  heat_capacity:       0.3371271
  energy:            136.3281956

- temperature:        60.0000000
  free_energy:       136.3216859
  entropy:             0.1203714
  heat_capacity:       0.3760578
  energy:            136.3289082

- temperature:        62.0000000
  free_energy:       136.3214324
  entropy:             0.1333815
  heat_capacity:       0.4182860
  energy:            136.3297020

- temperature:        64.0000000
  free_energy:       136.3211518
  entropy:             0.1473742
  heat_capacity:       0.4640226
  energy:            136.3305837

- temperature:        66.0000000
  free_energy:       136.3208422
  entropy:             0.1624002
  heat_capacity:       0.5134875
  energy:            136.3315606

- temperature:        68.0000000
  free_energy:       136.3205014
  entropy:             0.1785126
  heat_capacity:       0.5669086
  energy:            136.3326403

- temperature:        70.0000000
  free_energy:       136.3201274
  entropy:             0.1957665
  heat_capacity:       0.6245204
  energy:            136.3338310

- temperature:        72.0000000
  free_energy:       136.3197176
  entropy:             0.2142189
  heat_capacity:       0.6865628
  energy:            136.3351413

- temperature:        74.0000000
  free_energy:       136.3192696
  entropy:             0.2339288
  heat_capacity:       0.7532799
  energy:            136.3365804

- temperature:        76.0000000
  free_energy:       136.3187810
  entropy:             0.2549573
  heat_capacity:       0.8249178
  energy:            136.3381577

- temperature:        78.0000000
  free_energy:       136.3182489
  entropy:             0.2773667
  heat_capacity:       0.9017240
  energy:            136.3398835

- temperature:        80.0000000
  free_energy:       136.3176705
  entropy:             0.3012211
  heat_capacity:       0.9839451
  energy:            136.3417682

- temperature:        82.0000000
  free_energy:       136.3170430
  entropy:             0.3265859
  heat_capacity:       1.0718254
  energy:            136.3438230

- temperature:        84.0000000
  free_energy:       136.3163632
  entropy:             0.3535276
  heat_capacity:       1.1656061
  energy:            136.3460595

- temperature:        86.0000000
  free_energy:       136.3156278
  entropy:             0.3821136
  heat_capacity:       1.2655230
  energy:            136.3484896

- temperature:        88.0000000
  free_energy:       136.3148336
  entropy:             0.4124119
  heat_capacity:       1.3718062
  energy:            136.3511258

- temperature:        90.0000000
  free_energy:       136.3139770
  entropy:             0.4444913
  heat_capacity:       1.4846782
  energy:            136.3539812

- temperature:        92.0000000
  free_energy:       136.3130544
  entropy:             0.4784206
  heat_capacity:       1.6043535
  energy:            136.3570691

- temperature:        94.0000000
  free_energy:       136.3120620
  entropy:             0.5142688
  heat_capacity:       1.7310374
  energy:            136.3604033

- temperature:        96.0000000
  free_energy:       136.3109960
  entropy:             0.5521047
  heat_capacity:       1.8649254
  energy:            136.3639980

- temperature:        98.0000000
  free_energy:       136.3098522
  entropy:             0.5919968
  heat_capacity:       2.0062028
  energy:            136.3678679

- temperature:       100.0000000
  free_energy:       136.3086266
  entropy:             0.6340131
  heat_capacity:       2.1550439
  energy:            136.3720279

- temperature:       102.0000000
  free_energy:       136.3073147
  entropy:             0.6782209
  heat_capacity:       2.3116120
  energy:            136.3764932

- temperature:       104.0000000
  free_energy:       136.3059122
  entropy:             0.7246865
  heat_capacity:       2.4760590
  energy:            136.3812796

- temperature:       106.0000000
  free_energy:       136.3044144
  entropy:             0.7734755
  heat_capacity:       2.6485253
  energy:            136.3864028

- temperature:       108.0000000
  free_energy:       136.3028167
  entropy:             0.8246521
  heat_capacity:       2.8291399
  energy:            136.3918791

- temperature:       110.0000000
  free_energy:       136.3011142
  entropy:             0.8782792
  heat_capacity:       3.0180203
  energy:            136.3977249

- temperature:       112.0000000
  free_energy:       136.2993019
  entropy:             0.9344186
  heat_capacity:       3.2152729
  energy:            136.4039568

- temperature:       114.0000000
  free_energy:       136.2973748
  entropy:             0.9931302
  heat_capacity:       3.4209930
  energy:            136.4105916

- temperature:       116.0000000
  free_energy:       136.2953276
  entropy:             1.0544727
  heat_capacity:       3.6352648
  energy:            136.4176464

- temperature:       118.0000000
  free_energy:       136.2931551
  entropy:             1.1185028
  heat_capacity:       3.8581623
  energy:            136.4251384

- temperature:       120.0000000
  free_energy:       136.2908518
  entropy:             1.1852759
  heat_capacity:       4.0897492
  energy:            136.4330849

- temperature:       122.0000000
  free_energy:       136.2884121
  entropy:             1.2548453
  heat_capacity:       4.3300790
  energy:            136.4415032

- temperature:       124.0000000
  free_energy:       136.2858305
  entropy:             1.3272626
  heat_capacity:       4.5791961
  energy:            136.4504111

- temperature:       126.0000000
  free_energy:       136.2831011
  entropy:             1.4025776
  heat_capacity:       4.8371354
  energy:            136.4598259

- temperature:       128.0000000
  free_energy:       136.2802182
  entropy:             1.4808381
  heat_capacity:       5.1039232
  energy:            136.4697655

- temperature:       130.0000000
  free_energy:       136.2771758
  entropy:             1.5620902
  heat_capacity:       5.3795771
  energy:            136.4802475

- temperature:       132.0000000
  free_energy:       136.2739678
  entropy:             1.6463780
  heat_capacity:       5.6641070
  energy:            136.4912897

- temperature:       134.0000000
  free_energy:       136.2705882
  entropy:             1.7337436
  heat_capacity:       5.9575147
  energy:            136.5029099

- temperature:       136.0000000
  free_energy:       136.2670308
  entropy:             1.8242273
  heat_capacity:       6.2597946
  energy:            136.5151257

- temperature:       138.0000000
  free_energy:       136.2632892
  entropy:             1.9178677
  heat_capacity:       6.5709344
  energy:            136.5279549

- temperature:       140.0000000
  free_energy:       136.2593572
  entropy:             2.0147011
  heat_capacity:       6.8909146
  energy:            136.5414153

- temperature:       142.0000000
  free_energy:       136.2552283
  entropy:             2.1147622
  heat_capacity:       7.2197095
  energy:            136.5555245

- temperature:       144.0000000
  free_energy:       136.2508960
  entropy:             2.2180838
  heat_capacity:       7.5572871
  energy:            136.5703000

- temperature:       146.0000000
  free_energy:       136.2463537
  entropy:             2.3246968
  heat_capacity:       7.9036096
  energy:            136.5857595

- temperature:       148.0000000
  free_energy:       136.2415950
  entropy:             2.4346304
  heat_capacity:       8.2586333
  energy:            136.6019203

- temperature:       150.0000000
  free_energy:       136.2366130
  entropy:             2.5479119
  heat_capacity:       8.6223095
  energy:            136.6187998

- temperature:       152.0000000
  free_energy:       136.2314011
  entropy:             2.6645669
  heat_capacity:       8.9945838
  energy:            136.6364152

- temperature:       154.0000000
  free_energy:       136.2259524
  entropy:             2.7846192
  heat_capacity:       9.3753972
  energy:            136.6547838

- temperature:       156.0000000
  free_energy:       136.2202603
  entropy:             2.9080908
  heat_capacity:       9.7646857
  energy:            136.6739225

- temperature:       158.0000000
  free_energy:       136.2143178
  entropy:             3.0350023
  heat_capacity:      10.1623808
  energy:            136.6938481

- temperature:       160.0000000
  free_energy:       136.2081180
  entropy:             3.1653723
  heat_capacity:      10.5684097
  energy:            136.7145775

- temperature:       162.0000000
  free_energy:       136.2016540
  entropy:             3.2992179
  heat_capacity:      10.9826950
  energy:            136.7361273

- temperature:       164.0000000
  free_energy:       136.1949188
  entropy:             3.4365548
  heat_capacity:      11.4051555
  energy:            136.7585138

- temperature:       166.0000000
  free_energy:       136.1879054
  entropy:             3.5773968
  heat_capacity:      11.8357061
  energy:            136.7817533

- temperature:       168.0000000
  free_energy:       136.1806069
  entropy:             3.7217564
  heat_capacity:      12.2742577
  energy:            136.8058619

- temperature:       170.0000000
  free_energy:       136.1730160
  entropy:             3.8696445
  heat_capacity:      12.7207179
  energy:            136.8308556

- temperature:       172.0000000
  free_energy:       136.1651259
  entropy:             4.0210703
  heat_capacity:      13.1749903
  energy:            136.8567500

- temperature:       174.0000000
  free_energy:       136.1569294
  entropy:             4.1760420
  heat_capacity:      13.6369757
  energy:            136.8835607

- temperature:       176.0000000
  free_energy:       136.1484194
  entropy:             4.3345660
  heat_capacity:      14.1065713
  energy:            136.9113030

- temperature:       178.0000000
  free_energy:       136.1395888
  entropy:             4.4966474
  heat_capacity:      14.5836714
  energy:            136.9399920

- temperature:       180.0000000
  free_energy:       136.1304304
  entropy:             4.6622899
  heat_capacity:      15.0681673
  energy:            136.9696426

- temperature:       182.0000000
  free_energy:       136.1209372
  entropy:             4.8314961
  heat_capacity:      15.5599473
  energy:            137.0002695

- temperature:       184.0000000
  free_energy:       136.1111021
  entropy:             5.0042670
  heat_capacity:      16.0588973
  energy:            137.0318872

- temperature:       186.0000000
  free_energy:       136.1009178
  entropy:             5.1806023
  heat_capacity:      16.5649004
  energy:            137.0645098

- temperature:       188.0000000
  free_energy:       136.0903773
  entropy:             5.3605007
  heat_capacity:      17.0778373
  energy:            137.0981514

- temperature:       190.0000000
  free_energy:       136.0794734
  entropy:             5.5439594
  heat_capacity:      17.5975863
  energy:            137.1328257

- temperature:       192.0000000
  free_energy:       136.0681991
  entropy:             5.7309747
  heat_capacity:      18.1240238
  energy:            137.1685462

- temperature:       194.0000000
  free_energy:       136.0565471
  entropy:             5.9215414
  heat_capacity:      18.6570238
  energy:            137.2053262

- temperature:       196.0000000
  free_energy:       136.0445105
  entropy:             6.1156533
  heat_capacity:      19.1964585
  energy:            137.2431786

- temperature:       198.0000000
  free_energy:       136.0320822
  entropy:             6.3133032
  heat_capacity:      19.7421982
  energy:            137.2821162

- temperature:       200.0000000
  free_energy:       136.0192550
  entropy:             6.5144826
  heat_capacity:      20.2941116
  energy:            137.3221515

- temperature:       202.0000000
  free_energy:       136.0060219
  entropy:             6.7191821
  heat_capacity:      20.8520659
  energy:            137.3632967

- temperature:       204.0000000
  free_energy:       135.9923759
  entropy:             6.9273912
  heat_capacity:      21.4159266
  energy:            137.4055637

- temperature:       206.0000000
  free_energy:       135.9783100
  entropy:             7.1390983
  heat_capacity:      21.9855581
  energy:            137.4489642

- temperature:       208.0000000
  free_energy:       135.9638172
  entropy:             7.3542909
  heat_capacity:      22.5608236
  energy:            137.4935097

- temperature:       210.0000000
  free_energy:       135.9488905
  entropy:             7.5729556
  heat_capacity:      23.1415850
  energy:            137.5392112

- temperature:       212.0000000
  free_energy:       135.9335231
  entropy:             7.7950780
  heat_capacity:      23.7277037
  energy:            137.5860796

- temperature:       214.0000000
  free_energy:       135.9177079
  entropy:             8.0206429
  heat_capacity:      24.3190398
  energy:            137.6341255

- temperature:       216.0000000
  free_energy:       135.9014382
  entropy:             8.2496340
  heat_capacity:      24.9154530
  energy:            137.6833591

- temperature:       218.0000000
  free_energy:       135.8847071
  entropy:             8.4820344
  heat_capacity:      25.5168022
  energy:            137.7337906

- temperature:       220.0000000
  free_energy:       135.8675078
  entropy:             8.7178261
  heat_capacity:      26.1229462
  energy:            137.7854295

- temperature:       222.0000000
  free_energy:       135.8498335
  entropy:             8.9569907
  heat_capacity:      26.7337430
  energy:            137.8382855

- temperature:       224.0000000
  free_energy:       135.8316776
  entropy:             9.1995086
  heat_capacity:      27.3490506
  energy:            137.8923675

- temperature:       226.0000000
  free_energy:       135.8130333
  entropy:             9.4453597
  heat_capacity:      27.9687270
  energy:            137.9476846

- temperature:       228.0000000
  free_energy:       135.7938940
  entropy:             9.6945232
  heat_capacity:      28.5926298
  energy:            138.0042453

- temperature:       230.0000000
  free_energy:       135.7742530
  entropy:             9.9469775
  heat_capacity:      29.2206172
  energy:            138.0620578

- temperature:       232.0000000
  free_energy:       135.7541039
  entropy:            10.2027004
  heat_capacity:      29.8525471
  energy:            138.1211304

- temperature:       234.0000000
  free_energy:       135.7334400
  entropy:            10.4616689
  heat_capacity:      30.4882781
  energy:            138.1814706

- temperature:       236.0000000
  free_energy:       135.7122550
  entropy:            10.7238596
  heat_capacity:      31.1276690
  energy:            138.2430859

- temperature:       238.0000000
  free_energy:       135.6905425
  entropy:            10.9892484
  heat_capacity:      31.7705791
  energy:            138.3059836

- temperature:       240.0000000
  free_energy:       135.6682959
  entropy:            11.2578106
  heat_capacity:      32.4168683
  energy:            138.3701705

- temperature:       242.0000000
  free_energy:       135.6455091
  entropy:            11.5295210
  heat_capacity:      33.0663973
  energy:            138.4356532

- temperature:       244.0000000
  free_energy:       135.6221758
  entropy:            11.8043539
  heat_capacity:      33.7190274
  energy:            138.5024381

- temperature:       246.0000000
  free_energy:       135.5982896
  entropy:            12.0822831
  heat_capacity:      34.3746209
  energy:            138.5705313

- temperature:       248.0000000
  free_energy:       135.5738446
  entropy:            12.3632819
  heat_capacity:      35.0330409
  energy:            138.6399385

- temperature:       250.0000000
  free_energy:       135.5488345
  entropy:            12.6473230
  heat_capacity:      35.6941516
  energy:            138.7106653

- temperature:       252.0000000
  free_energy:       135.5232533
  entropy:            12.9343790
  heat_capacity:      36.3578183
  energy:            138.7827168

- temperature:       254.0000000
  free_energy:       135.4970950
  entropy:            13.2244219
  heat_capacity:      37.0239073
  energy:            138.8560981

- temperature:       256.0000000
  free_energy:       135.4703536
  entropy:            13.5174232
  heat_capacity:      37.6922865
  energy:            138.9308140

- temperature:       258.0000000
  free_energy:       135.4430233
  entropy:            13.8133542
  heat_capacity:      38.3628246
  energy:            139.0068687

- temperature:       260.0000000
  free_energy:       135.4150983
  entropy:            14.1121859
  heat_capacity:      39.0353921
  energy:            139.0842666

- temperature:       262.0000000
  free_energy:       135.3865727
  entropy:            14.4138889
  heat_capacity:      39.7098606
  energy:            139.1630116

- temperature:       264.0000000
  free_energy:       135.3574408
  entropy:            14.7184334
  heat_capacity:      40.3861032
  energy:            139.2431072

- temperature:       266.0000000
  free_energy:       135.3276971
  entropy:            15.0257895
  heat_capacity:      41.0639947
  energy:            139.3245571

- temperature:       268.0000000
  free_energy:       135.2973358
  entropy:            15.3359269
  heat_capacity:      41.7434114
  energy:            139.4073642

- temperature:       270.0000000
  free_energy:       135.2663515
  entropy:            15.6488153
  heat_capacity:      42.4242310
  energy:            139.4915317

- temperature:       272.0000000
  free_energy:       135.2347387
  entropy:            15.9644238
  heat_capacity:      43.1063331
  energy:            139.5770620

- temperature:       274.0000000
  free_energy:       135.2024920
  entropy:            16.2827216
  heat_capacity:      43.7895989
  energy:            139.6639578

- temperature:       276.0000000
  free_energy:       135.1696061
  entropy:            16.6036776
  heat_capacity:      44.4739114
  energy:            139.7522211

- temperature:       278.0000000
  free_energy:       135.1360756
  entropy:            16.9272606
  heat_capacity:      45.1591551
  energy:            139.8418540

- temperature:       280.0000000
  free_energy:       135.1018953
  entropy:            17.2534392
  heat_capacity:      45.8452167
  energy:            139.9328583

- temperature:       282.0000000
  free_energy:       135.0670601
  entropy:            17.5821817
  heat_capacity:      46.5319843
  energy:            140.0252354

- temperature:       284.0000000
  free_energy:       135.0315649
  entropy:            17.9134567
  heat_capacity:      47.2193481
  energy:            140.1189866

- temperature:       286.0000000
  free_energy:       134.9954046
  entropy:            18.2472324
  heat_capacity:      47.9072000
  energy:            140.2141131

- temperature:       288.0000000
  free_energy:       134.9585743
  entropy:            18.5834769
  heat_capacity:      48.5954341
  energy:            140.3106157

- temperature:       290.0000000
  free_energy:       134.9210691
  entropy:            18.9221583
  heat_capacity:      49.2839459
  energy:            140.4084950

- temperature:       292.0000000
  free_energy:       134.8828841
  entropy:            19.2632448
  heat_capacity:      49.9726332
  energy:            140.5077516

- temperature:       294.0000000
  free_energy:       134.8440145
  entropy:            19.6067043
  heat_capacity:      50.6613955
  energy:            140.6083856

- temperature:       296.0000000
  free_energy:       134.8044557
  entropy:            19.9525048
  heat_capacity:      51.3501344
  energy:            140.7103971

- temperature:       298.0000000
  free_energy:       134.7642030
  entropy:            20.3006144
  heat_capacity:      52.0387534
  energy:            140.8137860

- temperature:       300.0000000
  free_energy:       134.7232517
  entropy:            20.6510009
  heat_capacity:      52.7271578
  energy:            140.9185520

- temperature:       302.0000000
  free_energy:       134.6815975
  entropy:            21.0036325
  heat_capacity:      53.4152550
  energy:            141.0246945

- temperature:       304.0000000
  free_energy:       134.6392357
  entropy:            21.3584771
  heat_capacity:      54.1029544
  energy:            141.1322128

- temperature:       306.0000000
  free_energy:       134.5961621
  entropy:            21.7155028
  heat_capacity:      54.7901670
  energy:            141.2411060

- temperature:       308.0000000
  free_energy:       134.5523723
  entropy:            22.0746778
  heat_capacity:      55.4768062
  energy:            141.3513730

- temperature:       310.0000000
  free_energy:       134.5078620
  entropy:            22.4359702
  heat_capacity:      56.1627870
  energy:            141.4630127

- temperature:       312.0000000
  free_energy:       134.4626270
  entropy:            22.7993484
  heat_capacity:      56.8480266
  energy:            141.5760237

- temperature:       314.0000000
  free_energy:       134.4166632
  entropy:            23.1647805
  heat_capacity:      57.5324438
  energy:            141.6904043

- temperature:       316.0000000
  free_energy:       134.3699665
  entropy:            23.5322352
  heat_capacity:      58.2159597
  energy:            141.8061529

- temperature:       318.0000000
  free_energy:       134.3225329
  entropy:            23.9016810
  heat_capacity:      58.8984970
  energy:            141.9232675

- temperature:       320.0000000
  free_energy:       134.2743585
  entropy:            24.2730864
  heat_capacity:      59.5799804
  energy:            142.0417462

- temperature:       322.0000000
  free_energy:       134.2254393
  entropy:            24.6464203
  heat_capacity:      60.2603365
  energy:            142.1615867

- temperature:       324.0000000
  free_energy:       134.1757716
  entropy:            25.0216517
  heat_capacity:      60.9394939
  energy:            142.2827867

- temperature:       326.0000000
  free_energy:       134.1253515
  entropy:            25.3987495
  heat_capacity:      61.6173827
  energy:            142.4053438

- temperature:       328.0000000
  free_energy:       134.0741753
  entropy:            25.7776829
  heat_capacity:      62.2939353
  energy:            142.5292553

- temperature:       330.0000000
  free_energy:       134.0222395
  entropy:            26.1584214
  heat_capacity:      62.9690855
  energy:            142.6545186

- temperature:       332.0000000
  free_energy:       133.9695405
  entropy:            26.5409344
  heat_capacity:      63.6427691
  energy:            142.7811307

- temperature:       334.0000000
  free_energy:       133.9160746
  entropy:            26.9251917
  heat_capacity:      64.3149237
  energy:            142.9090887

- temperature:       336.0000000
  free_energy:       133.8618386
  entropy:            27.3111630
  heat_capacity:      64.9854887
  energy:            143.0383893

- temperature:       338.0000000
  free_energy:       133.8068289
  entropy:            27.6988185
  heat_capacity:      65.6544051
  energy:            143.1690295

- temperature:       340.0000000
  free_energy:       133.7510422
  entropy:            28.0881283
  heat_capacity:      66.3216157
  energy:            143.3010058

- temperature:       342.0000000
  free_energy:       133.6944753
  entropy:            28.4790630
  heat_capacity:      66.9870651
  energy:            143.4343148

- temperature:       344.0000000
  free_energy:       133.6371249
  entropy:            28.8715930
  heat_capacity:      67.6506994
  energy:            143.5689529

- temperature:       346.0000000
  free_energy:       133.5789878
  entropy:            29.2656893
  heat_capacity:      68.3124665
  energy:            143.7049164

- temperature:       348.0000000
  free_energy:       133.5200611
  entropy:            29.6613229
  heat_capacity:      68.9723158
  energy:            143.8422015

- temperature:       350.0000000
  free_energy:       133.4603415
  entropy:            30.0584650
  heat_capacity:      69.6301985
  energy:            143.9808043

- temperature:       352.0000000
  free_energy:       133.3998262
  entropy:            30.4570871
  heat_capacity:      70.2860673
  energy:            144.1207209

- temperature:       354.0000000
  free_energy:       133.3385122
  entropy:            30.8571609
  heat_capacity:      70.9398764
  energy:            144.2619472

- temperature:       356.0000000
  free_energy:       133.2763966
  entropy:            31.2586583