<?xml version="1.0" encoding="ISO-8859-1"?>
<modeling>
 <generator>
  <i name="program" type="string">vasp </i>
  <i name="version" type="string">5.4.4.18Apr17-6-g9f103f2a35  </i>
  <i name="subversion" type="string">(build Mar 12 2022 03:36:41) complex            parallel </i>
  <i name="platform" type="string">IFC19.0.3.199_CrayMPICH7.7.19 </i>
  <i name="date" type="string">2022 12 02 </i>
  <i name="time" type="string">02:42:55 </i>
 </generator>
 <incar>
  <i type="string" name="PREC">accurate</i>
  <i type="int" name="IALGO">    38</i>
  <i type="logical" name="ADDGRID"> T  </i>
  <i type="int" name="IBRION">     8</i>
  <i name="EDIFF">      0.00000001</i>
  <i type="logical" name="LREAL"> F  </i>
  <i type="int" name="ISMEAR">     0</i>
  <i name="SIGMA">      0.06000000</i>
  <i type="logical" name="LWAVE"> F  </i>
  <i type="logical" name="LCHARG"> F  </i>
  <v type="int" name="KPOINT_BSE">    -1     0     0     0</v>
 </incar>
 <structure name="primitive_cell" >
  <crystal>
   <varray name="basis" >
    <v>      -0.03589989      -1.81268091      -1.79482187 </v>
    <v>      -1.81294963      -1.79490977       0.00000000 </v>
    <v>      -1.81294963      -0.01777114      -1.79482187 </v>
   </varray>
   <i name="volume">     11.56533844 </i>
   <varray name="rec_basis" >
    <v>       0.27855158      -0.28135118      -0.27857921 </v>
    <v>      -0.27855158      -0.27577989       0.28409555 </v>
    <v>      -0.27855158       0.28135118      -0.27857915 </v>
   </varray>
  </crystal>
  <varray name="positions" >
   <v>       0.25000000       0.25000000       0.25000000 </v>
   <v>      -0.50000000      -0.50000000      -0.50000000 </v>
  </varray>
 </structure>
 <varray name="primitive_index" >
  <v type="int" >        1 </v>
  <v type="int" >       11 </v>
 </varray>
 <kpoints>
  <generation param="Gamma">
   <v type="int" name="divisions">       6        6        6 </v>
   <v name="usershift">      0.00000000       0.00000000       0.00000000 </v>
   <v name="genvec1">      0.16666667       0.00000000      -0.00000000 </v>
   <v name="genvec2">      0.00000000       0.16666667       0.00000000 </v>
   <v name="genvec3">      0.00000000       0.00000000       0.16666667 </v>
   <v name="shift">      0.00000000       0.00000000       0.00000000 </v>
  </generation>
  <varray name="kpointlist" >
   <v>       0.00000000       0.00000000       0.00000000 </v>
   <v>       0.16666667      -0.00000000      -0.00000000 </v>
   <v>       0.33333333      -0.00000000      -0.00000000 </v>
   <v>       0.50000000      -0.00000000      -0.00000000 </v>
   <v>       0.16666667       0.16666667       0.00000000 </v>
   <v>       0.33333333       0.16666667      -0.00000000 </v>
   <v>       0.50000000       0.16666667       0.00000000 </v>
   <v>      -0.33333333       0.16666667       0.00000000 </v>
   <v>      -0.16666667       0.16666667       0.00000000 </v>
   <v>       0.33333333       0.33333333       0.00000000 </v>
   <v>       0.50000000       0.33333333      -0.00000000 </v>
   <v>      -0.33333333       0.33333333       0.00000000 </v>
   <v>       0.50000000       0.50000000      -0.00000000 </v>
   <v>       0.16666667       0.16666667       0.16666667 </v>
   <v>       0.33333333       0.16666667       0.16666667 </v>
   <v>       0.50000000       0.16666667       0.16666667 </v>
   <v>      -0.33333333       0.16666667       0.16666667 </v>
   <v>      -0.16666667       0.16666667       0.16666667 </v>
   <v>       0.33333333       0.33333333       0.16666667 </v>
   <v>       0.50000000       0.33333333       0.16666667 </v>
   <v>      -0.33333333       0.33333333       0.16666667 </v>
   <v>      -0.16666667       0.33333333       0.16666667 </v>
   <v>       0.50000000       0.50000000       0.16666667 </v>
   <v>      -0.33333333       0.50000000       0.16666667 </v>
   <v>      -0.16666667       0.50000000       0.16666667 </v>
   <v>      -0.33333333      -0.33333333       0.16666667 </v>
   <v>       0.33333333       0.33333333       0.33333333 </v>
   <v>       0.50000000       0.33333333       0.33333333 </v>
   <v>      -0.33333333       0.33333333       0.33333333 </v>
   <v>       0.50000000       0.50000000       0.33333333 </v>
   <v>      -0.33333333       0.50000000       0.33333333 </v>
   <v>       0.50000000       0.50000000       0.50000000 </v>
  </varray>
  <varray name="weights" >
   <v>       0.00462963 </v>
   <v>       0.02777778 </v>
   <v>       0.02777778 </v>
   <v>       0.01388889 </v>
   <v>       0.02777778 </v>
   <v>       0.05555556 </v>
   <v>       0.05555556 </v>
   <v>       0.05555556 </v>
   <v>       0.02777778 </v>
   <v>       0.02777778 </v>
   <v>       0.05555556 </v>
   <v>       0.02777778 </v>
   <v>       0.01388889 </v>
   <v>       0.00925926 </v>
   <v>       0.02777778 </v>
   <v>       0.02777778 </v>
   <v>       0.02777778 </v>
   <v>       0.02777778 </v>
   <v>       0.02777778 </v>
   <v>       0.05555556 </v>
   <v>       0.05555556 </v>
   <v>       0.05555556 </v>
   <v>       0.02777778 </v>
   <v>       0.05555556 </v>
   <v>       0.02777778 </v>
   <v>       0.02777778 </v>
   <v>       0.00925926 </v>
   <v>       0.02777778 </v>
   <v>       0.02777778 </v>
   <v>       0.02777778 </v>
   <v>       0.02777778 </v>
   <v>       0.00462963 </v>
  </varray>
 </kpoints>
 <parameters>
  <separator name="general" >
   <i type="string" name="SYSTEM">unknown system</i>
   <i type="logical" name="LCOMPAT"> F  </i>
  </separator>
  <separator name="electronic" >
   <i type="string" name="PREC">accura</i>
   <i name="ENMAX">    400.00000000</i>
   <i name="ENAUG">    644.87300000</i>
   <i name="EDIFF">      0.00000001</i>
   <i type="int" name="IALGO">    38</i>
   <i type="int" name="IWAVPR">    11</i>
   <i type="int" name="NBANDS">   192</i>
   <i name="NELECT">    256.00000000</i>
   <i type="int" name="TURBO">     0</i>
   <i type="int" name="IRESTART">     0</i>
   <i type="int" name="NREBOOT">     0</i>
   <i type="int" name="NMIN">     0</i>
   <i name="EREF">      0.00000000</i>
   <separator name="electronic smearing" >
    <i type="int" name="ISMEAR">     0</i>
    <i name="SIGMA">      0.06000000</i>
    <i name="KSPACING">      0.50000000</i>
    <i type="logical" name="KGAMMA"> T  </i>
   </separator>
   <separator name="electronic projectors" >
    <i type="logical" name="LREAL"> F  </i>
    <v name="ROPT">      0.00000000</v>
    <i type="int" name="LMAXPAW">  -100</i>
    <i type="int" name="LMAXMIX">     2</i>
    <i type="logical" name="NLSPLINE"> F  </i>
   </separator>
   <separator name="electronic startup" >
    <i type="int" name="ISTART">     0</i>
    <i type="int" name="ICHARG">     2</i>
    <i type="int" name="INIWAV">     1</i>
   </separator>
   <separator name="electronic spin" >
    <i type="int" name="ISPIN">     1</i>
    <i type="logical" name="LNONCOLLINEAR"> F  </i>
    <v name="MAGMOM">      1.00000000      1.00000000      1.00000000      1.00000000      1.00000000      1.00000000      1.00000000      1.00000000      1.00000000      1.00000000      1.00000000      1.00000000      1.00000000      1.00000000      1.00000000      1.00000000      1.00000000      1.00000000      1.00000000      1.00000000
      1.00000000      1.00000000      1.00000000      1.00000000      1.00000000      1.00000000      1.00000000      1.00000000      1.00000000      1.00000000      1.00000000      1.00000000      1.00000000      1.00000000      1.00000000      1.00000000      1.00000000      1.00000000      1.00000000      1.00000000
      1.00000000      1.00000000      1.00000000      1.00000000      1.00000000      1.00000000      1.00000000      1.00000000      1.00000000      1.00000000      1.00000000      1.00000000      1.00000000      1.00000000      1.00000000      1.00000000      1.00000000      1.00000000      1.00000000      1.00000000
      1.00000000      1.00000000      1.00000000      1.00000000</v>
    <i name="NUPDOWN">     -1.00000000</i>
    <i type="logical" name="LSORBIT"> F  </i>
    <v name="SAXIS">      0.00000000      0.00000000      1.00000000</v>
    <i type="logical" name="LSPIRAL"> F  </i>
    <v name="QSPIRAL">      0.00000000      0.00000000      0.00000000</v>
    <i type="logical" name="LZEROZ"> F  </i>
   </separator>
   <separator name="electronic exchange-correlation" >
    <i type="logical" name="LASPH"> F  </i>
    <i type="logical" name="LMETAGGA"> F  </i>
   </separator>
   <separator name="electronic convergence" >
    <i type="int" name="NELM">    60</i>
    <i type="int" name="NELMDL">    -5</i>
    <i type="int" name="NELMIN">     2</i>
    <i name="ENINI">    400.00000000</i>
    <separator name="electronic convergence detail" >
     <i type="logical" name="LDIAG"> T  </i>
     <i type="logical" name="LSUBROT"> F  </i>
     <i name="WEIMIN">      0.00100000</i>
     <i name="EBREAK">      0.00000000</i>
     <i name="DEPER">      0.30000000</i>
     <i type="int" name="NRMM">     4</i>
     <i name="TIME">      0.40000000</i>
    </separator>
   </separator>
   <separator name="electronic mixer" >
    <i name="AMIX">      0.40000000</i>
    <i name="BMIX">      1.00000000</i>
    <i name="AMIN">      0.10000000</i>
    <i name="AMIX_MAG">      1.60000000</i>
    <i name="BMIX_MAG">      1.00000000</i>
    <separator name="electronic mixer details" >
     <i type="int" name="IMIX">     4</i>
     <i type="logical" name="MIXFIRST"> F  </i>
     <i type="int" name="MAXMIX">   -45</i>
     <i name="WC">    100.00000000</i>
     <i type="int" name="INIMIX">     1</i>
     <i type="int" name="MIXPRE">     1</i>
     <i type="int" name="MREMOVE">     5</i>
    </separator>
   </separator>
   <separator name="electronic dipolcorrection" >
    <i type="logical" name="LDIPOL"> F  </i>
    <i type="logical" name="LMONO"> F  </i>
    <i type="int" name="IDIPOL">     0</i>
    <i name="EPSILON">      1.00000000</i>
    <v name="DIPOL">   -100.00000000   -100.00000000   -100.00000000</v>
    <i name="EFIELD">      0.00000000</i>
   </separator>
  </separator>
  <separator name="grids" >
   <i type="int" name="NGX">    48</i>
   <i type="int" name="NGY">    48</i>
   <i type="int" name="NGZ">    48</i>
   <i type="int" name="NGXF">    96</i>
   <i type="int" name="NGYF">    96</i>
   <i type="int" name="NGZF">    96</i>
   <i type="logical" name="ADDGRID"> T  </i>
  </separator>
  <separator name="ionic" >
   <i type="int" name="NSW">     1</i>
   <i type="int" name="IBRION">     8</i>
   <i type="int" name="MDALGO">     0</i>
   <i type="int" name="ISIF">     2</i>
   <i name="PSTRESS">      0.00000000</i>
   <i name="EDIFFG">      0.00000010</i>
   <i type="int" name="NFREE">     0</i>
   <i name="POTIM">      0.50000000</i>
   <i name="SMASS">     -3.00000000</i>
   <i name="SCALEE">      1.00000000</i>
  </separator>
  <separator name="ionic md" >
   <i name="TEBEG">      0.00010000</i>
   <i name="TEEND">      0.00010000</i>
   <i type="int" name="NBLOCK">     1</i>
   <i type="int" name="KBLOCK">     1</i>
   <i type="int" name="NPACO">   256</i>
   <i name="APACO">     16.00000000</i>
  </separator>
  <separator name="symmetry" >
   <i type="int" name="ISYM">     2</i>
   <i name="SYMPREC">      0.00001000</i>
  </separator>
  <separator name="dos" >
   <i type="int" name="LORBIT">     0</i>
   <v name="RWIGS">     -1.00000000</v>
   <i type="int" name="NEDOS">   301</i>
   <i name="EMIN">     10.00000000</i>
   <i name="EMAX">    -10.00000000</i>
   <i name="EFERMI">      0.00000000</i>
  </separator>
  <separator name="writing" >
   <i type="int" name="NWRITE">     2</i>
   <i type="logical" name="LWAVE"> F  </i>
   <i type="logical" name="LDOWNSAMPLE"> F  </i>
   <i type="logical" name="LCHARG"> F  </i>
   <i type="logical" name="LPARD"> F  </i>
   <i type="logical" name="LVTOT"> F  </i>
   <i type="logical" name="LVHAR"> F  </i>
   <i type="logical" name="LELF"> F  </i>
   <i type="logical" name="LOPTICS"> F  </i>
   <v name="STM">      0.00000000      0.00000000      0.00000000      0.00000000      0.00000000      0.00000000      0.00000000</v>
  </separator>
  <separator name="performance" >
   <i type="int" name="NPAR">    32</i>
   <i type="int" name="NSIM">     4</i>
   <i type="int" name="NBLK">    -1</i>
   <i type="logical" name="LPLANE"> T  </i>
   <i type="logical" name="LSCALAPACK"> T  </i>
   <i type="logical" name="LSCAAWARE"> F  </i>
   <i type="logical" name="LSCALU"> F  </i>
   <i type="logical" name="LASYNC"> F  </i>
   <i type="logical" name="LORBITALREAL"> F  </i>
  </separator>
  <separator name="miscellaneous" >
   <i type="int" name="IDIOT">     3</i>
   <i type="int" name="ISPECIAL">     0</i>
   <i type="logical" name="LMUSIC"> F  </i>
   <v name="POMASS">     12.01100000</v>
   <v name="DARWINR">      0.00000000</v>
   <v name="DARWINV">      1.00000000</v>
   <i type="logical" name="LCORR"> T  </i>
  </separator>
  <i type="logical" name="GGA_COMPAT"> T  </i>
  <i type="logical" name="LBERRY"> F  </i>
  <i type="int" name="ICORELEVEL">     0</i>
  <i type="logical" name="LDAU"> F  </i>
  <i type="int" name="I_CONSTRAINED_M">     0</i>
  <separator name="electronic exchange-correlation" >
   <i type="string" name="GGA">--</i>
   <i type="int" name="VOSKOWN">     0</i>
   <i type="logical" name="LHFCALC"> F  </i>
   <i type="string" name="PRECFOCK"></i>
   <i type="logical" name="LSYMGRAD"> F  </i>
   <i type="logical" name="LHFONE"> F  </i>
   <i type="logical" name="LRHFCALC"> F  </i>
   <i type="logical" name="LTHOMAS"> F  </i>
   <i type="logical" name="LMODELHF"> F  </i>
   <i name="ENCUT4O">     -1.00000000</i>
   <i type="int" name="EXXOEP">     0</i>
   <i type="int" name="FOURORBIT">     0</i>
   <i name="AEXX">      0.00000000</i>
   <i name="HFALPHA">      0.00000000</i>
   <i name="MCALPHA">      0.00000000</i>
   <i name="ALDAX">      1.00000000</i>
   <i name="AGGAX">      1.00000000</i>
   <i name="ALDAC">      1.00000000</i>
   <i name="AGGAC">      1.00000000</i>
   <i type="int" name="NKREDX">     1</i>
   <i type="int" name="NKREDY">     1</i>
   <i type="int" name="NKREDZ">     1</i>
   <i type="logical" name="SHIFTRED"> F  </i>
   <i type="logical" name="ODDONLY"> F  </i>
   <i type="logical" name="EVENONLY"> F  </i>
   <i type="int" name="LMAXFOCK">     0</i>
   <i type="int" name="NMAXFOCKAE">     0</i>
   <i type="logical" name="LFOCKAEDFT"> F  </i>
   <i name="HFSCREEN">      0.00000000</i>
   <i name="HFSCREENC">      0.00000000</i>
   <i type="int" name="NBANDSGWLOW">     0</i>
  </separator>
  <separator name="vdW DFT" >
   <i type="logical" name="LUSE_VDW"> F  </i>
   <i name="Zab_VDW">     -0.84910000</i>
   <i name="PARAM1">      0.12340000</i>
   <i name="PARAM2">      1.00000000</i>
   <i name="PARAM3">      0.00000000</i>
  </separator>
  <separator name="model GW" >
   <i type="int" name="MODEL_GW">     0</i>
   <i name="MODEL_EPS0">      3.46960153</i>
   <i name="MODEL_ALPHA">      1.00000000</i>
  </separator>
  <separator name="linear response parameters" >
   <i type="logical" name="LEPSILON"> F  </i>
   <i type="logical" name="LRPA"> F  </i>
   <i type="logical" name="LNABLA"> F  </i>
   <i type="logical" name="LVEL"> F  </i>
   <i type="int" name="KINTER">     0</i>
   <i name="CSHIFT">      0.10000000</i>
   <i name="OMEGAMAX">     -1.00000000</i>
   <i name="DEG_THRESHOLD">      0.00200000</i>
   <i name="RTIME">     -0.10000000</i>
   <i name="WPLASMAI">      0.00000000</i>
   <v name="DFIELD">      0.00000000      0.00000000      0.00000000</v>
   <v name="WPLASMA">      0.00000000      0.00000000      0.00000000      0.00000000      0.00000000      0.00000000      0.00000000      0.00000000      0.00000000</v>
  </separator>
  <separator name="orbital magnetization" >
   <i type="logical" name="NUCIND"> F  </i>
   <v name="MAGPOS">      0.00000000      0.00000000      0.00000000</v>
   <i type="logical" name="LNICSALL"> T  </i>
   <i type="logical" name="ORBITALMAG"> F  </i>
   <i type="logical" name="LMAGBLOCH"> F  </i>
   <i type="logical" name="LCHIMAG"> F  </i>
   <i type="logical" name="LGAUGE"> T  </i>
   <i type="int" name="MAGATOM">     0</i>
   <v name="MAGDIPOL">      0.00000000      0.00000000      0.00000000</v>
   <v name="AVECCONST">      0.00000000      0.00000000      0.00000000</v>
  </separator>
  <separator name="response functions" >
   <i type="logical" name="LADDER"> F  </i>
   <i type="logical" name="LRPAFORCE"> F  </i>
   <i type="logical" name="LFXC"> F  </i>
   <i type="logical" name="LHARTREE"> T  </i>
   <i type="int" name="IBSE">     0</i>
   <v type="int" name="KPOINT">    -1     0     0     0</v>
   <i type="logical" name="LTCTE"> F  </i>
   <i type="logical" name="LTETE"> F  </i>
   <i type="logical" name="LTRIPLET"> F  </i>
   <i type="logical" name="LFXCEPS"> F  </i>
   <i type="logical" name="LFXHEG"> F  </i>
   <i type="int" name="NATURALO">     2</i>
   <i type="logical" name="L2ORDER"> F  </i>
   <i type="logical" name="LMP2LT"> F  </i>
   <i type="logical" name="LUSEW"> F  </i>
   <i name="ENCUTGW">     -2.00000000</i>
   <i name="ENCUTGWSOFT">     -2.00000000</i>
   <i name="ENCUTLF">     -1.00000000</i>
   <i type="int" name="LMAXMP2">    -1</i>
   <i name="SCISSOR">      0.00000000</i>
   <i type="int" name="NOMEGA">     0</i>
   <i type="int" name="NOMEGAR">     0</i>
   <i type="int" name="NBANDSGW">    -1</i>
   <i type="int" name="NBANDSO">    -1</i>
   <i type="int" name="NBANDSV">    -1</i>
   <i type="int" name="NELM">     1</i>
   <i type="int" name="NELMHF">     1</i>
   <i type="int" name="DIM">     3</i>
   <i type="int" name="ANTIRES">     0</i>
   <i name="OMEGAMAX">    -30.00000000</i>
   <i name="OMEGAMIN">    -30.00000000</i>
   <i name="OMEGATL">   -200.00000000</i>
   <i type="int" name="OMEGAGRID">   140</i>
   <i name="CSHIFT">     -0.10000000</i>
   <i type="logical" name="SELFENERGY"> F  </i>
   <i type="logical" name="LSPECTRAL"> F  </i>
   <i type="logical" name="LSPECTRALGW"> F  </i>
   <i type="logical" name="LSINGLES"> F  </i>
   <i type="logical" name="LFERMIGW"> F  </i>
   <i type="logical" name="ODDONLYGW"> F  </i>
   <i type="logical" name="EVENONLYGW"> F  </i>
   <i type="int" name="NKREDLFX">     1</i>
   <i type="int" name="NKREDLFY">     1</i>
   <i type="int" name="NKREDLFZ">     1</i>
   <i type="int" name="MAXMEM">  2800</i>
   <i type="int" name="TELESCOPE">     0</i>
   <i type="int" name="TAUPAR">     1</i>
   <i type="int" name="OMEGAPAR">    -1</i>
   <i name="LAMBDA">      1.00000000</i>
  </separator>
  <separator name="External order field" >
   <i name="OFIELD_KAPPA">      0.00000000</i>
   <v name="OFIELD_K">      0.00000000      0.00000000      0.00000000</v>
   <i name="OFIELD_Q6_NEAR">      0.00000000</i>
   <i name="OFIELD_Q6_FAR">      0.00000000</i>
   <i name="OFIELD_A">      0.00000000</i>
  </separator>
 </parameters>
 <atominfo>
  <atoms>      64 </atoms>
  <types>       1 </types>
  <array name="atoms" >
   <dimension dim="1">ion</dimension>
   <field type="string">element</field>
   <field type="int">atomtype</field>
   <set>
    <rc><c>C </c><c>   1</c></rc>
    <rc><c>C </c><c>   1</c></rc>
    <rc><c>C </c><c>   1</c></rc>
    <rc><c>C </c><c>   1</c></rc>
    <rc><c>C </c><c>   1</c></rc>
    <rc><c>C </c><c>   1</c></rc>
    <rc><c>C </c><c>   1</c></rc>
    <rc><c>C </c><c>   1</c></rc>
    <rc><c>C </c><c>   1</c></rc>
    <rc><c>C </c><c>   1</c></rc>
    <rc><c>C </c><c>   1</c></rc>
    <rc><c>C </c><c>   1</c></rc>
    <rc><c>C </c><c>   1</c></rc>
    <rc><c>C </c><c>   1</c></rc>
    <rc><c>C </c><c>   1</c></rc>
    <rc><c>C </c><c>   1</c></rc>
    <rc><c>C </c><c>   1</c></rc>
    <rc><c>C </c><c>   1</c></rc>
    <rc><c>C </c><c>   1</c></rc>
    <rc><c>C </c><c>   1</c></rc>
    <rc><c>C </c><c>   1</c></rc>
    <rc><c>C </c><c>   1</c></rc>
    <rc><c>C </c><c>   1</c></rc>
    <rc><c>C </c><c>   1</c></rc>
    <rc><c>C </c><c>   1</c></rc>
    <rc><c>C </c><c>   1</c></rc>
    <rc><c>C </c><c>   1</c></rc>
    <rc><c>C </c><c>   1</c></rc>
    <rc><c>C </c><c>   1</c></rc>
    <rc><c>C </c><c>   1</c></rc>
    <rc><c>C </c><c>   1</c></rc>
    <rc><c>C </c><c>   1</c></rc>
    <rc><c>C </c><c>   1</c></rc>
    <rc><c>C </c><c>   1</c></rc>
    <rc><c>C </c><c>   1</c></rc>
    <rc><c>C </c><c>   1</c></rc>
    <rc><c>C </c><c>   1</c></rc>
    <rc><c>C </c><c>   1</c></rc>
    <rc><c>C </c><c>   1</c></rc>
    <rc><c>C </c><c>   1</c></rc>
    <rc><c>C </c><c>   1</c></rc>
    <rc><c>C </c><c>   1</c></rc>
    <rc><c>C </c><c>   1</c></rc>
    <rc><c>C </c><c>   1</c></rc>
    <rc><c>C </c><c>   1</c></rc>
    <rc><c>C </c><c>   1</c></rc>
    <rc><c>C </c><c>   1</c></rc>
    <rc><c>C </c><c>   1</c></rc>
    <rc><c>C </c><c>   1</c></rc>
    <rc><c>C </c><c>   1</c></rc>
    <rc><c>C </c><c>   1</c></rc>
    <rc><c>C </c><c>   1</c></rc>
    <rc><c>C </c><c>   1</c></rc>
    <rc><c>C </c><c>   1</c></rc>
    <rc><c>C </c><c>   1</c></rc>
    <rc><c>C </c><c>   1</c></rc>
    <rc><c>C </c><c>   1</c></rc>
    <rc><c>C </c><c>   1</c></rc>
    <rc><c>C </c><c>   1</c></rc>
    <rc><c>C </c><c>   1</c></rc>
    <rc><c>C </c><c>   1</c></rc>
    <rc><c>C </c><c>   1</c></rc>
    <rc><c>C </c><c>   1</c></rc>
    <rc><c>C </c><c>   1</c></rc>
   </set>
  </array>
  <array name="atomtypes" >
   <dimension dim="1">type</dimension>
   <field type="int">atomspertype</field>
   <field type="string">element</field>
   <field>mass</field>
   <field>valence</field>
   <field type="string">pseudopotential</field>
   <set>
    <rc><c>  64</c><c>C </c><c>     12.01100000</c><c>      4.00000000</c><c> PAW_PBE C 08Apr2002                    </c></rc>
   </set>
  </array>
 </atominfo>
 <structure name="initialpos" >
  <crystal>
   <varray name="basis" >
    <v>       7.17999872       0.00000000       0.00000000 </v>
    <v>       0.07179979       7.17963909       0.00000000 </v>
    <v>       0.07179979       0.07108454       7.17928749 </v>
   </varray>
   <i name="volume">    370.09083023 </i>
   <varray name="rec_basis" >
    <v>       0.13927579      -0.00139282      -0.00137910 </v>
    <v>       0.00000000       0.13928277      -0.00137909 </v>
    <v>       0.00000000       0.00000000       0.13928959 </v>
   </varray>
  </crystal>
  <varray name="positions" >
   <v>       0.12500000       0.37500000       0.12500000 </v>
   <v>       0.62500000       0.37500000       0.12500000 </v>
   <v>       0.12500000       0.87500000       0.12500000 </v>
   <v>       0.62500000       0.87500000       0.12500000 </v>
   <v>       0.12500000       0.37500000       0.62500000 </v>
   <v>       0.62500000       0.37500000       0.62500000 </v>
   <v>       0.12500000       0.87500000       0.62500000 </v>
   <v>       0.62500000       0.87500000       0.62500000 </v>
   <v>       0.00000000       0.00000000       0.25000000 </v>
   <v>       0.50000000       0.00000000       0.25000000 </v>
   <v>       0.00000000       0.50000000       0.25000000 </v>
   <v>       0.50000000       0.50000000       0.25000000 </v>
   <v>       0.00000000       0.00000000       0.75000000 </v>
   <v>       0.50000000       0.00000000       0.75000000 </v>
   <v>       0.00000000       0.50000000       0.75000000 </v>
   <v>       0.50000000       0.50000000       0.75000000 </v>
   <v>       0.12500000       0.12500000       0.37500000 </v>
   <v>       0.62500000       0.12500000       0.37500000 </v>
   <v>       0.12500000       0.62500000       0.37500000 </v>
   <v>       0.62500000       0.62500000       0.37500000 </v>
   <v>       0.12500000       0.12500000       0.87500000 </v>
   <v>       0.62500000       0.12500000       0.87500000 </v>
   <v>       0.12500000       0.62500000       0.87500000 </v>
   <v>       0.62500000       0.62500000       0.87500000 </v>
   <v>       0.00000000       0.25000000       0.00000000 </v>
   <v>       0.50000000       0.25000000       0.00000000 </v>
   <v>       0.00000000       0.75000000       0.00000000 </v>
   <v>       0.50000000       0.75000000       0.00000000 </v>
   <v>       0.00000000       0.25000000       0.50000000 </v>
   <v>       0.50000000       0.25000000       0.50000000 </v>
   <v>       0.00000000       0.75000000       0.50000000 </v>
   <v>       0.50000000       0.75000000       0.50000000 </v>
   <v>       0.37500000       0.37500000       0.37500000 </v>
   <v>       0.87500000       0.37500000       0.37500000 </v>
   <v>       0.37500000       0.87500000       0.37500000 </v>
   <v>       0.87500000       0.87500000       0.37500000 </v>
   <v>       0.37500000       0.37500000       0.87500000 </v>
   <v>       0.87500000       0.37500000       0.87500000 </v>
   <v>       0.37500000       0.87500000       0.87500000 </v>
   <v>       0.87500000       0.87500000       0.87500000 </v>
   <v>       0.25000000       0.00000000       0.00000000 </v>
   <v>       0.75000000       0.00000000       0.00000000 </v>
   <v>       0.25000000       0.50000000       0.00000000 </v>
   <v>       0.75000000       0.50000000       0.00000000 </v>
   <v>       0.25000000       0.00000000       0.50000000 </v>
   <v>       0.75000000       0.00000000       0.50000000 </v>
   <v>       0.25000000       0.50000000       0.50000000 </v>
   <v>       0.75000000       0.50000000       0.50000000 </v>
   <v>       0.37500000       0.12500000       0.12500000 </v>
   <v>       0.87500000       0.12500000       0.12500000 </v>
   <v>       0.37500000       0.62500000       0.12500000 </v>
   <v>       0.87500000       0.62500000       0.12500000 </v>
   <v>       0.37500000       0.12500000       0.62500000 </v>
   <v>       0.87500000       0.12500000       0.62500000 </v>
   <v>       0.37500000       0.62500000       0.62500000 </v>
   <v>       0.87500000       0.62500000       0.62500000 </v>
   <v>       0.25000000       0.25000000       0.25000000 </v>
   <v>       0.75000000       0.25000000       0.25000000 </v>
   <v>       0.25000000       0.75000000       0.25000000 </v>
   <v>       0.75000000       0.75000000       0.25000000 </v>
   <v>       0.25000000       0.25000000       0.75000000 </v>
   <v>       0.75000000       0.25000000       0.75000000 </v>
   <v>       0.25000000       0.75000000       0.75000000 </v>
   <v>       0.75000000       0.75000000       0.75000000 </v>
  </varray>
 </structure>
 <calculation>
  <scstep>
   <time name="dav">   23.05   23.06</time>
   <time name="total">   23.17   23.27</time>
   <energy>
    <i name="alphaZ">    901.78606030 </i>
    <i name="ewald"> -11062.66543762 </i>
    <i name="hartreedc">   -577.58691184 </i>
    <i name="XCdc">    911.17840182 </i>
    <i name="pawpsdc">   2421.21235816 </i>
    <i name="pawaedc">  -2494.84305711 </i>
    <i name="eentropy">     -0.00994187 </i>
    <i name="bandstr">    990.01001813 </i>
    <i name="atom">   9416.14232778 </i>
    <i name="e_fr_energy">    505.22381775 </i>
    <i name="e_wo_entrp">    505.23375961 </i>
    <i name="e_0_energy">    505.22878868 </i>
   </energy>
  </scstep>
  <scstep>
   <time name="dav">   27.52   27.52</time>
   <time name="total">   27.52   27.52</time>
   <energy>
    <i name="e_fr_energy">   -559.05189034 </i>
    <i name="e_wo_entrp">   -559.05189034 </i>
    <i name="e_0_energy">   -559.05189034 </i>
   </energy>
  </scstep>
  <scstep>
   <time name="dav">   27.46   27.46</time>
   <time name="total">   27.46   27.47</time>
   <energy>
    <i name="e_fr_energy">   -600.36386587 </i>
    <i name="e_wo_entrp">   -600.36386587 </i>
    <i name="e_0_energy">   -600.36386587 </i>
   </energy>
  </scstep>
  <scstep>
   <time name="dav">   27.46   27.47</time>
   <time name="total">   27.47   27.47</time>
   <energy>
    <i name="e_fr_energy">   -600.81941556 </i>
    <i name="e_wo_entrp">   -600.81941556 </i>
    <i name="e_0_energy">   -600.81941556 </i>
   </energy>
  </scstep>
  <scstep>
   <time name="dav">   26.62   26.62</time>
   <time name="total">   27.28   27.28</time>
   <energy>
    <i name="e_fr_energy">   -600.82862378 </i>
    <i name="e_wo_entrp">   -600.82862378 </i>
    <i name="e_0_energy">   -600.82862378 </i>
   </energy>
  </scstep>
  <scstep>
   <time name="dav">   24.99   24.99</time>
   <time name="total">   25.74   25.74</time>
   <energy>
    <i name="e_fr_energy">   -586.49253639 </i>
    <i name="e_wo_entrp">   -586.49253639 </i>
    <i name="e_0_energy">   -586.49253639 </i>
   </energy>
  </scstep>
  <scstep>
   <time name="dav">   27.37   27.37</time>
   <time name="total">   28.12   28.12</time>
   <energy>
    <i name="e_fr_energy">   -581.64988222 </i>
    <i name="e_wo_entrp">   -581.64988222 </i>
    <i name="e_0_energy">   -581.64988222 </i>
   </energy>
  </scstep>
  <scstep>
   <time name="dav">   26.08   26.08</time>
   <time name="total">   26.87   26.87</time>
   <energy>
    <i name="e_fr_energy">   -581.70892360 </i>
    <i name="e_wo_entrp">   -581.70892360 </i>
    <i name="e_0_energy">   -581.70892360 </i>
   </energy>
  </scstep>
  <scstep>
   <time name="dav">   27.24   27.24</time>
   <time name="total">   27.99   27.99</time>
   <energy>
    <i name="e_fr_energy">   -581.71107930 </i>
    <i name="e_wo_entrp">   -581.71107930 </i>
    <i name="e_0_energy">   -581.71107930 </i>
   </energy>
  </scstep>
  <scstep>
   <time name="dav">   25.22   25.22</time>
   <time name="total">   25.98   25.98</time>
   <energy>
    <i name="e_fr_energy">   -581.71154171 </i>
    <i name="e_wo_entrp">   -581.71154171 </i>
    <i name="e_0_energy">   -581.71154171 </i>
   </energy>
  </scstep>
  <scstep>
   <time name="dav">   28.50   28.50</time>
   <time name="total">   29.25   29.25</time>
   <energy>
    <i name="e_fr_energy">   -581.71154778 </i>
    <i name="e_wo_entrp">   -581.71154778 </i>
    <i name="e_0_energy">   -581.71154778 </i>
   </energy>
  </scstep>
  <scstep>
   <time name="dav">   27.44   27.44</time>
   <time name="total">   28.21   28.21</time>
   <energy>
    <i name="e_fr_energy">   -581.71154788 </i>
    <i name="e_wo_entrp">   -581.71154788 </i>
    <i name="e_0_energy">   -581.71154788 </i>
   </energy>
  </scstep>
  <scstep>
   <time name="dav">   23.42   23.43</time>
   <time name="total">   24.18   24.18</time>
   <energy>
    <i name="e_fr_energy">   -581.71154797 </i>
    <i name="e_wo_entrp">   -581.71154797 </i>
    <i name="e_0_energy">   -581.71154797 </i>
   </energy>
  </scstep>
  <scstep>
   <time name="dav">   20.99   20.99</time>
   <time name="total">   21.75   21.75</time>
   <energy>
    <i name="e_fr_energy">   -581.71154799 </i>
    <i name="e_wo_entrp">   -581.71154799 </i>
    <i name="e_0_energy">   -581.71154799 </i>
   </energy>
  </scstep>
  <scstep>
   <time name="dav">   19.51   19.51</time>
   <time name="total">   19.62   19.62</time>
   <energy>
    <i name="alphaZ">    901.78606030 </i>
    <i name="ewald"> -11062.66543762 </i>
    <i name="hartreedc">   -853.01034553 </i>
    <i name="XCdc">    937.11913261 </i>
    <i name="pawpsdc">   4137.59400472 </i>
    <i name="pawaedc">  -4218.16999420 </i>
    <i name="eentropy">     -0.00000000 </i>
    <i name="bandstr">    159.49270395 </i>
    <i name="atom">   9416.14232778 </i>
    <i name="e_fr_energy">   -581.71154799 </i>
    <i name="e_wo_entrp">   -581.71154799 </i>
    <i name="e_0_energy">   -581.71154799 </i>
   </energy>
  </scstep>
  <structure>
   <crystal>
    <varray name="basis" >
     <v>       7.17999872       0.00000000       0.00000000 </v>
     <v>       0.07179979       7.17963909       0.00000000 </v>
     <v>       0.07179979       0.07108454       7.17928749 </v>
    </varray>
    <i name="volume">    370.09083023 </i>
    <varray name="rec_basis" >
     <v>       0.13927579      -0.00139282      -0.00137910 </v>
     <v>       0.00000000       0.13928277      -0.00137909 </v>
     <v>       0.00000000       0.00000000       0.13928959 </v>
    </varray>
   </crystal>
   <varray name="positions" >
    <v>       0.12500000       0.37500000       0.12500000 </v>
    <v>       0.62500000       0.37500000       0.12500000 </v>
    <v>       0.12500000       0.87500000       0.12500000 </v>
    <v>       0.62500000       0.87500000       0.12500000 </v>
    <v>       0.12500000       0.37500000       0.62500000 </v>
    <v>       0.62500000       0.37500000       0.62500000 </v>
    <v>       0.12500000       0.87500000       0.62500000 </v>
    <v>       0.62500000       0.87500000       0.62500000 </v>
    <v>       0.00000000       0.00000000       0.25000000 </v>
    <v>       0.50000000       0.00000000       0.25000000 </v>
    <v>       0.00000000       0.50000000       0.25000000 </v>
    <v>       0.50000000       0.50000000       0.25000000 </v>
    <v>       0.00000000       0.00000000       0.75000000 </v>
    <v>       0.50000000       0.00000000       0.75000000 </v>
    <v>       0.00000000       0.50000000       0.75000000 </v>
    <v>       0.50000000       0.50000000       0.75000000 </v>
    <v>       0.12500000       0.12500000       0.37500000 </v>
    <v>       0.62500000       0.12500000       0.37500000 </v>
    <v>       0.12500000       0.62500000       0.37500000 </v>
    <v>       0.62500000       0.62500000       0.37500000 </v>
    <v>       0.12500000       0.12500000       0.87500000 </v>
    <v>       0.62500000       0.12500000       0.87500000 </v>
    <v>       0.12500000       0.62500000       0.87500000 </v>
    <v>       0.62500000       0.62500000       0.87500000 </v>
    <v>       0.00000000       0.25000000       0.00000000 </v>
    <v>       0.50000000       0.25000000       0.00000000 </v>
    <v>       0.00000000       0.75000000       0.00000000 </v>
    <v>       0.50000000       0.75000000       0.00000000 </v>
    <v>       0.00000000       0.25000000       0.50000000 </v>
    <v>       0.50000000       0.25000000       0.50000000 </v>
    <v>       0.00000000       0.75000000       0.50000000 </v>
    <v>       0.50000000       0.75000000       0.50000000 </v>
    <v>       0.37500000       0.37500000       0.37500000 </v>
    <v>       0.87500000       0.37500000       0.37500000 </v>
    <v>       0.37500000       0.87500000       0.37500000 </v>
    <v>       0.87500000       0.87500000       0.37500000 </v>
    <v>       0.37500000       0.37500000       0.87500000 </v>
    <v>       0.87500000       0.37500000       0.87500000 </v>
    <v>       0.37500000       0.87500000       0.87500000 </v>
    <v>       0.87500000       0.87500000       0.87500000 </v>
    <v>       0.25000000       0.00000000       0.00000000 </v>
    <v>       0.75000000       0.00000000       0.00000000 </v>
    <v>       0.25000000       0.50000000       0.00000000 </v>
    <v>       0.75000000       0.50000000       0.00000000 </v>
    <v>       0.25000000       0.00000000       0.50000000 </v>
    <v>       0.75000000       0.00000000       0.50000000 </v>
    <v>       0.25000000       0.50000000       0.50000000 </v>
    <v>       0.75000000       0.50000000       0.50000000 </v>
    <v>       0.37500000       0.12500000       0.12500000 </v>
    <v>       0.87500000       0.12500000       0.12500000 </v>
    <v>       0.37500000       0.62500000       0.12500000 </v>
    <v>       0.87500000       0.62500000       0.12500000 </v>
    <v>       0.37500000       0.12500000       0.62500000 </v>
    <v>       0.87500000       0.12500000       0.62500000 </v>
    <v>       0.37500000       0.62500000       0.62500000 </v>
    <v>       0.87500000       0.62500000       0.62500000 </v>
    <v>       0.25000000       0.25000000       0.25000000 </v>
    <v>       0.75000000       0.25000000       0.25000000 </v>
    <v>       0.25000000       0.75000000       0.25000000 </v>
    <v>       0.75000000       0.75000000       0.25000000 </v>
    <v>       0.25000000       0.25000000       0.75000000 </v>
    <v>       0.75000000       0.25000000       0.75000000 </v>
    <v>       0.25000000       0.75000000       0.75000000 </v>
    <v>       0.75000000       0.75000000       0.75000000 </v>
   </varray>
  </structure>
  <varray name="forces" >
   <v>      -0.01316720      -0.01303618      -0.01290774 </v>
   <v>      -0.01316720      -0.01303618      -0.01290774 </v>
   <v>      -0.01316720      -0.01303618      -0.01290774 </v>
   <v>      -0.01316720      -0.01303618      -0.01290774 </v>
   <v>      -0.01316720      -0.01303618      -0.01290774 </v>
   <v>      -0.01316720      -0.01303618      -0.01290774 </v>
   <v>      -0.01316720      -0.01303618      -0.01290774 </v>
   <v>      -0.01316720      -0.01303618      -0.01290774 </v>
   <v>       0.01316720       0.01303618       0.01290774 </v>
   <v>       0.01316720       0.01303618       0.01290774 </v>
   <v>       0.01316720       0.01303618       0.01290774 </v>
   <v>       0.01316720       0.01303618       0.01290774 </v>
   <v>       0.01316720       0.01303618       0.01290774 </v>
   <v>       0.01316720       0.01303618       0.01290774 </v>
   <v>       0.01316720       0.01303618       0.01290774 </v>
   <v>       0.01316720       0.01303618       0.01290774 </v>
   <v>      -0.01316720      -0.01303618      -0.01290774 </v>
   <v>      -0.01316720      -0.01303618      -0.01290774 </v>
   <v>      -0.01316720      -0.01303618      -0.01290774 </v>
   <v>      -0.01316720      -0.01303618      -0.01290774 </v>
   <v>      -0.01316720      -0.01303618      -0.01290774 </v>
   <v>      -0.01316720      -0.01303618      -0.01290774 </v>
   <v>      -0.01316720      -0.01303618      -0.01290774 </v>
   <v>      -0.01316720      -0.01303618      -0.01290774 </v>
   <v>       0.01316720       0.01303618       0.01290774 </v>
   <v>       0.01316720       0.01303618       0.01290774 </v>
   <v>       0.01316720       0.01303618       0.01290774 </v>
   <v>       0.01316720       0.01303618       0.01290774 </v>
   <v>       0.01316720       0.01303618       0.01290774 </v>
   <v>       0.01316720       0.01303618       0.01290774 </v>
   <v>       0.01316720       0.01303618       0.01290774 </v>
   <v>       0.01316720       0.01303618       0.01290774 </v>
   <v>      -0.01316720      -0.01303618      -0.01290774 </v>
   <v>      -0.01316720      -0.01303618      -0.01290774 </v>
   <v>      -0.01316720      -0.01303618      -0.01290774 </v>
   <v>      -0.01316720      -0.01303618      -0.01290774 </v>
   <v>      -0.01316720      -0.01303618      -0.01290774 </v>
   <v>      -0.01316720      -0.01303618      -0.01290774 </v>
   <v>      -0.01316720      -0.01303618      -0.01290774 </v>
   <v>      -0.01316720      -0.01303618      -0.01290774 </v>
   <v>       0.01316720       0.01303618       0.01290774 </v>
   <v>       0.01316720       0.01303618       0.01290774 </v>
   <v>       0.01316720       0.01303618       0.01290774 </v>
   <v>       0.01316720       0.01303618       0.01290774 </v>
   <v>       0.01316720       0.01303618       0.01290774 </v>
   <v>       0.01316720       0.01303618       0.01290774 </v>
   <v>       0.01316720       0.01303618       0.01290774 </v>
   <v>       0.01316720       0.01303618       0.01290774 </v>
   <v>      -0.01316720      -0.01303618      -0.01290774 </v>
   <v>      -0.01316720      -0.01303618      -0.01290774 </v>
   <v>      -0.01316720      -0.01303618      -0.01290774 </v>
   <v>      -0.01316720      -0.01303618      -0.01290774 </v>
   <v>      -0.01316720      -0.01303618      -0.01290774 </v>
   <v>      -0.01316720      -0.01303618      -0.01290774 </v>
   <v>      -0.01316720      -0.01303618      -0.01290774 </v>
   <v>      -0.01316720      -0.01303618      -0.01290774 </v>
   <v>       0.01316720       0.01303618       0.01290774 </v>
   <v>       0.01316720       0.01303618       0.01290774 </v>
   <v>       0.01316720       0.01303618       0.01290774 </v>
   <v>       0.01316720       0.01303618       0.01290774 </v>
   <v>       0.01316720       0.01303618       0.01290774 </v>
   <v>       0.01316720       0.01303618       0.01290774 </v>
   <v>       0.01316720       0.01303618       0.01290774 </v>
   <v>       0.01316720       0.01303618       0.01290774 </v>
  </varray>
  <varray name="stress" >
   <v>    -100.24510864     -54.29055002     -53.75566450 </v>
   <v>     -54.29055002     -99.15921708     -53.22075491 </v>
   <v>     -53.75566450     -53.22075491     -98.10531241 </v>
  </varray>
  <energy>
   <i name="e_fr_energy">   -581.71154799 </i>
   <i name="e_wo_entrp">   -581.71154799 </i>
   <i name="e_0_energy">     -0.00000000 </i>
  </energy>
  <kpoints>
   <generation param="Gamma">
    <v type="int" name="divisions">       6        6        6 </v>
    <v name="usershift">      0.00000000       0.00000000       0.00000000 </v>
    <v name="genvec1">      0.16666667       0.00000000      -0.00000000 </v>
    <v name="genvec2">      0.00000000       0.16666667       0.00000000 </v>
    <v name="genvec3">      0.00000000       0.00000000       0.16666667 </v>
    <v name="shift">      0.00000000       0.00000000       0.00000000 </v>
   </generation>
   <varray name="kpointlist" >
    <v>       0.00000000       0.00000000       0.00000000 </v>
    <v>       0.16666667      -0.00000000      -0.00000000 </v>
    <v>       0.33333333      -0.00000000      -0.00000000 </v>
    <v>       0.50000000      -0.00000000      -0.00000000 </v>
    <v>       0.00000000       0.16666667       0.00000000 </v>
    <v>       0.16666667       0.16666667       0.00000000 </v>
    <v>       0.33333333       0.16666667      -0.00000000 </v>
    <v>       0.50000000       0.16666667       0.00000000 </v>
    <v>      -0.33333333       0.16666667       0.00000000 </v>
    <v>      -0.16666667       0.16666667       0.00000000 </v>
    <v>       0.00000000       0.33333333       0.00000000 </v>
    <v>       0.16666667       0.33333333       0.00000000 </v>
    <v>       0.33333333       0.33333333       0.00000000 </v>
    <v>       0.50000000       0.33333333      -0.00000000 </v>
    <v>      -0.33333333       0.33333333       0.00000000 </v>
    <v>      -0.16666667       0.33333333       0.00000000 </v>
    <v>       0.00000000       0.50000000      -0.00000000 </v>
    <v>       0.16666667       0.50000000      -0.00000000 </v>
    <v>       0.33333333       0.50000000       0.00000000 </v>
    <v>       0.50000000       0.50000000      -0.00000000 </v>
    <v>       0.00000000       0.16666667       0.16666667 </v>
    <v>       0.16666667       0.16666667       0.16666667 </v>
    <v>       0.33333333       0.16666667       0.16666667 </v>
    <v>       0.50000000       0.16666667       0.16666667 </v>
    <v>      -0.33333333       0.16666667       0.16666667 </v>
    <v>      -0.16666667       0.16666667       0.16666667 </v>
    <v>       0.00000000       0.33333333       0.16666667 </v>
    <v>       0.16666667       0.33333333       0.16666667 </v>
    <v>       0.33333333       0.33333333       0.16666667 </v>
    <v>       0.50000000       0.33333333       0.16666667 </v>
    <v>      -0.33333333       0.33333333       0.16666667 </v>
    <v>      -0.16666667       0.33333333       0.16666667 </v>
    <v>       0.00000000       0.50000000       0.16666667 </v>
    <v>       0.16666667       0.50000000       0.16666667 </v>
    <v>       0.33333333       0.50000000       0.16666667 </v>
    <v>       0.50000000       0.50000000       0.16666667 </v>
    <v>      -0.33333333       0.50000000       0.16666667 </v>
    <v>      -0.16666667       0.50000000       0.16666667 </v>
    <v>       0.00000000      -0.33333333       0.16666667 </v>
    <v>       0.16666667      -0.33333333       0.16666667 </v>
    <v>       0.33333333      -0.33333333       0.16666667 </v>
    <v>       0.50000000      -0.33333333       0.16666667 </v>
    <v>      -0.33333333      -0.33333333       0.16666667 </v>
    <v>      -0.16666667      -0.33333333       0.16666667 </v>
    <v>       0.00000000      -0.16666667       0.16666667 </v>
    <v>       0.16666667      -0.16666667       0.16666667 </v>
    <v>       0.33333333      -0.16666667       0.16666667 </v>
    <v>       0.50000000      -0.16666667       0.16666667 </v>
    <v>       0.00000000       0.33333333       0.33333333 </v>
    <v>       0.16666667       0.33333333       0.33333333 </v>
    <v>       0.33333333       0.33333333       0.33333333 </v>
    <v>       0.50000000       0.33333333       0.33333333 </v>
    <v>      -0.33333333       0.33333333       0.33333333 </v>
    <v>      -0.16666667       0.33333333       0.33333333 </v>
    <v>       0.00000000       0.50000000       0.33333333 </v>
    <v>       0.16666667       0.50000000       0.33333333 </v>
    <v>       0.33333333       0.50000000       0.33333333 </v>
    <v>       0.50000000       0.50000000       0.33333333 </v>
    <v>      -0.33333333       0.50000000       0.33333333 </v>
    <v>      -0.16666667       0.50000000       0.33333333 </v>
    <v>       0.00000000      -0.33333333       0.33333333 </v>
    <v>       0.16666667      -0.33333333       0.33333333 </v>
    <v>       0.33333333      -0.33333333       0.33333333 </v>
    <v>       0.50000000      -0.33333333       0.33333333 </v>
    <v>       0.00000000       0.50000000       0.50000000 </v>
    <v>       0.16666667       0.50000000       0.50000000 </v>
    <v>       0.33333333       0.50000000       0.50000000 </v>
    <v>       0.50000000       0.50000000       0.50000000 </v>
   </varray>
   <varray name="weights" >
    <v>       0.00462963 </v>
    <v>       0.00925926 </v>
    <v>       0.00925926 </v>
    <v>       0.00462963 </v>
    <v>       0.01851852 </v>
    <v>       0.01851852 </v>
    <v>       0.01851852 </v>
    <v>       0.01851852 </v>
    <v>       0.01851852 </v>
    <v>       0.01851852 </v>
    <v>       0.01851852 </v>
    <v>       0.01851852 </v>
    <v>       0.01851852 </v>
    <v>       0.01851852 </v>
    <v>       0.01851852 </v>
    <v>       0.01851852 </v>
    <v>       0.00925926 </v>
    <v>       0.01851852 </v>
    <v>       0.01851852 </v>
    <v>       0.00925926 </v>
    <v>       0.00925926 </v>
    <v>       0.00925926 </v>
    <v>       0.00925926 </v>
    <v>       0.00925926 </v>
    <v>       0.00925926 </v>
    <v>       0.00925926 </v>
    <v>       0.01851852 </v>
    <v>       0.01851852 </v>
    <v>       0.01851852 </v>
    <v>       0.01851852 </v>
    <v>       0.01851852 </v>
    <v>       0.01851852 </v>
    <v>       0.01851852 </v>
    <v>       0.01851852 </v>
    <v>       0.01851852 </v>
    <v>       0.01851852 </v>
    <v>       0.01851852 </v>
    <v>       0.01851852 </v>
    <v>       0.01851852 </v>
    <v>       0.01851852 </v>
    <v>       0.01851852 </v>
    <v>       0.01851852 </v>
    <v>       0.01851852 </v>
    <v>       0.01851852 </v>
    <v>       0.00925926 </v>
    <v>       0.01851852 </v>
    <v>       0.01851852 </v>
    <v>       0.00925926 </v>
    <v>       0.00925926 </v>
    <v>       0.00925926 </v>
    <v>       0.00925926 </v>
    <v>       0.00925926 </v>
    <v>       0.00925926 </v>
    <v>       0.00925926 </v>
    <v>       0.01851852 </v>
    <v>       0.01851852 </v>
    <v>       0.01851852 </v>
    <v>       0.01851852 </v>
    <v>       0.01851852 </v>
    <v>       0.01851852 </v>
    <v>       0.00925926 </v>
    <v>       0.01851852 </v>
    <v>       0.01851852 </v>
    <v>       0.00925926 </v>
    <v>       0.00462963 </v>
    <v>       0.00925926 </v>
    <v>       0.00925926 </v>
    <v>       0.00462963 </v>
   </varray>
  </kpoints>
  <scstep>
   <time name="total">   57.57   57.57</time>
   <energy>
    <i name="e_fr_energy">   -362.50546760 </i>
    <i name="e_wo_entrp">   -362.50546760 </i>
    <i name="e_0_energy">   -362.50546760 </i>
   </energy>
  </scstep>
  <scstep>
   <time name="total">   46.61   46.62</time>
   <energy>
    <i name="e_fr_energy">   -308.59313130 </i>
    <i name="e_wo_entrp">   -308.59313130 </i>
    <i name="e_0_energy">   -308.59313130 </i>
   </energy>
  </scstep>
  <scstep>
   <time name="total">   43.29   43.30</time>
   <energy>
    <i name="e_fr_energy">   -308.24545064 </i>
    <i name="e_wo_entrp">   -308.24545064 </i>
    <i name="e_0_energy">   -308.24545064 </i>
   </energy>
  </scstep>
  <scstep>
   <time name="total">   43.10   43.11</time>
   <energy>
    <i name="e_fr_energy">   -308.88717608 </i>
    <i name="e_wo_entrp">   -308.88717608 </i>
    <i name="e_0_energy">   -308.88717608 </i>
   </energy>
  </scstep>
  <scstep>
   <time name="total">   47.55   47.55</time>
   <energy>
    <i name="e_fr_energy">   -309.09067884 </i>
    <i name="e_wo_entrp">   -309.09067884 </i>
    <i name="e_0_energy">   -309.09067884 </i>
   </energy>
  </scstep>
  <scstep>
   <time name="total">   46.21   46.21</time>
   <energy>
    <i name="e_fr_energy">   -309.04830939 </i>
    <i name="e_wo_entrp">   -309.04830939 </i>
    <i name="e_0_energy">   -309.04830939 </i>
   </energy>
  </scstep>
  <scstep>
   <time name="total">   44.09   44.09</time>
   <energy>
    <i name="e_fr_energy">   -309.02740198 </i>
    <i name="e_wo_entrp">   -309.02740198 </i>
    <i name="e_0_energy">   -309.02740198 </i>
   </energy>
  </scstep>
  <scstep>
   <time name="total">   45.92   45.93</time>
   <energy>
    <i name="e_fr_energy">   -309.02599693 </i>
    <i name="e_wo_entrp">   -309.02599693 </i>
    <i name="e_0_energy">   -309.02599693 </i>
   </energy>
  </scstep>
  <scstep>
   <time name="total">   47.04   47.05</time>
   <energy>
    <i name="e_fr_energy">   -309.02543469 </i>
    <i name="e_wo_entrp">   -309.02543469 </i>
    <i name="e_0_energy">   -309.02543469 </i>
   </energy>
  </scstep>
  <scstep>
   <time name="total">   47.43   47.43</time>
   <energy>
    <i name="e_fr_energy">   -309.02561306 </i>
    <i name="e_wo_entrp">   -309.02561306 </i>
    <i name="e_0_energy">   -309.02561306 </i>
   </energy>
  </scstep>
  <scstep>
   <time name="total">   47.76   47.76</time>
   <energy>
    <i name="e_fr_energy">   -309.02562374 </i>
    <i name="e_wo_entrp">   -309.02562374 </i>
    <i name="e_0_energy">   -309.02562374 </i>
   </energy>
  </scstep>
  <kpoints>
   <generation param="Gamma">
    <v type="int" name="divisions">       6        6        6 </v>
    <v name="usershift">      0.00000000       0.00000000       0.00000000 </v>
    <v name="genvec1">      0.16666667       0.00000000      -0.00000000 </v>
    <v name="genvec2">      0.00000000       0.16666667       0.00000000 </v>
    <v name="genvec3">      0.00000000       0.00000000       0.16666667 </v>
    <v name="shift">      0.00000000       0.00000000       0.00000000 </v>
   </generation>
   <varray name="kpointlist" >
    <v>       0.00000000       0.00000000       0.00000000 </v>
    <v>       0.16666667      -0.00000000      -0.00000000 </v>
    <v>       0.33333333      -0.00000000      -0.00000000 </v>
    <v>       0.50000000      -0.00000000      -0.00000000 </v>
    <v>       0.16666667       0.16666667       0.00000000 </v>
    <v>       0.33333333       0.16666667      -0.00000000 </v>
    <v>       0.50000000       0.16666667       0.00000000 </v>
    <v>      -0.33333333       0.16666667       0.00000000 </v>
    <v>      -0.16666667       0.16666667       0.00000000 </v>
    <v>       0.33333333       0.33333333       0.00000000 </v>
    <v>       0.50000000       0.33333333      -0.00000000 </v>
    <v>      -0.33333333       0.33333333       0.00000000 </v>
    <v>       0.50000000       0.50000000      -0.00000000 </v>
    <v>       0.16666667       0.16666667       0.16666667 </v>
    <v>       0.33333333       0.16666667       0.16666667 </v>
    <v>       0.50000000       0.16666667       0.16666667 </v>
    <v>      -0.33333333       0.16666667       0.16666667 </v>
    <v>      -0.16666667       0.16666667       0.16666667 </v>
    <v>       0.33333333       0.33333333       0.16666667 </v>
    <v>       0.50000000       0.33333333       0.16666667 </v>
    <v>      -0.33333333       0.33333333       0.16666667 </v>
    <v>      -0.16666667       0.33333333       0.16666667 </v>
    <v>       0.50000000       0.50000000       0.16666667 </v>
    <v>      -0.33333333       0.50000000       0.16666667 </v>
    <v>      -0.16666667       0.50000000       0.16666667 </v>
    <v>      -0.33333333      -0.33333333       0.16666667 </v>
    <v>       0.33333333       0.33333333       0.33333333 </v>
    <v>       0.50000000       0.33333333       0.33333333 </v>
    <v>      -0.33333333       0.33333333       0.33333333 </v>
    <v>       0.50000000       0.50000000       0.33333333 </v>
    <v>      -0.33333333       0.50000000       0.33333333 </v>
    <v>       0.50000000       0.50000000       0.50000000 </v>
   </varray>
   <varray name="weights" >
    <v>       0.00462963 </v>
    <v>       0.02777778 </v>
    <v>       0.02777778 </v>
    <v>       0.01388889 </v>
    <v>       0.02777778 </v>
    <v>       0.05555556 </v>
    <v>       0.05555556 </v>
    <v>       0.05555556 </v>
    <v>       0.02777778 </v>
    <v>       0.02777778 </v>
    <v>       0.05555556 </v>
    <v>       0.02777778 </v>
    <v>       0.01388889 </v>
    <v>       0.00925926 </v>
    <v>       0.02777778 </v>
    <v>       0.02777778 </v>
    <v>       0.02777778 </v>
    <v>       0.02777778 </v>
    <v>       0.02777778 </v>
    <v>       0.05555556 </v>
    <v>       0.05555556 </v>
    <v>       0.05555556 </v>
    <v>       0.02777778 </v>
    <v>       0.05555556 </v>
    <v>       0.02777778 </v>
    <v>       0.02777778 </v>
    <v>       0.00925926 </v>
    <v>       0.02777778 </v>
    <v>       0.02777778 </v>
    <v>       0.02777778 </v>
    <v>       0.02777778 </v>
    <v>       0.00462963 </v>
   </varray>
  </kpoints>
  <dynmat>
   <varray name="hessian" >
    <v>      -3.56036027       0.07701717       0.07625838       0.01339897       0.00008929       0.00008841       0.00772055       0.00014607      -0.00002162       0.00944604      -0.00048849      -0.00011323       0.00772055      -0.00002017       0.00014628       0.00944604      -0.00011807      -0.00048734      -0.04728060       0.00044923       0.00044480       0.00429420       0.00009846       0.00009749      -0.01246461      -0.00716021       0.00162860       0.00703906      -0.00937175      -0.01787176       0.74804238      -0.17226591      -0.17056870      -0.00648336      -0.00820851      -0.00812763       0.02727233      -0.01775634      -0.01758140      -0.00275136      -0.00264048      -0.00261447      -0.01246461       0.00155763      -0.00717598       0.00703906      -0.01796367      -0.00919434      -0.11531990       0.06008543      -0.05955660      -0.00479887       0.00317102      -0.00291563      -0.11303847       0.06047190       0.05987612      -0.00450154       0.00338672       0.00335335      -0.11303847      -0.05468234      -0.05414359      -0.00450154      -0.00299736      -0.00296783      -0.11531990      -0.05895878       0.06067215      -0.00479887      -0.00288409       0.00319973       0.69820330       0.10996067       0.10887731      -0.00544246       0.00816794       0.00808747      -0.01277500       0.00824127      -0.00216818       0.00699676       0.00789630       0.01708876      -0.01277500      -0.00208647       0.00826233       0.00699676       0.01716610       0.00772672       0.02914222       0.01694463       0.01677769      -0.00256574       0.00258706       0.00256158       0.12234606      -0.05703631       0.12590223       0.12563192      -0.06136839      -0.13218887       0.00685732      -0.00311096      -0.00607903       0.00688941      -0.00300098       0.00636531       0.12563192       0.05767580      -0.13234478       0.12234606       0.05811794       0.12476203       0.00688941       0.00305413       0.00649761       0.00685732       0.00327312      -0.00614224      -0.01351884       0.00754166       0.00149357       0.00538064       0.00742463      -0.01761179       0.75312927       0.17192822      -0.17402760      -0.00497346       0.00745621      -0.00730931       0.02886259       0.01765988      -0.01835767      -0.00288207       0.00242524      -0.00266332      -0.01291698      -0.00263570      -0.00811847       0.00743061       0.01787421      -0.00955311       0.12563192      -0.13176725       0.05898331       0.12234606       0.12533133       0.05687984       0.12234606       0.12533134      -0.05828006       0.12563192      -0.13278998      -0.06005660       0.00688941       0.00652753       0.00298965       0.00685732      -0.00610954       0.00333378       0.00685732      -0.00610954      -0.00305062       0.00688941       0.00633528      -0.00306385       0.75312927      -0.17231682       0.17364282      -0.00497346      -0.00723513       0.00752821      -0.01291698      -0.00814417      -0.00255519       0.00743061      -0.00937567       0.01796792      -0.01351884       0.00156817       0.00752651       0.00538064      -0.01753742       0.00759864       0.02886259      -0.01818192       0.01784077      -0.00288207      -0.00263918       0.00245149 </v>
    <v>       0.07701717      -3.56190008       0.07549996       0.00008929       0.00771819      -0.00002250       0.00014607       0.01339662       0.00008863      -0.00048849       0.00945581      -0.00011210      -0.00002017       0.00772095       0.00014482      -0.00011807      -0.04728390       0.00044970       0.00044923       0.00944273      -0.00049182       0.00009846       0.00429223       0.00009651      -0.00716021      -0.00482950       0.00751230      -0.00937175       0.00761809       0.01814754      -0.17226591       0.75657509       0.17535717      -0.00820851      -0.01275344      -0.00247404      -0.01775634       0.00573359       0.00777484      -0.00264048      -0.00282927       0.00247776       0.00155763      -0.01355009       0.00759865      -0.01796367       0.02922405       0.01793361      -0.05895878       0.12564476      -0.13159989      -0.00288409       0.00688771       0.00639478      -0.05468234       0.12231165       0.12530971      -0.00299736       0.00685456      -0.00611287       0.06047190       0.12231165       0.12530971       0.00338672       0.00685456      -0.00611287       0.06008543       0.12564476      -0.13295815       0.00317102       0.00688771       0.00646593       0.10996067       0.69600383       0.10779384       0.00816794      -0.01293910      -0.00224916       0.00824127      -0.00560656       0.00810956       0.00789630       0.00683882       0.01691871      -0.00208647      -0.01273327       0.00818012       0.01716610       0.02880109       0.01670125       0.01694463       0.00665564       0.00755932       0.00258706      -0.00261748       0.00253609       0.05811794      -0.11307281       0.05862001       0.05767580      -0.11530705      -0.05823764       0.00327312      -0.00450429       0.00341431       0.00305413      -0.00480057      -0.00297943      -0.06136839      -0.11530705       0.06199867      -0.05703631      -0.11307281      -0.05539399      -0.00300098      -0.00480057       0.00313491      -0.00311096      -0.00450429      -0.00290656       0.00754166      -0.00512344      -0.00732461       0.00742463       0.00523214      -0.01743655       0.17192822       0.74969045      -0.17229601       0.00745621      -0.01366882       0.00156675       0.01765988       0.00707525      -0.00937000       0.00242524      -0.00293058      -0.00263682      -0.00263570      -0.01286426      -0.00803769       0.01787421       0.02850723      -0.01826305      -0.13278998       0.12827759      -0.06064945       0.12533134       0.11983929       0.05631387       0.12533133       0.11983929      -0.05770013      -0.13176725       0.12827759       0.05958686       0.00633528       0.00676077      -0.00309390      -0.00610954       0.00697951       0.00330061      -0.00610954       0.00697951      -0.00302026       0.00652753       0.00676077       0.00302044      -0.17231682       0.75148828      -0.17231381      -0.00723513      -0.01232064       0.00155340      -0.00814417      -0.00631982      -0.00810248      -0.00937567       0.00722654      -0.01805234       0.00156817      -0.01249586      -0.00725161      -0.01753742       0.02762528      -0.01765827      -0.01818192       0.00740053      -0.00937322      -0.00263918      -0.00269856      -0.00263911 </v>
    <v>       0.07625838       0.07549996      -3.56339549       0.00008841      -0.00002250       0.00771864      -0.00002162       0.00008863       0.00771864      -0.00011323      -0.00011210      -0.04728725       0.00014628       0.00014482       0.01339430      -0.00048734       0.00044970       0.00945247       0.00044480      -0.00049182       0.00945247       0.00009749       0.00009651       0.00429032       0.00162860       0.00751230      -0.01369971      -0.01787176       0.01814754       0.02886681      -0.17056870       0.17535717       0.75310262      -0.00812763      -0.00247404      -0.01270445      -0.01758140       0.00777484       0.00557963      -0.00261447       0.00247776      -0.00287834      -0.00717598       0.00759865      -0.00497912      -0.00919434       0.01793361       0.00726083       0.06067215      -0.13295815       0.12826425       0.00319973       0.00646593       0.00676037      -0.05414359       0.12530971       0.11983020      -0.00296783      -0.00611287       0.00697561       0.05987612       0.12530971       0.11983020       0.00335335      -0.00611287       0.00697561      -0.05955660      -0.13159989       0.12826425      -0.00291563       0.00639478       0.00676037       0.10887731       0.10779384       0.69386929       0.00808747      -0.00224916      -0.01289456      -0.00216818       0.00810956      -0.01289456       0.01708876       0.01691871       0.02846821       0.00826233       0.00818012      -0.00576785       0.00772672       0.01670125       0.00650594       0.01677769       0.00755932       0.00650594       0.00256158       0.00253609      -0.00266770       0.12476203      -0.05539399       0.11983020      -0.13234478       0.06199867       0.12826425      -0.00614224      -0.00290656       0.00697561       0.00649761       0.00313491       0.00676037      -0.13218887      -0.05823764       0.12826425       0.12590223       0.05862001       0.11983020       0.00636531      -0.00297943       0.00676037      -0.00607903       0.00341431       0.00697561       0.00149357      -0.00732461      -0.01235154      -0.01761179      -0.01743655       0.02797277      -0.17402760      -0.17229601       0.75490044      -0.00730931       0.00156675      -0.01235154      -0.01835767      -0.00937000       0.00758611      -0.00266332      -0.00263682      -0.00264632      -0.00811847      -0.00803769      -0.00616002      -0.00955311      -0.01826305       0.00758611      -0.06005660       0.05958686      -0.11532042      -0.05828006      -0.05770013      -0.11308193       0.05687984       0.05631387      -0.11308193       0.05898331      -0.06064945      -0.11532042      -0.00306385       0.00302044      -0.00480097      -0.00305062      -0.00302026      -0.00450820       0.00333378       0.00330061      -0.00450820       0.00298965      -0.00309390      -0.00480097       0.17364282      -0.17231381       0.75310262       0.00752821       0.00155340      -0.01369971      -0.00255519      -0.00810248      -0.01270445       0.01796792      -0.01805234       0.02886681       0.00752651      -0.00725161      -0.00497912       0.00759864      -0.01765827       0.00557963       0.01784077      -0.00937322       0.00726083       0.00245149      -0.00263911      -0.00287834 </v>
    <v>       0.01339897       0.00008929       0.00008841      -3.56036027       0.07701717       0.07625838       0.00944604      -0.00048849      -0.00011323       0.00772055       0.00014607      -0.00002162       0.00944604      -0.00011807      -0.00048734       0.00772055      -0.00002017       0.00014628       0.00429420       0.00009846       0.00009749      -0.04728060       0.00044923       0.00044480       0.00703906      -0.00937175      -0.01787176      -0.01246461      -0.00716021       0.00162860      -0.00648336      -0.00820851      -0.00812763       0.74804238      -0.17226591      -0.17056870      -0.00275136      -0.00264048      -0.00261447       0.02727233      -0.01775634      -0.01758140       0.00703906      -0.01796367      -0.00919434      -0.01246461       0.00155763      -0.00717598      -0.00479887       0.00317102      -0.00291563      -0.11531990       0.06008543      -0.05955660      -0.00450154       0.00338672       0.00335335      -0.11303847       0.06047190       0.05987612      -0.00450154      -0.00299736      -0.00296783      -0.11303847      -0.05468234      -0.05414359      -0.00479887      -0.00288409       0.00319973      -0.11531990      -0.05895878       0.06067215      -0.00544246       0.00816794       0.00808747       0.69820330       0.10996067       0.10887731       0.00699676       0.00789630       0.01708876      -0.01277500       0.00824127      -0.00216818       0.00699676       0.01716610       0.00772672      -0.01277500      -0.00208647       0.00826233      -0.00256574       0.00258706       0.00256158       0.02914222       0.01694463       0.01677769       0.12563192      -0.06136839      -0.13218887       0.12234606      -0.05703631       0.12590223       0.00688941      -0.00300098       0.00636531       0.00685732      -0.00311096      -0.00607903       0.12234606       0.05811794       0.12476203       0.12563192       0.05767580      -0.13234478       0.00685732       0.00327312      -0.00614224       0.00688941       0.00305413       0.00649761       0.00538064       0.00742463      -0.01761179      -0.01351884       0.00754166       0.00149357      -0.00497346       0.00745621      -0.00730931       0.75312927       0.17192822      -0.17402760      -0.00288207       0.00242524      -0.00266332       0.02886259       0.01765988      -0.01835767       0.00743061       0.01787421      -0.00955311      -0.01291698      -0.00263570      -0.00811847       0.12234606       0.12533133       0.05687984       0.12563192      -0.13176725       0.05898331       0.12563192      -0.13278998      -0.06005660       0.12234606       0.12533134      -0.05828006       0.00685732      -0.00610954       0.00333378       0.00688941       0.00652753       0.00298965       0.00688941       0.00633528      -0.00306385       0.00685732      -0.00610954      -0.00305062      -0.00497346      -0.00723513       0.00752821       0.75312927      -0.17231682       0.17364282       0.00743061      -0.00937567       0.01796792      -0.01291698      -0.00814417      -0.00255519       0.00538064      -0.01753742       0.00759864      -0.01351884       0.00156817       0.00752651      -0.00288207      -0.00263918       0.00245149       0.02886259      -0.01818192       0.01784077 </v>
    <v>       0.00008929       0.00771819      -0.00002250       0.07701717      -3.56190008       0.07549996      -0.00048849       0.00945581      -0.00011210       0.00014607       0.01339662       0.00008863      -0.00011807      -0.04728390       0.00044970      -0.00002017       0.00772095       0.00014482       0.00009846       0.00429223       0.00009651       0.00044923       0.00944273      -0.00049182      -0.00937175       0.00761809       0.01814754      -0.00716021      -0.00482950       0.00751230      -0.00820851      -0.01275344      -0.00247404      -0.17226591       0.75657509       0.17535717      -0.00264048      -0.00282927       0.00247776      -0.01775634       0.00573359       0.00777484      -0.01796367       0.02922405       0.01793361       0.00155763      -0.01355009       0.00759865      -0.00288409       0.00688771       0.00639478      -0.05895878       0.12564476      -0.13159989      -0.00299736       0.00685456      -0.00611287      -0.05468234       0.12231165       0.12530971       0.00338672       0.00685456      -0.00611287       0.06047190       0.12231165       0.12530971       0.00317102       0.00688771       0.00646593       0.06008543       0.12564476      -0.13295815       0.00816794      -0.01293910      -0.00224916       0.10996067       0.69600383       0.10779384       0.00789630       0.00683882       0.01691871       0.00824127      -0.00560656       0.00810956       0.01716610       0.02880109       0.01670125      -0.00208647      -0.01273327       0.00818012       0.00258706      -0.00261748       0.00253609       0.01694463       0.00665564       0.00755932       0.05767580      -0.11530705      -0.05823764       0.05811794      -0.11307281       0.05862001       0.00305413      -0.00480057      -0.00297943       0.00327312      -0.00450429       0.00341431      -0.05703631      -0.11307281      -0.05539399      -0.06136839      -0.11530705       0.06199867      -0.00311096      -0.00450429      -0.00290656      -0.00300098      -0.00480057       0.00313491       0.00742463       0.00523214      -0.01743655       0.00754166      -0.00512344      -0.00732461       0.00745621      -0.01366882       0.00156675       0.17192822       0.74969045      -0.17229601       0.00242524      -0.00293058      -0.00263682       0.01765988       0.00707525      -0.00937000       0.01787421       0.02850723      -0.01826305      -0.00263570      -0.01286426      -0.00803769       0.12533134       0.11983929       0.05631387      -0.13278998       0.12827759      -0.06064945      -0.13176725       0.12827759       0.05958686       0.12533133       0.11983929      -0.05770013      -0.00610954       0.00697951       0.00330061       0.00633528       0.00676077      -0.00309390       0.00652753       0.00676077       0.00302044      -0.00610954       0.00697951      -0.00302026      -0.00723513      -0.01232064       0.00155340      -0.17231682       0.75148828      -0.17231381      -0.00937567       0.00722654      -0.01805234      -0.00814417      -0.00631982      -0.00810248      -0.01753742       0.02762528      -0.01765827       0.00156817      -0.01249586      -0.00725161      -0.00263918      -0.00269856      -0.00263911      -0.01818192       0.00740053      -0.00937322 </v>
    <v>       0.00008841      -0.00002250       0.00771864       0.07625838       0.07549996      -3.56339549      -0.00011323      -0.00011210      -0.04728725      -0.00002162       0.00008863       0.00771864      -0.00048734       0.00044970       0.00945247       0.00014628       0.00014482       0.01339430       0.00009749       0.00009651       0.00429032       0.00044480      -0.00049182       0.00945247      -0.01787176       0.01814754       0.02886681       0.00162860       0.00751230      -0.01369971      -0.00812763      -0.00247404      -0.01270445      -0.17056870       0.17535717       0.75310262      -0.00261447       0.00247776      -0.00287834      -0.01758140       0.00777484       0.00557963      -0.00919434       0.01793361       0.00726083      -0.00717598       0.00759865      -0.00497912       0.00319973       0.00646593       0.00676037       0.06067215      -0.13295815       0.12826425      -0.00296783      -0.00611287       0.00697561      -0.05414359       0.12530971       0.11983020       0.00335335      -0.00611287       0.00697561       0.05987612       0.12530971       0.11983020      -0.00291563       0.00639478       0.00676037      -0.05955660      -0.13159989       0.12826425       0.00808747      -0.00224916      -0.01289456       0.10887731       0.10779384       0.69386929       0.01708876       0.01691871       0.02846821      -0.00216818       0.00810956      -0.01289456       0.00772672       0.01670125       0.00650594       0.00826233       0.00818012      -0.00576785       0.00256158       0.00253609      -0.00266770       0.01677769       0.00755932       0.00650594      -0.13234478       0.06199867       0.12826425       0.12476203      -0.05539399       0.11983020       0.00649761       0.00313491       0.00676037      -0.00614224      -0.00290656       0.00697561       0.12590223       0.05862001       0.11983020      -0.13218887      -0.05823764       0.12826425      -0.00607903       0.00341431       0.00697561       0.00636531      -0.00297943       0.00676037      -0.01761179      -0.01743655       0.02797277       0.00149357      -0.00732461      -0.01235154      -0.00730931       0.00156675      -0.01235154      -0.17402760      -0.17229601       0.75490044      -0.00266332      -0.00263682      -0.00264632      -0.01835767      -0.00937000       0.00758611      -0.00955311      -0.01826305       0.00758611      -0.00811847      -0.00803769      -0.00616002      -0.05828006      -0.05770013      -0.11308193      -0.06005660       0.05958686      -0.11532042       0.05898331      -0.06064945      -0.11532042       0.05687984       0.05631387      -0.11308193      -0.00305062      -0.00302026      -0.00450820      -0.00306385       0.00302044      -0.00480097       0.00298965      -0.00309390      -0.00480097       0.00333378       0.00330061      -0.00450820       0.00752821       0.00155340      -0.01369971       0.17364282      -0.17231381       0.75310262       0.01796792      -0.01805234       0.02886681      -0.00255519      -0.00810248      -0.01270445       0.00759864      -0.01765827       0.00557963       0.00752651      -0.00725161      -0.00497912       0.00245149      -0.00263911      -0.00287834       0.01784077      -0.00937322       0.00726083 </v>
    <v>       0.00772055       0.00014607      -0.00002162       0.00944604      -0.00048849      -0.00011323      -3.56036027       0.07701717       0.07625838       0.01339897       0.00008929       0.00008841      -0.04728060       0.00044923       0.00044480       0.00429420       0.00009846       0.00009749       0.00772055      -0.00002017       0.00014628       0.00944604      -0.00011807      -0.00048734       0.74804238      -0.17226591      -0.17056870      -0.00648336      -0.00820851      -0.00812763      -0.01246461      -0.00716021       0.00162860       0.00703906      -0.00937175      -0.01787176      -0.01246461       0.00155763      -0.00717598       0.00703906      -0.01796367      -0.00919434       0.02727233      -0.01775634      -0.01758140      -0.00275136      -0.00264048      -0.00261447      -0.11303847       0.06047190       0.05987612      -0.00450154       0.00338672       0.00335335      -0.11531990       0.06008543      -0.05955660      -0.00479887       0.00317102      -0.00291563      -0.11531990      -0.05895878       0.06067215      -0.00479887      -0.00288409       0.00319973      -0.11303847      -0.05468234      -0.05414359      -0.00450154      -0.00299736      -0.00296783      -0.01277500       0.00824127      -0.00216818       0.00699676       0.00789630       0.01708876       0.69820330       0.10996067       0.10887731      -0.00544246       0.00816794       0.00808747       0.02914222       0.01694463       0.01677769      -0.00256574       0.00258706       0.00256158      -0.01277500      -0.00208647       0.00826233       0.00699676       0.01716610       0.00772672       0.00685732      -0.00311096      -0.00607903       0.00688941      -0.00300098       0.00636531       0.12234606      -0.05703631       0.12590223       0.12563192      -0.06136839      -0.13218887       0.00688941       0.00305413       0.00649761       0.00685732       0.00327312      -0.00614224       0.12563192       0.05767580      -0.13234478       0.12234606       0.05811794       0.12476203       0.75312927       0.17192822      -0.17402760      -0.00497346       0.00745621      -0.00730931      -0.01351884       0.00754166       0.00149357       0.00538064       0.00742463      -0.01761179      -0.01291698      -0.00263570      -0.00811847       0.00743061       0.01787421      -0.00955311       0.02886259       0.01765988      -0.01835767      -0.00288207       0.00242524      -0.00266332       0.12234606       0.12533134      -0.05828006       0.12563192      -0.13278998      -0.06005660       0.12563192      -0.13176725       0.05898331       0.12234606       0.12533133       0.05687984       0.00685732      -0.00610954      -0.00305062       0.00688941       0.00633528      -0.00306385       0.00688941       0.00652753       0.00298965       0.00685732      -0.00610954       0.00333378      -0.01291698      -0.00814417      -0.00255519       0.00743061      -0.00937567       0.01796792       0.75312927      -0.17231682       0.17364282      -0.00497346      -0.00723513       0.00752821       0.02886259      -0.01818192       0.01784077      -0.00288207      -0.00263918       0.00245149      -0.01351884       0.00156817       0.00752651       0.00538064      -0.01753742       0.00759864 </v>
[...]
      </set>
     </set>
    </set>
   </array>
  </eigenvalues>
  <separator name="orbital magnetization" >
   <v name="MAGDIPOLOUT">      0.00000000      0.00000000      0.00000000</v>
  </separator>
  <dos>
   <i name="efermi">      9.79511475 </i>
   <total>
    <array>
     <dimension dim="1">gridpoints</dimension>
     <dimension dim="2">spin</dimension>
     <field>energy</field>
     <field>total</field>
     <field>integrated</field>
     <set>
      <set comment="spin 1">
       <r>   -13.3800     0.0000     0.0000 </r>
       <r>   -13.2599     0.0000     0.0000 </r>
       <r>   -13.1399     0.0000     0.0000 </r>
       <r>   -13.0198     0.0000     0.0000 </r>
       <r>   -12.8998     0.0000     0.0000 </r>
       <r>   -12.7798     0.0000     0.0000 </r>
       <r>   -12.6597     0.0000     0.0000 </r>
       <r>   -12.5397     0.0000     0.0000 </r>
       <r>   -12.4196     0.0000     0.0000 </r>
       <r>   -12.2996     0.0000     0.0000 </r>
       <r>   -12.1796     0.0000     0.0000 </r>
       <r>   -12.0595     0.0000     0.0000 </r>
       <r>   -11.9395     0.0000     0.0000 </r>
       <r>   -11.8194     0.0030     0.0004 </r>
       <r>   -11.6994     0.2350     0.0286 </r>
       <r>   -11.5794     1.2218     0.1752 </r>
       <r>   -11.4593     1.4057     0.3440 </r>
       <r>   -11.3393     2.8330     0.6840 </r>
       <r>   -11.2192     1.5267     0.8673 </r>
       <r>   -11.0992     3.5412     1.2924 </r>
       <r>   -10.9792     2.8717     1.6371 </r>
       <r>   -10.8591     3.8029     2.0936 </r>
       <r>   -10.7391     2.3668     2.3777 </r>
       <r>   -10.6191     4.5844     2.9280 </r>
       <r>   -10.4990     4.3572     3.4510 </r>
       <r>   -10.3790     4.9964     4.0508 </r>
       <r>   -10.2589     2.4372     4.3434 </r>
       <r>   -10.1389     4.5785     4.8930 </r>
       <r>   -10.0189     6.4056     5.6619 </r>
       <r>    -9.8988     5.3694     6.3064 </r>
       <r>    -9.7788     4.6289     6.8621 </r>
       <r>    -9.6587     3.9888     7.3409 </r>
       <r>    -9.5387     6.7888     8.1558 </r>
       <r>    -9.4187     5.2554     8.7866 </r>
       <r>    -9.2986     5.5348     9.4510 </r>
       <r>    -9.1786     6.5649    10.2391 </r>
       <r>    -9.0585     7.4340    11.1315 </r>
       <r>    -8.9385     5.9750    11.8487 </r>
       <r>    -8.8185     5.7425    12.5380 </r>
       <r>    -8.6984     3.8949    13.0056 </r>
       <r>    -8.5784     8.9252    14.0769 </r>
       <r>    -8.4583     7.6301    14.9928 </r>
       <r>    -8.3383     9.4011    16.1213 </r>
       <r>    -8.2183     5.5842    16.7917 </r>
       <r>    -8.0982     6.5599    17.5791 </r>
       <r>    -7.9782     7.1627    18.4389 </r>
       <r>    -7.8581     7.9327    19.3912 </r>
       <r>    -7.7381     6.2921    20.1465 </r>
       <r>    -7.6181    10.7515    21.4371 </r>
       <r>    -7.4980     8.8527    22.4997 </r>
       <r>    -7.3780     7.3672    23.3841 </r>
       <r>    -7.2580     7.0221    24.2270 </r>
       <r>    -7.1379    12.0779    25.6768 </r>
       <r>    -7.0179     9.1356    26.7735 </r>
       <r>    -6.8978     6.1999    27.5177 </r>
       <r>    -6.7778     7.8610    28.4613 </r>
       <r>    -6.6578    10.6044    29.7343 </r>
       <r>    -6.5377    10.6271    31.0099 </r>
       <r>    -6.4177    11.1692    32.3507 </r>
       <r>    -6.2976    12.9936    33.9104 </r>
       <r>    -6.1776    11.1702    35.2513 </r>
       <r>    -6.0576    10.1085    36.4647 </r>
       <r>    -5.9375     9.6459    37.6226 </r>
       <r>    -5.8175    12.2328    39.0910 </r>
       <r>    -5.6974    12.5557    40.5982 </r>
       <r>    -5.5774    12.4518    42.0929 </r>
       <r>    -5.4574    12.0915    43.5443 </r>
       <r>    -5.3373    10.3117    44.7821 </r>
       <r>    -5.2173    11.6431    46.1798 </r>
       <r>    -5.0972    11.6792    47.5817 </r>
       <r>    -4.9772    10.8152    48.8800 </r>
       <r>    -4.8572     8.3206    49.8788 </r>
       <r>    -4.7371    10.4430    51.1324 </r>
       <r>    -4.6171     7.2034    51.9970 </r>
       <r>    -4.4971     8.1584    52.9764 </r>
       <r>    -4.3770     8.5875    54.0072 </r>
       <r>    -4.2570    10.3453    55.2491 </r>
       <r>    -4.1369     7.5930    56.1605 </r>
       <r>    -4.0169     7.6005    57.0729 </r>
       <r>    -3.8969    11.0082    58.3943 </r>
       <r>    -3.7768     7.7496    59.3245 </r>
       <r>    -3.6568     8.5188    60.3471 </r>
       <r>    -3.5367     4.6167    60.9013 </r>
       <r>    -3.4167     5.6116    61.5749 </r>
       <r>    -3.2967     7.1837    62.4372 </r>
       <r>    -3.1766     8.9437    63.5108 </r>
       <r>    -3.0566     7.5750    64.4201 </r>
       <r>    -2.9365    11.2042    65.7651 </r>
       <r>    -2.8165    11.4442    67.1388 </r>
       <r>    -2.6965    10.5240    68.4021 </r>
       <r>    -2.5764     7.0898    69.2532 </r>
       <r>    -2.4564     8.1643    70.2332 </r>
       <r>    -2.3363    12.2551    71.7043 </r>
       <r>    -2.2163    10.2870    72.9392 </r>
       <r>    -2.0963    10.3363    74.1799 </r>
       <r>    -1.9762    12.9441    75.7337 </r>
       <r>    -1.8562    19.8367    78.1149 </r>
       <r>    -1.7362    27.6227    81.4307 </r>
       <r>    -1.6161    24.3589    84.3547 </r>
       <r>    -1.4961    16.2441    86.3047 </r>
       <r>    -1.3760    14.1278    88.0005 </r>
       <r>    -1.2560    11.5513    89.3871 </r>
       <r>    -1.1360     8.6073    90.4204 </r>
       <r>    -1.0159     8.6711    91.4612 </r>
       <r>    -0.8959    12.7543    92.9923 </r>
       <r>    -0.7758    11.6491    94.3906 </r>
       <r>    -0.6558     7.3856    95.2772 </r>
       <r>    -0.5358    10.3058    96.5143 </r>
       <r>    -0.4157    15.5513    98.3810 </r>
       <r>    -0.2957    14.9619   100.1770 </r>
       <r>    -0.1756     7.9806   101.1350 </r>
       <r>    -0.0556     4.2211   101.6417 </r>
       <r>     0.0644     3.0038   102.0023 </r>
       <r>     0.1845     8.0358   102.9669 </r>
       <r>     0.3045    14.6129   104.7210 </r>
       <r>     0.4246    11.3664   106.0854 </r>
       <r>     0.5446     8.0342   107.0499 </r>
       <r>     0.6646     7.8963   107.9977 </r>
       <r>     0.7847    16.6141   109.9921 </r>
       <r>     0.9047    24.1911   112.8960 </r>
       <r>     1.0248    22.0563   115.5436 </r>
       <r>     1.1448    12.9980   117.1038 </r>
       <r>     1.2648    11.0583   118.4313 </r>
       <r>     1.3849    13.5041   120.0523 </r>
       <r>     1.5049    14.6104   121.8061 </r>
       <r>     1.6249    19.1237   124.1017 </r>
       <r>     1.7450    26.2965   127.2583 </r>
       <r>     1.8650    15.5129   129.1205 </r>
       <r>     1.9851     9.0737   130.2097 </r>
       <r>     2.1051    15.9630   132.1259 </r>
       <r>     2.2251    19.2196   134.4330 </r>
       <r>     2.3452    24.1696   137.3343 </r>
       <r>     2.4652    18.0003   139.4950 </r>
       <r>     2.5853    15.0538   141.3021 </r>
       <r>     2.7053    16.1617   143.2421 </r>
       <r>     2.8253    20.1099   145.6561 </r>
       <r>     2.9454    20.9368   148.1693 </r>
       <r>     3.0654    21.8902   150.7970 </r>
       <r>     3.1855    23.6499   153.6359 </r>
       <r>     3.3055    29.2014   157.1412 </r>
       <r>     3.4255    25.2324   160.1701 </r>
       <r>     3.5456    19.7465   162.5404 </r>
       <r>     3.6656    18.0539   164.7076 </r>
       <r>     3.7857    26.4641   167.8844 </r>
       <r>     3.9057    30.5126   171.5471 </r>
       <r>     4.0257    30.1706   175.1687 </r>
       <r>     4.1458    28.4235   178.5807 </r>
       <r>     4.2658    17.0784   180.6307 </r>
       <r>     4.3858    21.8583   183.2546 </r>
       <r>     4.5059    24.6645   186.2153 </r>
       <r>     4.6259    21.4861   188.7945 </r>
       <r>     4.7460    22.2959   191.4708 </r>
       <r>     4.8660    27.4273   194.7632 </r>
       <r>     4.9860    26.1981   197.9080 </r>
       <r>     5.1061    21.3357   200.4691 </r>
       <r>     5.2261    21.8360   203.0903 </r>
       <r>     5.3462    21.7230   205.6979 </r>
       <r>     5.4662    21.9513   208.3329 </r>
       <r>     5.5862    24.3705   211.2583 </r>
       <r>     5.7063    17.3675   213.3431 </r>
       <r>     5.8263    19.2700   215.6563 </r>
       <r>     5.9464    24.9869   218.6557 </r>
       <r>     6.0664    24.3112   221.5740 </r>
       <r>     6.1864    23.7374   224.4234 </r>
       <r>     6.3065    20.4709   226.8807 </r>
       <r>     6.4265    16.2736   228.8342 </r>
       <r>     6.5466    14.4770   230.5720 </r>
       <r>     6.6666    20.1663   232.9927 </r>
       <r>     6.7866    26.3529   236.1561 </r>
       <r>     6.9067    23.5824   238.9869 </r>
       <r>     7.0267     7.9259   239.9383 </r>
       <r>     7.1468     8.7287   240.9861 </r>
       <r>     7.2668    14.3113   242.7040 </r>
       <r>     7.3868    11.3348   244.0647 </r>
       <r>     7.5069    10.0598   245.2722 </r>
       <r>     7.6269    14.2861   246.9871 </r>
       <r>     7.7469     6.8217   247.8060 </r>
       <r>     7.8670     8.2564   248.7971 </r>
       <r>     7.9870     6.1085   249.5303 </r>
       <r>     8.1071     7.8149   250.4684 </r>
       <r>     8.2271     7.6574   251.3876 </r>
       <r>     8.3471     6.3022   252.1441 </r>
       <r>     8.4672     3.8448   252.6057 </r>
       <r>     8.5872     5.5488   253.2717 </r>
       <r>     8.7073     6.3514   254.0342 </r>
       <r>     8.8273     3.7309   254.4820 </r>
       <r>     8.9473     1.9822   254.7200 </r>
       <r>     9.0674     3.3547   255.1226 </r>
       <r>     9.1874     3.5704   255.5512 </r>
       <r>     9.3075     2.1371   255.8078 </r>
       <r>     9.4275     0.9378   255.9203 </r>
       <r>     9.5475     0.6242   255.9953 </r>
       <r>     9.6676     0.0394   256.0000 </r>
       <r>     9.7876     0.0000   256.0000 </r>
       <r>     9.9077     0.0000   256.0000 </r>
       <r>    10.0277     0.0000   256.0000 </r>
       <r>    10.1477     0.0000   256.0000 </r>
       <r>    10.2678     0.0000   256.0000 </r>
       <r>    10.3878     0.0000   256.0000 </r>
       <r>    10.5078     0.0000   256.0000 </r>
       <r>    10.6279     0.0000   256.0000 </r>
       <r>    10.7479     0.0000   256.0000 </r>
       <r>    10.8680     0.0000   256.0000 </r>
       <r>    10.9880     0.0000   256.0000 </r>
       <r>    11.1080     0.0000   256.0000 </r>
       <r>    11.2281     0.0000   256.0000 </r>
       <r>    11.3481     0.0000   256.0000 </r>
       <r>    11.4682     0.0000   256.0000 </r>
       <r>    11.5882     0.0000   256.0000 </r>
       <r>    11.7082     0.0000   256.0000 </r>
       <r>    11.8283     0.0000   256.0000 </r>
       <r>    11.9483     0.0000   256.0000 </r>
       <r>    12.0684     0.0000   256.0000 </r>
       <r>    12.1884     0.0000   256.0000 </r>
       <r>    12.3084     0.0000   256.0000 </r>
       <r>    12.4285     0.0000   256.0000 </r>
       <r>    12.5485     0.0000   256.0000 </r>
       <r>    12.6686     0.0000   256.0000 </r>
       <r>    12.7886     0.0000   256.0000 </r>
       <r>    12.9086     0.0000   256.0000 </r>
       <r>    13.0287     0.0000   256.0000 </r>
       <r>    13.1487     0.0000   256.0000 </r>
       <r>    13.2687     0.0000   256.0000 </r>
       <r>    13.3888     0.0000   256.0000 </r>
       <r>    13.5088     0.0658   256.0079 </r>
       <r>    13.6289     0.9821   256.1258 </r>
       <r>    13.7489     0.8424   256.2269 </r>
       <r>    13.8689     3.4087   256.6361 </r>
       <r>    13.9890     5.2536   257.2667 </r>
       <r>    14.1090     6.9630   258.1026 </r>
       <r>    14.2291     5.3912   258.7497 </r>
       <r>    14.3491     3.3243   259.1488 </r>
       <r>    14.4691     6.4021   259.9173 </r>
       <r>    14.5892     8.8744   260.9826 </r>
       <r>    14.7092    12.9535   262.5375 </r>
       <r>    14.8293    13.5992   264.1699 </r>
       <r>    14.9493    14.2116   265.8759 </r>
       <r>    15.0693    11.4079   267.2453 </r>
       <r>    15.1894     8.9828   268.3235 </r>
       <r>    15.3094    13.5041   269.9446 </r>
       <r>    15.4295    15.1976   271.7689 </r>
       <r>    15.5495    13.4073   273.3783 </r>
       <r>    15.6695    19.4003   275.7071 </r>
       <r>    15.7896    20.1062   278.1206 </r>
       <r>    15.9096    18.4313   280.3331 </r>
       <r>    16.0297    16.4103   282.3030 </r>
       <r>    16.1497    19.4539   284.6382 </r>
       <r>    16.2697    18.7505   286.8890 </r>
       <r>    16.3898    18.5652   289.1176 </r>
       <r>    16.5098    25.0632   292.1261 </r>
       <r>    16.6298    16.8886   294.1534 </r>
       <r>    16.7499    18.5495   296.3801 </r>
       <r>    16.8699    21.1632   298.9205 </r>
       <r>    16.9900    20.2476   301.3510 </r>
       <r>    17.1100    31.5396   305.1370 </r>
       <r>    17.2300    32.4519   309.0325 </r>
       <r>    17.3501    39.4096   313.7632 </r>
       <r>    17.4701    31.1979   317.5082 </r>
       <r>    17.5902    29.6607   321.0686 </r>
       <r>    17.7102    28.9694   324.5461 </r>
       <r>    17.8302    19.8260   326.9260 </r>
       <r>    17.9503    30.9629   330.6427 </r>
       <r>    18.0703    39.9907   335.4432 </r>
       <r>    18.1904    37.0169   339.8867 </r>
       <r>    18.3104    36.1236   344.2229 </r>
       <r>    18.4304    30.1236   347.8389 </r>
       <r>    18.5505    35.8975   352.1480 </r>
       <r>    18.6705    31.1010   355.8814 </r>
       <r>    18.7906    25.4162   358.9323 </r>
       <r>    18.9106    19.6470   361.2907 </r>
       <r>    19.0306    20.4270   363.7427 </r>
       <r>    19.1507    24.2342   366.6518 </r>
       <r>    19.2707    29.4297   370.1845 </r>
       <r>    19.3907    28.6868   373.6281 </r>
       <r>    19.5108    26.6788   376.8306 </r>
       <r>    19.6308    17.3160   378.9092 </r>
       <r>    19.7509    13.1177   380.4838 </r>
       <r>    19.8709     5.9788   381.2015 </r>
       <r>    19.9909     5.0682   381.8099 </r>
       <r>    20.1110     4.6424   382.3671 </r>
       <r>    20.2310     4.0041   382.8478 </r>
       <r>    20.3511     3.4613   383.2633 </r>
       <r>    20.4711     1.6140   383.4570 </r>
       <r>    20.5911     1.1295   383.5926 </r>
       <r>    20.7112     1.1900   383.7355 </r>
       <r>    20.8312     0.9161   383.8454 </r>
       <r>    20.9513     0.6633   383.9250 </r>
       <r>    21.0713     0.6053   383.9977 </r>
       <r>    21.1913     0.0191   384.0000 </r>
       <r>    21.3114     0.0000   384.0000 </r>
       <r>    21.4314     0.0000   384.0000 </r>
       <r>    21.5515     0.0000   384.0000 </r>
       <r>    21.6715     0.0000   384.0000 </r>
       <r>    21.7915     0.0000   384.0000 </r>
       <r>    21.9116     0.0000   384.0000 </r>
       <r>    22.0316     0.0000   384.0000 </r>
       <r>    22.1516     0.0000   384.0000 </r>
       <r>    22.2717     0.0000   384.0000 </r>
       <r>    22.3917     0.0000   384.0000 </r>
       <r>    22.5118     0.0000   384.0000 </r>
       <r>    22.6318     0.0000   384.0000 </r>
      </set>
     </set>
    </array>
   </total>
  </dos>
 </calculation>
 <structure name="finalpos" >
  <crystal>
   <varray name="basis" >
    <v>       7.17999872       0.00000000       0.00000000 </v>
    <v>       0.07179979       7.17963909       0.00000000 </v>
    <v>       0.07179979       0.07108454       7.17928749 </v>
   </varray>
   <i name="volume">    370.09083023 </i>
   <varray name="rec_basis" >
    <v>       0.13927579      -0.00139282      -0.00137910 </v>
    <v>       0.00000000       0.13928277      -0.00137909 </v>
    <v>       0.00000000       0.00000000       0.13928959 </v>
   </varray>
  </crystal>
  <varray name="positions" >
   <v>       0.12500000       0.37500000       0.12500000 </v>
   <v>       0.62500000       0.37500000       0.12500000 </v>
   <v>       0.12500000       0.87500000       0.12500000 </v>
   <v>       0.62500000       0.87500000       0.12500000 </v>
   <v>       0.12500000       0.37500000       0.62500000 </v>
   <v>       0.62500000       0.37500000       0.62500000 </v>
   <v>       0.12500000       0.87500000       0.62500000 </v>
   <v>       0.62500000       0.87500000       0.62500000 </v>
   <v>       0.00000000       0.00000000       0.25000000 </v>
   <v>       0.50000000       0.00000000       0.25000000 </v>
   <v>       0.00000000       0.50000000       0.25000000 </v>
   <v>       0.50000000       0.50000000       0.25000000 </v>
   <v>       0.00000000       0.00000000       0.75000000 </v>
   <v>       0.50000000       0.00000000       0.75000000 </v>
   <v>       0.00000000       0.50000000       0.75000000 </v>
   <v>       0.50000000       0.50000000       0.75000000 </v>
   <v>       0.12500000       0.12500000       0.37500000 </v>
   <v>       0.62500000       0.12500000       0.37500000 </v>
   <v>       0.12500000       0.62500000       0.37500000 </v>
   <v>       0.62500000       0.62500000       0.37500000 </v>
   <v>       0.12500000       0.12500000       0.87500000 </v>
   <v>       0.62500000       0.12500000       0.87500000 </v>
   <v>       0.12500000       0.62500000       0.87500000 </v>
   <v>       0.62500000       0.62500000       0.87500000 </v>
   <v>       0.00000000       0.25000000       0.00000000 </v>
   <v>       0.50000000       0.25000000       0.00000000 </v>
   <v>       0.00000000       0.75000000       0.00000000 </v>
   <v>       0.50000000       0.75000000       0.00000000 </v>
   <v>       0.00000000       0.25000000       0.50000000 </v>
   <v>       0.50000000       0.25000000       0.50000000 </v>
   <v>       0.00000000       0.75000000       0.50000000 </v>
   <v>       0.50000000       0.75000000       0.50000000 </v>
   <v>       0.37500000       0.37500000       0.37500000 </v>
   <v>       0.87500000       0.37500000       0.37500000 </v>
   <v>       0.37500000       0.87500000       0.37500000 </v>
   <v>       0.87500000       0.87500000       0.37500000 </v>
   <v>       0.37500000       0.37500000       0.87500000 </v>
   <v>       0.87500000       0.37500000       0.87500000 </v>
   <v>       0.37500000       0.87500000       0.87500000 </v>
   <v>       0.87500000       0.87500000       0.87500000 </v>
   <v>       0.25000000       0.00000000       0.00000000 </v>
   <v>       0.75000000       0.00000000       0.00000000 </v>
   <v>       0.25000000       0.50000000       0.00000000 </v>
   <v>       0.75000000       0.50000000       0.00000000 </v>
   <v>       0.25000000       0.00000000       0.50000000 </v>
   <v>       0.75000000       0.00000000       0.50000000 </v>
   <v>       0.25000000       0.50000000       0.50000000 </v>
   <v>       0.75000000       0.50000000       0.50000000 </v>
   <v>       0.37500000       0.12500000       0.12500000 </v>
   <v>       0.87500000       0.12500000       0.12500000 </v>
   <v>       0.37500000       0.62500000       0.12500000 </v>
   <v>       0.87500000       0.62500000       0.12500000 </v>
   <v>       0.37500000       0.12500000       0.62500000 </v>
   <v>       0.87500000       0.12500000       0.62500000 </v>
   <v>       0.37500000       0.62500000       0.62500000 </v>
   <v>       0.87500000       0.62500000       0.62500000 </v>
   <v>       0.25000000       0.25000000       0.25000000 </v>
   <v>       0.75000000       0.25000000       0.25000000 </v>
   <v>       0.25000000       0.75000000       0.25000000 </v>
   <v>       0.75000000       0.75000000       0.25000000 </v>
   <v>       0.25000000       0.25000000       0.75000000 </v>
   <v>       0.75000000       0.25000000       0.75000000 </v>
   <v>       0.25000000       0.75000000       0.75000000 </v>
   <v>       0.75000000       0.75000000       0.75000000 </v>
  </varray>
 </structure>
</modeling>
