 vasp.5.4.4.18Apr17-6-g9f103f2a35 (build Mar 12 2022 03:36:41) complex          
  
 executed on IFC19.0.3.199_CrayMP date 2022.11.30  13:09:21
 running on   16 total cores
 distrk:  each k-point on   16 cores,    1 groups
 distr:  one band on NCORES_PER_BAND=   4 cores,    4 groups


--------------------------------------------------------------------------------------------------------


 INCAR:
 POTCAR:   PAW_PBE C 08Apr2002                    
 POTCAR:   PAW_PBE C 08Apr2002                    
   VRHFIN =C: s2p2                                                              
   LEXCH  = PE                                                                  
   EATOM  =   147.1560 eV,   10.8157 Ry                                         
                                                                                
   TITEL  = PAW_PBE C 08Apr2002                                                 
   LULTRA =        F    use ultrasoft PP ?                                      
   IUNSCR =        0    unscreen: 0-lin 1-nonlin 2-no                           
   RPACOR =     .000    partial core radius                                     
   POMASS =   12.011; ZVAL   =    4.000    mass and valenz                      
   RCORE  =    1.500    outmost cutoff radius                                   
   RWIGS  =    1.630; RWIGS  =     .863    wigner-seitz radius (au A)           
   ENMAX  =  400.000; ENMIN  =  300.000 eV                                      
   ICORE  =        2    local potential                                         
   LCOR   =        T    correct aug charges                                     
   LPAW   =        T    paw PP                                                  
   EAUG   =  644.873                                                            
   DEXC   =     .000                                                            
   RMAX   =    2.266    core radius for proj-oper                               
   RAUG   =    1.300    factor for augmentation sphere                          
   RDEP   =    1.501    radius for radial grids                                 
   RDEPT  =    1.300    core radius for aug-charge                              
   QCUT   =   -5.516; QGAM   =   11.032    optimization parameters              
                                                                                
   Description                                                                  
     l     E      TYP  RCUT    TYP  RCUT                                        
     0   .000     23  1.200                                                     
     0   .000     23  1.200                                                     
     1   .000     23  1.500                                                     
     1  2.500     23  1.500                                                     
     2   .000      7  1.500                                                     
  local pseudopotential read in
  atomic valenz-charges read in
  non local Contribution for L=           0  read in
    real space projection operators read in
  non local Contribution for L=           0  read in
    real space projection operators read in
  non local Contribution for L=           1  read in
    real space projection operators read in
  non local Contribution for L=           1  read in
    real space projection operators read in
    PAW grid and wavefunctions read in
 
   number of l-projection  operators is LMAX  =           4
   number of lm-projection operators is LMMAX =           8
 
 PAW_PBE C 08Apr2002                    :
 energy of atom  1       EATOM= -147.1560
 kinetic energy error for atom=    0.0288 (will be added to EATOM!!)
 
 
 POSCAR: C8                                      
  positions in direct lattice
  No initial velocities read in
 exchange correlation table for  LEXCH =        8
   RHO(1)=    0.500       N(1)  =     2000
   RHO(2)=  100.500       N(2)  =     4000
 


--------------------------------------------------------------------------------------------------------


 ion  position               nearest neighbor table
   1  0.250  0.750  0.250-   2 1.59   4 1.59   6 1.59   8 1.59
   2  0.000  0.000  0.500-   1 1.59   3 1.59   5 1.59   7 1.59
   3  0.250  0.250  0.750-   2 1.59   4 1.59   6 1.59   8 1.59
   4  0.000  0.500  0.000-   1 1.59   3 1.59   5 1.59   7 1.59
   5  0.750  0.750  0.750-   2 1.59   4 1.59   6 1.59   8 1.59
   6  0.500  0.000  0.000-   1 1.59   3 1.59   5 1.59   7 1.59
   7  0.750  0.250  0.250-   2 1.59   4 1.59   6 1.59   8 1.59
   8  0.500  0.500  0.500-   1 1.59   3 1.59   5 1.59   7 1.59
 
  LATTYP: Found a simple cubic cell.
 ALAT       =     3.6793600000
  
  Lattice vectors:
  
 A1 = (   3.6793600000,   0.0000000000,   0.0000000000)
 A2 = (   0.0000000000,   3.6793600000,   0.0000000000)
 A3 = (   0.0000000000,   0.0000000000,   3.6793600000)


Analysis of symmetry for initial positions (statically):
=====================================================================
 Subroutine PRICEL returns following result:
 
  LATTYP: Found a face centered cubic cell.
 ALAT       =     3.6793600000
  
  Lattice vectors:
  
 A1 = (   1.8396800000,   1.8396800000,  -0.0000000000)
 A2 = (   1.8396800000,   0.0000000000,  -1.8396800000)
 A3 = (   0.0000000000,   1.8396800000,  -1.8396800000)
 
   4 primitive cells build up your supercell.
 

 Routine SETGRP: Setting up the symmetry group for a 
 simple cubic supercell.


 Subroutine GETGRP returns: Found 48 space group operations
 (whereof 24 operations were pure point group operations)
 out of a pool of 48 trial point group operations.


The static configuration has the point symmetry T_d .
 The point group associated with its full space group is O_h .


Analysis of symmetry for dynamics (positions and initial velocities):
=====================================================================
 Subroutine PRICEL returns following result:
 
  LATTYP: Found a face centered cubic cell.
 ALAT       =     3.6793600000
  
  Lattice vectors:
  
 A1 = (   1.8396800000,   1.8396800000,  -0.0000000000)
 A2 = (   1.8396800000,   0.0000000000,  -1.8396800000)
 A3 = (   0.0000000000,   1.8396800000,  -1.8396800000)
 
   4 primitive cells build up your supercell.
 

 Routine SETGRP: Setting up the symmetry group for a 
 simple cubic supercell.


 Subroutine GETGRP returns: Found 48 space group operations
 (whereof 24 operations were pure point group operations)
 out of a pool of 48 trial point group operations.


The dynamic configuration has the point symmetry T_d .
 The point group associated with its full space group is O_h .


 Subroutine INISYM returns: Found 48 space group operations
 (whereof 24 operations are pure point group operations),
 and found     4 'primitive' translations

 
 
 KPOINTS: kpt_density=1000                        

Automatic generation of k-mesh.
Space group operators:
 irot       det(A)        alpha          n_x          n_y          n_z        tau_x        tau_y        tau_z
    1     1.000000     0.000000     1.000000     0.000000     0.000000     0.000000     0.000000     0.000000
    2     1.000000   120.000000    -0.577350    -0.577350    -0.577350     0.000000     0.000000     0.000000
    3     1.000000   120.000000     0.577350     0.577350     0.577350     0.000000     0.000000     0.000000
    4    -1.000000    90.000000     0.000000     0.000000    -1.000000     0.000000     0.000000     0.000000
    5    -1.000000   180.000000     0.000000     0.707107     0.707107     0.000000     0.000000     0.000000
    6    -1.000000    90.000000     0.000000     1.000000     0.000000     0.000000     0.000000     0.000000
    7     1.000000   180.000000     0.000000     0.000000     1.000000     0.000000     0.000000     0.000000
    8     1.000000   120.000000    -0.577350     0.577350     0.577350     0.000000     0.000000     0.000000
    9     1.000000   120.000000    -0.577350     0.577350    -0.577350     0.000000     0.000000     0.000000
   10    -1.000000    90.000000     0.000000     0.000000     1.000000     0.000000     0.000000     0.000000
   11    -1.000000    90.000000    -1.000000     0.000000     0.000000     0.000000     0.000000     0.000000
   12    -1.000000   180.000000     0.707107     0.000000     0.707107     0.000000     0.000000     0.000000
   13     1.000000   120.000000     0.577350    -0.577350     0.577350     0.000000     0.000000     0.000000
   14     1.000000   120.000000    -0.577350    -0.577350     0.577350     0.000000     0.000000     0.000000
   15     1.000000   180.000000     1.000000     0.000000     0.000000     0.000000     0.000000     0.000000
   16    -1.000000    90.000000     0.000000    -1.000000     0.000000     0.000000     0.000000     0.000000
   17    -1.000000   180.000000     0.707107     0.707107     0.000000     0.000000     0.000000     0.000000
   18    -1.000000    90.000000     1.000000     0.000000     0.000000     0.000000     0.000000     0.000000
   19     1.000000   120.000000     0.577350    -0.577350    -0.577350     0.000000     0.000000     0.000000
   20     1.000000   180.000000     0.000000     1.000000     0.000000     0.000000     0.000000     0.000000
   21     1.000000   120.000000     0.577350     0.577350    -0.577350     0.000000     0.000000     0.000000
   22    -1.000000   180.000000     0.000000    -0.707107     0.707107     0.000000     0.000000     0.000000
   23    -1.000000   180.000000     0.707107    -0.707107     0.000000     0.000000     0.000000     0.000000
   24    -1.000000   180.000000     0.707107     0.000000    -0.707107     0.000000     0.000000     0.000000
   25    -1.000000     0.000000     1.000000     0.000000     0.000000     0.750000     0.750000    -0.750000
   26    -1.000000   120.000000    -0.577350    -0.577350    -0.577350     0.750000     0.750000    -0.750000
   27    -1.000000   120.000000     0.577350     0.577350     0.577350     0.750000     0.750000    -0.750000
   28     1.000000    90.000000     0.000000     0.000000    -1.000000     0.750000     0.750000    -0.750000
   29     1.000000   180.000000     0.000000     0.707107     0.707107     0.750000     0.750000    -0.750000
   30     1.000000    90.000000     0.000000     1.000000     0.000000     0.750000     0.750000    -0.750000
   31    -1.000000   180.000000     0.000000     0.000000     1.000000     0.750000     0.750000    -0.750000
   32    -1.000000   120.000000    -0.577350     0.577350     0.577350     0.750000     0.750000    -0.750000
   33    -1.000000   120.000000    -0.577350     0.577350    -0.577350     0.750000     0.750000    -0.750000
   34     1.000000    90.000000     0.000000     0.000000     1.000000     0.750000     0.750000    -0.750000
   35     1.000000    90.000000    -1.000000     0.000000     0.000000     0.750000     0.750000    -0.750000
   36     1.000000   180.000000     0.707107     0.000000     0.707107     0.750000     0.750000    -0.750000
   37    -1.000000   120.000000     0.577350    -0.577350     0.577350     0.750000     0.750000    -0.750000
   38    -1.000000   120.000000    -0.577350    -0.577350     0.577350     0.750000     0.750000    -0.750000
   39    -1.000000   180.000000     1.000000     0.000000     0.000000     0.750000     0.750000    -0.750000
   40     1.000000    90.000000     0.000000    -1.000000     0.000000     0.750000     0.750000    -0.750000
   41     1.000000   180.000000     0.707107     0.707107     0.000000     0.750000     0.750000    -0.750000
   42     1.000000    90.000000     1.000000     0.000000     0.000000     0.750000     0.750000    -0.750000
   43    -1.000000   120.000000     0.577350    -0.577350    -0.577350     0.750000     0.750000    -0.750000
   44    -1.000000   180.000000     0.000000     1.000000     0.000000     0.750000     0.750000    -0.750000
   45    -1.000000   120.000000     0.577350     0.577350    -0.577350     0.750000     0.750000    -0.750000
   46     1.000000   180.000000     0.000000    -0.707107     0.707107     0.750000     0.750000    -0.750000
   47     1.000000   180.000000     0.707107    -0.707107     0.000000     0.750000     0.750000    -0.750000
   48     1.000000   180.000000     0.707107     0.000000    -0.707107     0.750000     0.750000    -0.750000
 
 Subroutine IBZKPT returns following result:
 ===========================================
 
 Found     84 irreducible k-points:
 
 Following reciprocal coordinates:
            Coordinates               Weight
  0.000000  0.000000  0.000000      1.000000
  0.083333  0.000000  0.000000      6.000000
  0.166667  0.000000  0.000000      6.000000
  0.250000  0.000000  0.000000      6.000000
  0.333333  0.000000  0.000000      6.000000
  0.416667  0.000000  0.000000      6.000000
  0.500000  0.000000  0.000000      3.000000
  0.083333  0.083333  0.000000     12.000000
  0.166667  0.083333  0.000000     24.000000
  0.250000  0.083333  0.000000     24.000000
  0.333333  0.083333  0.000000     24.000000
  0.416667  0.083333  0.000000     24.000000
  0.500000  0.083333  0.000000     12.000000
  0.166667  0.166667  0.000000     12.000000
  0.250000  0.166667  0.000000     24.000000
  0.333333  0.166667  0.000000     24.000000
  0.416667  0.166667  0.000000     24.000000
  0.500000  0.166667  0.000000     12.000000
  0.250000  0.250000  0.000000     12.000000
  0.333333  0.250000  0.000000     24.000000
  0.416667  0.250000  0.000000     24.000000
  0.500000  0.250000  0.000000     12.000000
  0.333333  0.333333  0.000000     12.000000
  0.416667  0.333333  0.000000     24.000000
  0.500000  0.333333  0.000000     12.000000
  0.416667  0.416667  0.000000     12.000000
  0.500000  0.416667  0.000000     12.000000
  0.500000  0.500000  0.000000      3.000000
  0.083333  0.083333  0.083333      8.000000
  0.166667  0.083333  0.083333     24.000000
  0.250000  0.083333  0.083333     24.000000
  0.333333  0.083333  0.083333     24.000000
  0.416667  0.083333  0.083333     24.000000
  0.500000  0.083333  0.083333     12.000000
  0.166667  0.166667  0.083333     24.000000
  0.250000  0.166667  0.083333     48.000000
  0.333333  0.166667  0.083333     48.000000
  0.416667  0.166667  0.083333     48.000000
  0.500000  0.166667  0.083333     24.000000
  0.250000  0.250000  0.083333     24.000000
  0.333333  0.250000  0.083333     48.000000
  0.416667  0.250000  0.083333     48.000000
  0.500000  0.250000  0.083333     24.000000
  0.333333  0.333333  0.083333     24.000000
  0.416667  0.333333  0.083333     48.000000
  0.500000  0.333333  0.083333     24.000000
  0.416667  0.416667  0.083333     24.000000
  0.500000  0.416667  0.083333     24.000000
  0.500000  0.500000  0.083333      6.000000
  0.166667  0.166667  0.166667      8.000000
  0.250000  0.166667  0.166667     24.000000
  0.333333  0.166667  0.166667     24.000000
  0.416667  0.166667  0.166667     24.000000
  0.500000  0.166667  0.166667     12.000000
  0.250000  0.250000  0.166667     24.000000
  0.333333  0.250000  0.166667     48.000000
  0.416667  0.250000  0.166667     48.000000
  0.500000  0.250000  0.166667     24.000000
  0.333333  0.333333  0.166667     24.000000
  0.416667  0.333333  0.166667     48.000000
  0.500000  0.333333  0.166667     24.000000
  0.416667  0.416667  0.166667     24.000000
  0.500000  0.416667  0.166667     24.000000
  0.500000  0.500000  0.166667      6.000000
  0.250000  0.250000  0.250000      8.000000
  0.333333  0.250000  0.250000     24.000000
  0.416667  0.250000  0.250000     24.000000
  0.500000  0.250000  0.250000     12.000000
  0.333333  0.333333  0.250000     24.000000
  0.416667  0.333333  0.250000     48.000000
  0.500000  0.333333  0.250000     24.000000
  0.416667  0.416667  0.250000     24.000000
  0.500000  0.416667  0.250000     24.000000
  0.500000  0.500000  0.250000      6.000000
  0.333333  0.333333  0.333333      8.000000
  0.416667  0.333333  0.333333     24.000000
  0.500000  0.333333  0.333333     12.000000
  0.416667  0.416667  0.333333     24.000000
  0.500000  0.416667  0.333333     24.000000
  0.500000  0.500000  0.333333      6.000000
  0.416667  0.416667  0.416667      8.000000
  0.500000  0.416667  0.416667     12.000000
  0.500000  0.500000  0.416667      6.000000
  0.500000  0.500000  0.500000      1.000000
 
 Following cartesian coordinates:
            Coordinates               Weight
  0.000000  0.000000  0.000000      1.000000
  0.022649  0.000000  0.000000      6.000000
  0.045298  0.000000  0.000000      6.000000
  0.067947  0.000000  0.000000      6.000000
  0.090595  0.000000  0.000000      6.000000
  0.113244  0.000000  0.000000      6.000000
  0.135893  0.000000  0.000000      3.000000
  0.022649  0.022649  0.000000     12.000000
  0.045298  0.022649  0.000000     24.000000
  0.067947  0.022649  0.000000     24.000000
  0.090595  0.022649  0.000000     24.000000
  0.113244  0.022649  0.000000     24.000000
  0.135893  0.022649  0.000000     12.000000
  0.045298  0.045298  0.000000     12.000000
  0.067947  0.045298  0.000000     24.000000
  0.090595  0.045298  0.000000     24.000000
  0.113244  0.045298  0.000000     24.000000
  0.135893  0.045298  0.000000     12.000000
  0.067947  0.067947  0.000000     12.000000
  0.090595  0.067947  0.000000     24.000000
  0.113244  0.067947  0.000000     24.000000
  0.135893  0.067947  0.000000     12.000000
  0.090595  0.090595  0.000000     12.000000
  0.113244  0.090595  0.000000     24.000000
  0.135893  0.090595  0.000000     12.000000
  0.113244  0.113244  0.000000     12.000000
  0.135893  0.113244  0.000000     12.000000
  0.135893  0.135893  0.000000      3.000000
  0.022649  0.022649  0.022649      8.000000
  0.045298  0.022649  0.022649     24.000000
  0.067947  0.022649  0.022649     24.000000
  0.090595  0.022649  0.022649     24.000000
  0.113244  0.022649  0.022649     24.000000
  0.135893  0.022649  0.022649     12.000000
  0.045298  0.045298  0.022649     24.000000
  0.067947  0.045298  0.022649     48.000000
  0.090595  0.045298  0.022649     48.000000
  0.113244  0.045298  0.022649     48.000000
  0.135893  0.045298  0.022649     24.000000
  0.067947  0.067947  0.022649     24.000000
  0.090595  0.067947  0.022649     48.000000
  0.113244  0.067947  0.022649     48.000000
  0.135893  0.067947  0.022649     24.000000
  0.090595  0.090595  0.022649     24.000000
  0.113244  0.090595  0.022649     48.000000
  0.135893  0.090595  0.022649     24.000000
  0.113244  0.113244  0.022649     24.000000
  0.135893  0.113244  0.022649     24.000000
  0.135893  0.135893  0.022649      6.000000
  0.045298  0.045298  0.045298      8.000000
  0.067947  0.045298  0.045298     24.000000
  0.090595  0.045298  0.045298     24.000000
  0.113244  0.045298  0.045298     24.000000
  0.135893  0.045298  0.045298     12.000000
  0.067947  0.067947  0.045298     24.000000
  0.090595  0.067947  0.045298     48.000000
  0.113244  0.067947  0.045298     48.000000
  0.135893  0.067947  0.045298     24.000000
  0.090595  0.090595  0.045298     24.000000
  0.113244  0.090595  0.045298     48.000000
  0.135893  0.090595  0.045298     24.000000
  0.113244  0.113244  0.045298     24.000000
  0.135893  0.113244  0.045298     24.000000
  0.135893  0.135893  0.045298      6.000000
  0.067947  0.067947  0.067947      8.000000
  0.090595  0.067947  0.067947     24.000000
  0.113244  0.067947  0.067947     24.000000
  0.135893  0.067947  0.067947     12.000000
  0.090595  0.090595  0.067947     24.000000
  0.113244  0.090595  0.067947     48.000000
  0.135893  0.090595  0.067947     24.000000
  0.113244  0.113244  0.067947     24.000000
  0.135893  0.113244  0.067947     24.000000
  0.135893  0.135893  0.067947      6.000000
  0.090595  0.090595  0.090595      8.000000
  0.113244  0.090595  0.090595     24.000000
  0.135893  0.090595  0.090595     12.000000
  0.113244  0.113244  0.090595     24.000000
  0.135893  0.113244  0.090595     24.000000
  0.135893  0.135893  0.090595      6.000000
  0.113244  0.113244  0.113244      8.000000
  0.135893  0.113244  0.113244     12.000000
  0.135893  0.135893  0.113244      6.000000
  0.135893  0.135893  0.135893      1.000000
 
 TETIRR: Found    854 inequivalent tetrahedra from    10368


--------------------------------------------------------------------------------------------------------




 Dimension of arrays:
   k-points           NKPTS =     84   k-points in BZ     NKDIM =     84   number of bands    NBANDS=     24
   number of dos      NEDOS =    301   number of ions     NIONS =      8
   non local maximal  LDIM  =      4   non local SUM 2l+1 LMDIM =      8
   total plane-waves  NPLWV =  13824
   max r-space proj   IRMAX =      1   max aug-charges    IRDMAX=   3474
   dimension x,y,z NGX =    24 NGY =   24 NGZ =   24
   dimension x,y,z NGXF=    48 NGYF=   48 NGZF=   48
   support grid    NGXF=    48 NGYF=   48 NGZF=   48
   ions per type =               8
   NGX,Y,Z   is equivalent  to a cutoff of  10.84, 10.84, 10.84 a.u.
   NGXF,Y,Z  is equivalent  to a cutoff of  21.69, 21.69, 21.69 a.u.

 SYSTEM =  unknown system                          
 POSCAR =  C8                                      

 Startparameter for this run:
   NWRITE =      2    write-flag & timer
   PREC   = accura    normal or accurate (medium, high low for compatibility)
   ISTART =      0    job   : 0-new  1-cont  2-samecut
   ICHARG =      2    charge: 1-file 2-atom 10-const
   ISPIN  =      1    spin polarized calculation?
   LNONCOLLINEAR =      F non collinear calculations
   LSORBIT =      F    spin-orbit coupling
   INIWAV =      1    electr: 0-lowe 1-rand  2-diag
   LASPH  =      F    aspherical Exc in radial PAW
   METAGGA=      F    non-selfconsistent MetaGGA calc.

 Electronic Relaxation 1
   ENCUT  =  400.0 eV  29.40 Ry    5.42 a.u.   6.00  6.00  6.00*2*pi/ulx,y,z
   ENINI  =  400.0     initial cutoff
   ENAUG  =  644.9 eV  augmentation charge cutoff
   NELM   =     60;   NELMIN=  2; NELMDL= -5     # of ELM steps 
   EDIFF  = 0.1E-05   stopping-criterion for ELM
   LREAL  =      F    real-space projection
   NLSPLINE    = F    spline interpolate recip. space projectors
   LCOMPAT=      F    compatible to vasp.4.4
   GGA_COMPAT  = T    GGA compatible to vasp.4.4-vasp.4.6
   LMAXPAW     = -100 max onsite density
   LMAXMIX     =    2 max onsite mixed and CHGCAR
   VOSKOWN=      0    Vosko Wilk Nusair interpolation
   ROPT   =    0.00000
 Ionic relaxation
   EDIFFG = 0.1E-04   stopping-criterion for IOM
   NSW    =      0    number of steps for IOM
   NBLOCK =      1;   KBLOCK =      1    inner block; outer block 
   IBRION =     -1    ionic relax: 0-MD 1-quasi-New 2-CG
   NFREE  =      0    steps in history (QN), initial steepest desc. (CG)
   ISIF   =      2    stress and relaxation
   IWAVPR =     10    prediction:  0-non 1-charg 2-wave 3-comb
   ISYM   =      2    0-nonsym 1-usesym 2-fastsym
   LCORR  =      T    Harris-Foulkes like correction to forces

   POTIM  = 0.0200    time-step for ionic-motion
   TEIN   =    0.0    initial temperature
   TEBEG  =    0.0;   TEEND  =   0.0 temperature during run
   SMASS  =  -3.00    Nose mass-parameter (am)
   estimated Nose-frequenzy (Omega)   =  0.10E-29 period in steps =****** mass=  -0.309E-27a.u.
   SCALEE = 1.0000    scale energy and forces
   NPACO  =    256;   APACO  = 16.0  distance and # of slots for P.C.
   PSTRESS=    0.0 pullay stress

  Mass of Ions in am
   POMASS =  12.01
  Ionic Valenz
   ZVAL   =   4.00
  Atomic Wigner-Seitz radii
   RWIGS  =  -1.00
  virtual crystal weights 
   VCA    =   1.00
   NELECT =      32.0000    total number of electrons
   NUPDOWN=      -1.0000    fix difference up-down

 DOS related values:
   EMIN   =  10.00;   EMAX   =-10.00  energy-range for DOS
   EFERMI =   0.00
   ISMEAR =    -5;   SIGMA  =   0.06  broadening in eV -4-tet -1-fermi 0-gaus

 Electronic relaxation 2 (details)
   IALGO  =     38    algorithm
   LDIAG  =      T    sub-space diagonalisation (order eigenvalues)
   LSUBROT=      F    optimize rotation matrix (better conditioning)
   TURBO    =      0    0=normal 1=particle mesh
   IRESTART =      0    0=no restart 2=restart with 2 vectors
   NREBOOT  =      0    no. of reboots
   NMIN     =      0    reboot dimension
   EREF     =   0.00    reference energy to select bands
   IMIX   =      4    mixing-type and parameters
     AMIX     =   0.40;   BMIX     =  1.00
     AMIX_MAG =   1.60;   BMIX_MAG =  1.00
     AMIN     =   0.10
     WC   =   100.;   INIMIX=   1;  MIXPRE=   1;  MAXMIX= -45

 Intra band minimization:
   WEIMIN = 0.0000     energy-eigenvalue tresh-hold
   EBREAK =  0.10E-07  absolut break condition
   DEPER  =   0.30     relativ break condition  

   TIME   =   0.40     timestep for ELM

  volume/ion in A,a.u.               =       6.23        42.02
  Fermi-wavevector in a.u.,A,eV,Ry     =   1.412600  2.669427 27.149593  1.995439
  Thomas-Fermi vector in A             =   2.534332
 
 Write flags
   LWAVE        =      F    write WAVECAR
   LDOWNSAMPLE  =      F    k-point downsampling of WAVECAR
   LCHARG       =      F    write CHGCAR
   LVTOT        =      F    write LOCPOT, total local potential
   LVHAR        =      F    write LOCPOT, Hartree potential only
   LELF         =      F    write electronic localiz. function (ELF)
   LORBIT       =      0    0 simple, 1 ext, 2 COOP (PROOUT), +10 PAW based schemes


 Dipole corrections
   LMONO  =      F    monopole corrections only (constant potential shift)
   LDIPOL =      F    correct potential (dipole corrections)
   IDIPOL =      0    1-x, 2-y, 3-z, 4-all directions 
   EPSILON=  1.0000000 bulk dielectric constant

 Exchange correlation treatment:
   GGA     =    --    GGA type
   LEXCH   =     8    internal setting for exchange type
   VOSKOWN=      0    Vosko Wilk Nusair interpolation
   LHFCALC =     F    Hartree Fock is set to
   LHFONE  =     F    Hartree Fock one center treatment
   AEXX    =    0.0000 exact exchange contribution

 Linear response parameters
   LEPSILON=     F    determine dielectric tensor
   LRPA    =     F    only Hartree local field effects (RPA)
   LNABLA  =     F    use nabla operator in PAW spheres
   LVEL    =     F    velocity operator in full k-point grid
   LINTERFAST=   F  fast interpolation
   KINTER  =     0    interpolate to denser k-point grid
   CSHIFT  =0.1000    complex shift for real part using Kramers Kronig
   OMEGAMAX=  -1.0    maximum frequency
   DEG_THRESHOLD= 0.2000000E-02 threshold for treating states as degnerate
   RTIME   =   -0.100 relaxation time in fs
  (WPLASMAI=    0.000 imaginary part of plasma frequency in eV, 0.658/RTIME)
   DFIELD  = 0.0000000 0.0000000 0.0000000 field for delta impulse in time
 
 Orbital magnetization related:
   ORBITALMAG=     F  switch on orbital magnetization
   LCHIMAG   =     F  perturbation theory with respect to B field
   DQ        =  0.001000  dq finite difference perturbation B field
   LLRAUG    =     F  two centre corrections for induced B field



--------------------------------------------------------------------------------------------------------


 Static calculation
 charge density and potential will be updated during run
 non-spin polarized calculation
 Variant of blocked Davidson
 Davidson routine will perform the subspace rotation
 perform sub-space diagonalisation
    after iterative eigenvector-optimisation
 modified Broyden-mixing scheme, WC =      100.0
 initial mixing is a Kerker type mixing with AMIX =  0.4000 and BMIX =      1.0000
 Hartree-type preconditioning will be used
 using additional bands            8
 reciprocal scheme for non local part
 calculate Harris-corrections to forces 
   (improved forces if not selfconsistent)
 use gradient corrections 
 use of overlap-Matrix (Vanderbilt PP)
 Fermi weights with tetrahedron method with Bloechl corrections


--------------------------------------------------------------------------------------------------------


  energy-cutoff  :      400.00
  volume of cell :       49.81
      direct lattice vectors                 reciprocal lattice vectors
     3.679360000  0.000000000  0.000000000     0.271786398  0.000000000  0.000000000
     0.000000000  3.679360000  0.000000000     0.000000000  0.271786398  0.000000000
     0.000000000  0.000000000  3.679360000     0.000000000  0.000000000  0.271786398

  length of vectors
     3.679360000  3.679360000  3.679360000     0.271786398  0.271786398  0.271786398


 
 k-points in units of 2pi/SCALE and weight: kpt_density=1000                        
   0.00000000  0.00000000  0.00000000       0.001
   0.02264887  0.00000000  0.00000000       0.003
   0.04529773  0.00000000  0.00000000       0.003
   0.06794660  0.00000000  0.00000000       0.003
   0.09059547  0.00000000  0.00000000       0.003
   0.11324433  0.00000000  0.00000000       0.003
   0.13589320  0.00000000  0.00000000       0.002
   0.02264887  0.02264887  0.00000000       0.007
   0.04529773  0.02264887  0.00000000       0.014
   0.06794660  0.02264887  0.00000000       0.014
   0.09059547  0.02264887  0.00000000       0.014
   0.11324433  0.02264887  0.00000000       0.014
   0.13589320  0.02264887  0.00000000       0.007
   0.04529773  0.04529773  0.00000000       0.007
   0.06794660  0.04529773  0.00000000       0.014
   0.09059547  0.04529773  0.00000000       0.014
   0.11324433  0.04529773  0.00000000       0.014
   0.13589320  0.04529773  0.00000000       0.007
   0.06794660  0.06794660  0.00000000       0.007
   0.09059547  0.06794660  0.00000000       0.014
   0.11324433  0.06794660  0.00000000       0.014
   0.13589320  0.06794660  0.00000000       0.007
   0.09059547  0.09059547  0.00000000       0.007
   0.11324433  0.09059547  0.00000000       0.014
   0.13589320  0.09059547  0.00000000       0.007
   0.11324433  0.11324433  0.00000000       0.007
   0.13589320  0.11324433  0.00000000       0.007
   0.13589320  0.13589320  0.00000000       0.002
   0.02264887  0.02264887  0.02264887       0.005
   0.04529773  0.02264887  0.02264887       0.014
   0.06794660  0.02264887  0.02264887       0.014
   0.09059547  0.02264887  0.02264887       0.014
   0.11324433  0.02264887  0.02264887       0.014
   0.13589320  0.02264887  0.02264887       0.007
   0.04529773  0.04529773  0.02264887       0.014
   0.06794660  0.04529773  0.02264887       0.028
   0.09059547  0.04529773  0.02264887       0.028
   0.11324433  0.04529773  0.02264887       0.028
   0.13589320  0.04529773  0.02264887       0.014
   0.06794660  0.06794660  0.02264887       0.014
   0.09059547  0.06794660  0.02264887       0.028
   0.11324433  0.06794660  0.02264887       0.028
   0.13589320  0.06794660  0.02264887       0.014
   0.09059547  0.09059547  0.02264887       0.014
   0.11324433  0.09059547  0.02264887       0.028
   0.13589320  0.09059547  0.02264887       0.014
   0.11324433  0.11324433  0.02264887       0.014
   0.13589320  0.11324433  0.02264887       0.014
   0.13589320  0.13589320  0.02264887       0.003
   0.04529773  0.04529773  0.04529773       0.005
   0.06794660  0.04529773  0.04529773       0.014
   0.09059547  0.04529773  0.04529773       0.014
   0.11324433  0.04529773  0.04529773       0.014
   0.13589320  0.04529773  0.04529773       0.007
   0.06794660  0.06794660  0.04529773       0.014
   0.09059547  0.06794660  0.04529773       0.028
   0.11324433  0.06794660  0.04529773       0.028
   0.13589320  0.06794660  0.04529773       0.014
   0.09059547  0.09059547  0.04529773       0.014
   0.11324433  0.09059547  0.04529773       0.028
   0.13589320  0.09059547  0.04529773       0.014
   0.11324433  0.11324433  0.04529773       0.014
   0.13589320  0.11324433  0.04529773       0.014
   0.13589320  0.13589320  0.04529773       0.003
   0.06794660  0.06794660  0.06794660       0.005
   0.09059547  0.06794660  0.06794660       0.014
   0.11324433  0.06794660  0.06794660       0.014
   0.13589320  0.06794660  0.06794660       0.007
   0.09059547  0.09059547  0.06794660       0.014
   0.11324433  0.09059547  0.06794660       0.028
   0.13589320  0.09059547  0.06794660       0.014
   0.11324433  0.11324433  0.06794660       0.014
   0.13589320  0.11324433  0.06794660       0.014
   0.13589320  0.13589320  0.06794660       0.003
   0.09059547  0.09059547  0.09059547       0.005
   0.11324433  0.09059547  0.09059547       0.014
   0.13589320  0.09059547  0.09059547       0.007
   0.11324433  0.11324433  0.09059547       0.014
   0.13589320  0.11324433  0.09059547       0.014
   0.13589320  0.13589320  0.09059547       0.003
   0.11324433  0.11324433  0.11324433       0.005
   0.13589320  0.11324433  0.11324433       0.007
   0.13589320  0.13589320  0.11324433       0.003
   0.13589320  0.13589320  0.13589320       0.001
 
 k-points in reciprocal lattice and weights: kpt_density=1000                        
   0.00000000  0.00000000  0.00000000       0.001
   0.08333333  0.00000000  0.00000000       0.003
   0.16666667  0.00000000  0.00000000       0.003
   0.25000000  0.00000000  0.00000000       0.003
   0.33333333  0.00000000  0.00000000       0.003
   0.41666667  0.00000000  0.00000000       0.003
   0.50000000  0.00000000  0.00000000       0.002
   0.08333333  0.08333333  0.00000000       0.007
   0.16666667  0.08333333  0.00000000       0.014
   0.25000000  0.08333333  0.00000000       0.014
   0.33333333  0.08333333  0.00000000       0.014
   0.41666667  0.08333333  0.00000000       0.014
   0.50000000  0.08333333  0.00000000       0.007
   0.16666667  0.16666667  0.00000000       0.007
   0.25000000  0.16666667  0.00000000       0.014
   0.33333333  0.16666667  0.00000000       0.014
   0.41666667  0.16666667  0.00000000       0.014
   0.50000000  0.16666667  0.00000000       0.007
   0.25000000  0.25000000  0.00000000       0.007
   0.33333333  0.25000000  0.00000000       0.014
   0.41666667  0.25000000  0.00000000       0.014
   0.50000000  0.25000000  0.00000000       0.007
   0.33333333  0.33333333  0.00000000       0.007
   0.41666667  0.33333333  0.00000000       0.014
   0.50000000  0.33333333  0.00000000       0.007
   0.41666667  0.41666667  0.00000000       0.007
   0.50000000  0.41666667  0.00000000       0.007
   0.50000000  0.50000000  0.00000000       0.002
   0.08333333  0.08333333  0.08333333       0.005
   0.16666667  0.08333333  0.08333333       0.014
   0.25000000  0.08333333  0.08333333       0.014
   0.33333333  0.08333333  0.08333333       0.014
   0.41666667  0.08333333  0.08333333       0.014
   0.50000000  0.08333333  0.08333333       0.007
   0.16666667  0.16666667  0.08333333       0.014
   0.25000000  0.16666667  0.08333333       0.028
   0.33333333  0.16666667  0.08333333       0.028
   0.41666667  0.16666667  0.08333333       0.028
   0.50000000  0.16666667  0.08333333       0.014
   0.25000000  0.25000000  0.08333333       0.014
   0.33333333  0.25000000  0.08333333       0.028
   0.41666667  0.25000000  0.08333333       0.028
   0.50000000  0.25000000  0.08333333       0.014
   0.33333333  0.33333333  0.08333333       0.014
   0.41666667  0.33333333  0.08333333       0.028
   0.50000000  0.33333333  0.08333333       0.014
   0.41666667  0.41666667  0.08333333       0.014
   0.50000000  0.41666667  0.08333333       0.014
   0.50000000  0.50000000  0.08333333       0.003
   0.16666667  0.16666667  0.16666667       0.005
   0.25000000  0.16666667  0.16666667       0.014
   0.33333333  0.16666667  0.16666667       0.014
   0.41666667  0.16666667  0.16666667       0.014
   0.50000000  0.16666667  0.16666667       0.007
   0.25000000  0.25000000  0.16666667       0.014
   0.33333333  0.25000000  0.16666667       0.028
   0.41666667  0.25000000  0.16666667       0.028
   0.50000000  0.25000000  0.16666667       0.014
   0.33333333  0.33333333  0.16666667       0.014
   0.41666667  0.33333333  0.16666667       0.028
   0.50000000  0.33333333  0.16666667       0.014
   0.41666667  0.41666667  0.16666667       0.014
   0.50000000  0.41666667  0.16666667       0.014
   0.50000000  0.50000000  0.16666667       0.003
   0.25000000  0.25000000  0.25000000       0.005
   0.33333333  0.25000000  0.25000000       0.014
   0.41666667  0.25000000  0.25000000       0.014
   0.50000000  0.25000000  0.25000000       0.007
   0.33333333  0.33333333  0.25000000       0.014
   0.41666667  0.33333333  0.25000000       0.028
   0.50000000  0.33333333  0.25000000       0.014
   0.41666667  0.41666667  0.25000000       0.014
   0.50000000  0.41666667  0.25000000       0.014
   0.50000000  0.50000000  0.25000000       0.003
   0.33333333  0.33333333  0.33333333       0.005
   0.41666667  0.33333333  0.33333333       0.014
   0.50000000  0.33333333  0.33333333       0.007
   0.41666667  0.41666667  0.33333333       0.014
   0.50000000  0.41666667  0.33333333       0.014
   0.50000000  0.50000000  0.33333333       0.003
   0.41666667  0.41666667  0.41666667       0.005
   0.50000000  0.41666667  0.41666667       0.007
   0.50000000  0.50000000  0.41666667       0.003
   0.50000000  0.50000000  0.50000000       0.001
 
 position of ions in fractional coordinates (direct lattice) 
   0.25000000  0.75000000  0.25000000
   0.00000000  0.00000000  0.50000000
   0.25000000  0.25000000  0.75000000
   0.00000000  0.50000000  0.00000000
   0.75000000  0.75000000  0.75000000
   0.50000000  0.00000000  0.00000000
   0.75000000  0.25000000  0.25000000
   0.50000000  0.50000000  0.50000000
 
 position of ions in cartesian coordinates  (Angst):
   0.91984000  2.75952000  0.91984000
   0.00000000  0.00000000  1.83968000
   0.91984000  0.91984000  2.75952000
   0.00000000  1.83968000  0.00000000
   2.75952000  2.75952000  2.75952000
   1.83968000  0.00000000  0.00000000
   2.75952000  0.91984000  0.91984000
   1.83968000  1.83968000  1.83968000
 


--------------------------------------------------------------------------------------------------------


 k-point  1 :   0.0000 0.0000 0.0000  plane waves:     925
 k-point  2 :   0.0833 0.0000 0.0000  plane waves:     908
 k-point  3 :   0.1667 0.0000 0.0000  plane waves:     896
 k-point  4 :   0.2500 0.0000 0.0000  plane waves:     900
 k-point  5 :   0.3333 0.0000 0.0000  plane waves:     884
 k-point  6 :   0.4167 0.0000 0.0000  plane waves:     880
 k-point  7 :   0.5000 0.0000 0.0000  plane waves:     884
 k-point  8 :   0.0833 0.0833 0.0000  plane waves:     901
 k-point  9 :   0.1667 0.0833 0.0000  plane waves:     901
 k-point 10 :   0.2500 0.0833 0.0000  plane waves:     897
 k-point 11 :   0.3333 0.0833 0.0000  plane waves:     892
 k-point 12 :   0.4167 0.0833 0.0000  plane waves:     888
 k-point 13 :   0.5000 0.0833 0.0000  plane waves:     892
 k-point 14 :   0.1667 0.1667 0.0000  plane waves:     903
 k-point 15 :   0.2500 0.1667 0.0000  plane waves:     899
 k-point 16 :   0.3333 0.1667 0.0000  plane waves:     896
 k-point 17 :   0.4167 0.1667 0.0000  plane waves:     897
 k-point 18 :   0.5000 0.1667 0.0000  plane waves:     906
 k-point 19 :   0.2500 0.2500 0.0000  plane waves:     892
 k-point 20 :   0.3333 0.2500 0.0000  plane waves:     896
 k-point 21 :   0.4167 0.2500 0.0000  plane waves:     899
 k-point 22 :   0.5000 0.2500 0.0000  plane waves:     900
 k-point 23 :   0.3333 0.3333 0.0000  plane waves:     894
 k-point 24 :   0.4167 0.3333 0.0000  plane waves:     903
 k-point 25 :   0.5000 0.3333 0.0000  plane waves:     900
 k-point 26 :   0.4167 0.4167 0.0000  plane waves:     906
 k-point 27 :   0.5000 0.4167 0.0000  plane waves:     902
 k-point 28 :   0.5000 0.5000 0.0000  plane waves:     888
 k-point 29 :   0.0833 0.0833 0.0833  plane waves:     904
 k-point 30 :   0.1667 0.0833 0.0833  plane waves:     902
 k-point 31 :   0.2500 0.0833 0.0833  plane waves:     906
 k-point 32 :   0.3333 0.0833 0.0833  plane waves:     897
 k-point 33 :   0.4167 0.0833 0.0833  plane waves:     890
 k-point 34 :   0.5000 0.0833 0.0833  plane waves:     896
 k-point 35 :   0.1667 0.1667 0.0833  plane waves:     909
 k-point 36 :   0.2500 0.1667 0.0833  plane waves:     903
 k-point 37 :   0.3333 0.1667 0.0833  plane waves:     901
 k-point 38 :   0.4167 0.1667 0.0833  plane waves:     896
 k-point 39 :   0.5000 0.1667 0.0833  plane waves:     898
 k-point 40 :   0.2500 0.2500 0.0833  plane waves:     895
 k-point 41 :   0.3333 0.2500 0.0833  plane waves:     895
 k-point 42 :   0.4167 0.2500 0.0833  plane waves:     905
 k-point 43 :   0.5000 0.2500 0.0833  plane waves:     906
 k-point 44 :   0.3333 0.3333 0.0833  plane waves:     908
 k-point 45 :   0.4167 0.3333 0.0833  plane waves:     912
 k-point 46 :   0.5000 0.3333 0.0833  plane waves:     910
 k-point 47 :   0.4167 0.4167 0.0833  plane waves:     901
 k-point 48 :   0.5000 0.4167 0.0833  plane waves:     906
 k-point 49 :   0.5000 0.5000 0.0833  plane waves:     892
 k-point 50 :   0.1667 0.1667 0.1667  plane waves:     898
 k-point 51 :   0.2500 0.1667 0.1667  plane waves:     903
 k-point 52 :   0.3333 0.1667 0.1667  plane waves:     899
 k-point 53 :   0.4167 0.1667 0.1667  plane waves:     906
 k-point 54 :   0.5000 0.1667 0.1667  plane waves:     904
 k-point 55 :   0.2500 0.2500 0.1667  plane waves:     908
 k-point 56 :   0.3333 0.2500 0.1667  plane waves:     900
 k-point 57 :   0.4167 0.2500 0.1667  plane waves:     909
 k-point 58 :   0.5000 0.2500 0.1667  plane waves:     908
 k-point 59 :   0.3333 0.3333 0.1667  plane waves:     908
 k-point 60 :   0.4167 0.3333 0.1667  plane waves:     910
 k-point 61 :   0.5000 0.3333 0.1667  plane waves:     910
 k-point 62 :   0.4167 0.4167 0.1667  plane waves:     905
 k-point 63 :   0.5000 0.4167 0.1667  plane waves:     906
 k-point 64 :   0.5000 0.5000 0.1667  plane waves:     920
 k-point 65 :   0.2500 0.2500 0.2500  plane waves:     901
 k-point 66 :   0.3333 0.2500 0.2500  plane waves:     908
 k-point 67 :   0.4167 0.2500 0.2500  plane waves:     916
 k-point 68 :   0.5000 0.2500 0.2500  plane waves:     920
 k-point 69 :   0.3333 0.3333 0.2500  plane waves:     912
 k-point 70 :   0.4167 0.3333 0.2500  plane waves:     909
 k-point 71 :   0.5000 0.3333 0.2500  plane waves:     916
 k-point 72 :   0.4167 0.4167 0.2500  plane waves:     915
 k-point 73 :   0.5000 0.4167 0.2500  plane waves:     914
 k-point 74 :   0.5000 0.5000 0.2500  plane waves:     912
 k-point 75 :   0.3333 0.3333 0.3333  plane waves:     931
 k-point 76 :   0.4167 0.3333 0.3333  plane waves:     919
 k-point 77 :   0.5000 0.3333 0.3333  plane waves:     914
 k-point 78 :   0.4167 0.4167 0.3333  plane waves:     915
 k-point 79 :   0.5000 0.4167 0.3333  plane waves:     910
 k-point 80 :   0.5000 0.5000 0.3333  plane waves:     920
 k-point 81 :   0.4167 0.4167 0.4167  plane waves:     916
 k-point 82 :   0.5000 0.4167 0.4167  plane waves:     922
 k-point 83 :   0.5000 0.5000 0.4167  plane waves:     920
 k-point 84 :   0.5000 0.5000 0.5000  plane waves:     912

 maximum and minimum number of plane-waves per node :       239      206

 maximum number of plane-waves:       931
 maximum index in each direction: 
   IXMAX=    6   IYMAX=    6   IZMAX=    6
   IXMIN=   -6   IYMIN=   -6   IZMIN=   -6


 parallel 3D FFT for wavefunctions:
    minimum data exchange during FFTs selected (reduces bandwidth)
 parallel 3D FFT for charge:
    minimum data exchange during FFTs selected (reduces bandwidth)


 total amount of memory used by VASP MPI-rank0    34163. kBytes
=======================================================================

   base      :      30000. kBytes
   nonl-proj :       1298. kBytes
   fftplans  :        346. kBytes
   grid      :        481. kBytes
   one-center:          6. kBytes
   wavefun   :       2032. kBytes
 
     INWAV:  cpu time    0.0004: real time    0.0006
 Broyden mixing: mesh for mixing (old mesh)
   NGX = 13   NGY = 13   NGZ = 13
  (NGX  = 48   NGY  = 48   NGZ  = 48)
  gives a total of   2197 points

 initial charge density was supplied:
 charge density of overlapping atoms calculated
 number of electron      32.0000000 magnetization 
 keeping initial charge density in first step


--------------------------------------------------------------------------------------------------------


 Maximum index for augmentation-charges          261 (set IRDMAX)


--------------------------------------------------------------------------------------------------------


 First call to EWALD:  gamma=   0.482
 Maximum number of real-space cells 3x 3x 3
 Maximum number of reciprocal cells 3x 3x 3

    FEWALD:  cpu time    0.0055: real time    0.0055


--------------------------------------- Iteration      1(   1)  ---------------------------------------


    POTLOK:  cpu time    0.0308: real time    0.0432
    SETDIJ:  cpu time    0.0067: real time    0.0067
     EDDAV:  cpu time    4.5453: real time    4.5521
 BZINTS: Fermi energy: 17.265925; 32.000000 electrons
         Band energy: 101.288312;  BLOECHL correction: -0.173208
       DOS:  cpu time    0.1696: real time    0.1696
    --------------------------------------------
      LOOP:  cpu time    4.7525: real time    4.7717

 eigenvalue-minimisations  :  4040
 total energy-change (2. order) : 0.5773546E+02  (-0.1427496E+04)
 number of electron      32.0000000 magnetization 
 augmentation part       32.0000000 magnetization 

 Free energy of the ion-electron system (eV)
  ---------------------------------------------------
  alpha Z        PSCENC =       104.69236739
  Ewald energy   TEWEN  =     -1349.25637603
  -Hartree energ DENC   =       -78.88853582
  -exchange      EXHF   =         0.00000000
  -V(xc)+E(xc)   XCENC  =       112.08574301
  PAW double counting   =       302.65154477     -311.85538214
  entropy T*S    EENTRO =         0.00000000
  eigenvalues    EBANDS =       101.28831213
  atomic energy  EATOM  =      1177.01779097
  Solvation  Ediel_sol  =         0.00000000
  ---------------------------------------------------
  free energy    TOTEN  =        57.73546428 eV

  energy without entropy =       57.73546428  energy(sigma->0) =       57.73546428


--------------------------------------------------------------------------------------------------------




--------------------------------------- Iteration      1(   2)  ---------------------------------------


     EDDAV:  cpu time    5.6635: real time    5.6642
 BZINTS: Fermi energy:  8.019303; 32.000000 electrons
         Band energy: -26.208580;  BLOECHL correction:  0.000000
       DOS:  cpu time    0.0457: real time    0.0458
    --------------------------------------------
      LOOP:  cpu time    5.7093: real time    5.7100

 eigenvalue-minimisations  :  5616
 total energy-change (2. order) :-0.1274969E+03  (-0.1207684E+03)
 number of electron      32.0000000 magnetization 
 augmentation part       32.0000000 magnetization 

 Free energy of the ion-electron system (eV)
  ---------------------------------------------------
  alpha Z        PSCENC =       104.69236739
  Ewald energy   TEWEN  =     -1349.25637603
  -Hartree energ DENC   =       -78.88853582
  -exchange      EXHF   =         0.00000000
  -V(xc)+E(xc)   XCENC  =       112.08574301
  PAW double counting   =       302.65154477     -311.85538214
  entropy T*S    EENTRO =         0.00000000
  eigenvalues    EBANDS =       -26.20857967
  atomic energy  EATOM  =      1177.01779097
  Solvation  Ediel_sol  =         0.00000000
  ---------------------------------------------------
  free energy    TOTEN  =       -69.76142753 eV

  energy without entropy =      -69.76142753  energy(sigma->0) =      -69.76142753


--------------------------------------------------------------------------------------------------------




--------------------------------------- Iteration      1(   3)  ---------------------------------------


     EDDAV:  cpu time    5.3403: real time    5.3429
 BZINTS: Fermi energy:  7.234097; 32.000000 electrons
         Band energy: -30.561660;  BLOECHL correction:  0.000000
       DOS:  cpu time    0.0369: real time    0.0369
    --------------------------------------------
      LOOP:  cpu time    5.3772: real time    5.3797

 eigenvalue-minimisations  :  5224
 total energy-change (2. order) :-0.4353081E+01  (-0.4330309E+01)
 number of electron      32.0000000 magnetization 
 augmentation part       32.0000000 magnetization 

 Free energy of the ion-electron system (eV)
  ---------------------------------------------------
  alpha Z        PSCENC =       104.69236739
  Ewald energy   TEWEN  =     -1349.25637603
  -Hartree energ DENC   =       -78.88853582
  -exchange      EXHF   =         0.00000000
  -V(xc)+E(xc)   XCENC  =       112.08574301
  PAW double counting   =       302.65154477     -311.85538214
  entropy T*S    EENTRO =         0.00000000
  eigenvalues    EBANDS =       -30.56166032
  atomic energy  EATOM  =      1177.01779097
  Solvation  Ediel_sol  =         0.00000000
  ---------------------------------------------------
  free energy    TOTEN  =       -74.11450817 eV

  energy without entropy =      -74.11450817  energy(sigma->0) =      -74.11450817


--------------------------------------------------------------------------------------------------------




--------------------------------------- Iteration      1(   4)  ---------------------------------------


     EDDAV:  cpu time    5.3739: real time    5.3749
 BZINTS: Fermi energy:  7.171241; 32.000000 electrons
         Band energy: -30.609117;  BLOECHL correction:  0.000000
       DOS:  cpu time    0.0321: real time    0.0322
    --------------------------------------------
      LOOP:  cpu time    5.4061: real time    5.4071

 eigenvalue-minimisations  :  5184
 total energy-change (2. order) :-0.4745704E-01  (-0.4741263E-01)
 number of electron      32.0000000 magnetization 
 augmentation part       32.0000000 magnetization 

 Free energy of the ion-electron system (eV)
  ---------------------------------------------------
  alpha Z        PSCENC =       104.69236739
  Ewald energy   TEWEN  =     -1349.25637603
  -Hartree energ DENC   =       -78.88853582
  -exchange      EXHF   =         0.00000000
  -V(xc)+E(xc)   XCENC  =       112.08574301
  PAW double counting   =       302.65154477     -311.85538214
  entropy T*S    EENTRO =         0.00000000
  eigenvalues    EBANDS =       -30.60911736
  atomic energy  EATOM  =      1177.01779097
  Solvation  Ediel_sol  =         0.00000000
  ---------------------------------------------------
  free energy    TOTEN  =       -74.16196521 eV

  energy without entropy =      -74.16196521  energy(sigma->0) =      -74.16196521


--------------------------------------------------------------------------------------------------------




--------------------------------------- Iteration      1(   5)  ---------------------------------------


     EDDAV:  cpu time    5.4195: real time    5.4205
 BZINTS: Fermi energy:  7.239103; 32.000000 electrons
         Band energy: -30.610188;  BLOECHL correction:  0.000000
       DOS:  cpu time    0.0366: real time    0.0366
    CHARGE:  cpu time    0.1440: real time    0.1440
    MIXING:  cpu time    0.0016: real time    0.0016
    --------------------------------------------
      LOOP:  cpu time    5.6018: real time    5.6028

 eigenvalue-minimisations  :  5200
 total energy-change (2. order) :-0.1070935E-02  (-0.1070227E-02)
 number of electron      32.0000014 magnetization 
 augmentation part        0.7147701 magnetization 

 Broyden mixing:
  rms(total) = 0.84811E+00    rms(broyden)= 0.84802E+00
  rms(prec ) = 0.19589E+01
  weight for this iteration     100.00

 Free energy of the ion-electron system (eV)
  ---------------------------------------------------
  alpha Z        PSCENC =       104.69236739
  Ewald energy   TEWEN  =     -1349.25637603
  -Hartree energ DENC   =       -78.88853582
  -exchange      EXHF   =         0.00000000
  -V(xc)+E(xc)   XCENC  =       112.08574301
  PAW double counting   =       302.65154477     -311.85538214
  entropy T*S    EENTRO =         0.00000000
  eigenvalues    EBANDS =       -30.61018829
  atomic energy  EATOM  =      1177.01779097
  Solvation  Ediel_sol  =         0.00000000
  ---------------------------------------------------
  free energy    TOTEN  =       -74.16303614 eV

  energy without entropy =      -74.16303614  energy(sigma->0) =      -74.16303614


--------------------------------------------------------------------------------------------------------




--------------------------------------- Iteration      1(   6)  ---------------------------------------


    POTLOK:  cpu time    0.0200: real time    0.0204
    SETDIJ:  cpu time    0.0056: real time    0.0056
     EDDAV:  cpu time    5.0483: real time    5.0486
 BZINTS: Fermi energy:  7.802353; 32.000000 electrons
         Band energy: -16.222112;  BLOECHL correction:  0.000000
       DOS:  cpu time    0.0366: real time    0.0366
    CHARGE:  cpu time    0.1496: real time    0.1496
    MIXING:  cpu time    0.0020: real time    0.0020
    --------------------------------------------
      LOOP:  cpu time    5.2622: real time    5.2629

 eigenvalue-minimisations  :  4728
 total energy-change (2. order) : 0.1400705E+01  (-0.9481525E-01)
 number of electron      32.0000013 magnetization 
 augmentation part        0.6999308 magnetization 

 Broyden mixing:
  rms(total) = 0.47268E+00    rms(broyden)= 0.47268E+00
  rms(prec ) = 0.10728E+01
  weight for this iteration     100.00

 eigenvalues of (default mixing * dielectric matrix)
  average eigenvalue GAMMA=   2.2041
  2.2041

 Free energy of the ion-electron system (eV)
  ---------------------------------------------------
  alpha Z        PSCENC =       104.69236739
  Ewald energy   TEWEN  =     -1349.25637603
  -Hartree energ DENC   =       -92.73430930
  -exchange      EXHF   =         0.00000000
  -V(xc)+E(xc)   XCENC  =       113.36900844
  PAW double counting   =       377.48519080     -387.11389092
  entropy T*S    EENTRO =         0.00000000
  eigenvalues    EBANDS =       -16.22211243
  atomic energy  EATOM  =      1177.01779097
  Solvation  Ediel_sol  =         0.00000000
  ---------------------------------------------------
  free energy    TOTEN  =       -72.76233106 eV

  energy without entropy =      -72.76233106  energy(sigma->0) =      -72.76233106


--------------------------------------------------------------------------------------------------------




--------------------------------------- Iteration      1(   7)  ---------------------------------------


    POTLOK:  cpu time    0.0237: real time    0.0241
    SETDIJ:  cpu time    0.0058: real time    0.0058
     EDDAV:  cpu time    5.0927: real time    5.0930
 BZINTS: Fermi energy:  8.551643; 32.000000 electrons
         Band energy:   0.754291;  BLOECHL correction:  0.000000
       DOS:  cpu time    0.0414: real time    0.0414
    CHARGE:  cpu time    0.1383: real time    0.1383
    MIXING:  cpu time    0.0021: real time    0.0021
    --------------------------------------------
      LOOP:  cpu time    5.3040: real time    5.3048

 eigenvalue-minimisations  :  4824
 total energy-change (2. order) : 0.4745781E+00  (-0.1099867E+00)
 number of electron      32.0000013 magnetization 
 augmentation part        0.6840825 magnetization 

 Broyden mixing:
  rms(total) = 0.66523E-01    rms(broyden)= 0.66473E-01
  rms(prec ) = 0.11598E+00
  weight for this iteration     100.00

 eigenvalues of (default mixing * dielectric matrix)
  average eigenvalue GAMMA=   2.2636
  1.9966  2.5305

 Free energy of the ion-electron system (eV)
  ---------------------------------------------------
  alpha Z        PSCENC =       104.69236739
  Ewald energy   TEWEN  =     -1349.25637603
  -Hartree energ DENC   =      -110.51123263
  -exchange      EXHF   =         0.00000000
  -V(xc)+E(xc)   XCENC  =       115.04337664
  PAW double counting   =       477.86010503     -487.88807546
  entropy T*S    EENTRO =         0.00000000
  eigenvalues    EBANDS =         0.75429107
  atomic energy  EATOM  =      1177.01779097
  Solvation  Ediel_sol  =         0.00000000
  ---------------------------------------------------
  free energy    TOTEN  =       -72.28775300 eV

  energy without entropy =      -72.28775300  energy(sigma->0) =      -72.28775300


--------------------------------------------------------------------------------------------------------




--------------------------------------- Iteration      1(   8)  ---------------------------------------


    POTLOK:  cpu time    0.0209: real time    0.0213
    SETDIJ:  cpu time    0.0060: real time    0.0060
     EDDAV:  cpu time    5.4392: real time    5.4395
 BZINTS: Fermi energy:  8.459328; 32.000000 electrons
         Band energy:   0.989405;  BLOECHL correction:  0.000000
       DOS:  cpu time    0.0327: real time    0.0327
    CHARGE:  cpu time    0.1439: real time    0.1439
    MIXING:  cpu time    0.0021: real time    0.0021
    --------------------------------------------
      LOOP:  cpu time    5.6447: real time    5.6454

 eigenvalue-minimisations  :  5184
 total energy-change (2. order) :-0.6366196E-02  (-0.2271705E-02)
 number of electron      32.0000013 magnetization 
 augmentation part        0.6848580 magnetization 

 Broyden mixing:
  rms(total) = 0.74998E-02    rms(broyden)= 0.74869E-02
  rms(prec ) = 0.13107E-01
  weight for this iteration     100.00

 eigenvalues of (default mixing * dielectric matrix)
  average eigenvalue GAMMA=   2.1017
  1.4485  2.6715  2.1850

 Free energy of the ion-electron system (eV)
  ---------------------------------------------------
  alpha Z        PSCENC =       104.69236739
  Ewald energy   TEWEN  =     -1349.25637603
  -Hartree energ DENC   =      -110.91245424
  -exchange      EXHF   =         0.00000000
  -V(xc)+E(xc)   XCENC  =       115.08318028
  PAW double counting   =       483.30473370     -493.21276633
  entropy T*S    EENTRO =         0.00000000
  eigenvalues    EBANDS =         0.98940506
  atomic energy  EATOM  =      1177.01779097
  Solvation  Ediel_sol  =         0.00000000
  ---------------------------------------------------
  free energy    TOTEN  =       -72.29411920 eV

  energy without entropy =      -72.29411920  energy(sigma->0) =      -72.29411920


--------------------------------------------------------------------------------------------------------




--------------------------------------- Iteration      1(   9)  ---------------------------------------


    POTLOK:  cpu time    0.0245: real time    0.0252
    SETDIJ:  cpu time    0.0056: real time    0.0056
     EDDAV:  cpu time    5.2099: real time    5.2103
 BZINTS: Fermi energy:  8.454158; 32.000000 electrons
         Band energy:   0.885778;  BLOECHL correction:  0.000000
       DOS:  cpu time    0.0322: real time    0.0322
    CHARGE:  cpu time    0.1555: real time    0.1556
    MIXING:  cpu time    0.0027: real time    0.0027
    --------------------------------------------
      LOOP:  cpu time    5.4305: real time    5.4315

 eigenvalue-minimisations  :  4944
 total energy-change (2. order) :-0.2229620E-03  (-0.4353414E-04)
 number of electron      32.0000013 magnetization 
 augmentation part        0.6848054 magnetization 

 Broyden mixing:
  rms(total) = 0.26953E-02    rms(broyden)= 0.26946E-02
  rms(prec ) = 0.48839E-02
  weight for this iteration     100.00

 eigenvalues of (default mixing * dielectric matrix)
  average eigenvalue GAMMA=   2.0615
  0.9774  2.7941  2.4860  1.9884

 Free energy of the ion-electron system (eV)
  ---------------------------------------------------
  alpha Z        PSCENC =       104.69236739
  Ewald energy   TEWEN  =     -1349.25637603
  -Hartree energ DENC   =      -110.81242560
  -exchange      EXHF   =         0.00000000
  -V(xc)+E(xc)   XCENC  =       115.07351126
  PAW double counting   =       482.46879635     -492.36378489
  entropy T*S    EENTRO =         0.00000000
  eigenvalues    EBANDS =         0.88577838
  atomic energy  EATOM  =      1177.01779097
  Solvation  Ediel_sol  =         0.00000000
  ---------------------------------------------------
  free energy    TOTEN  =       -72.29434216 eV

  energy without entropy =      -72.29434216  energy(sigma->0) =      -72.29434216


--------------------------------------------------------------------------------------------------------




--------------------------------------- Iteration      1(  10)  ---------------------------------------


    POTLOK:  cpu time    0.0239: real time    0.0245
    SETDIJ:  cpu time    0.0062: real time    0.0062
     EDDAV:  cpu time    5.3127: real time    5.3130
 BZINTS: Fermi energy:  8.455410; 32.000000 electrons
         Band energy:   0.926654;  BLOECHL correction:  0.000000
       DOS:  cpu time    0.0326: real time    0.0326
    CHARGE:  cpu time    0.1376: real time    0.1376
    MIXING:  cpu time    0.0023: real time    0.0023
    --------------------------------------------
      LOOP:  cpu time    5.5153: real time    5.5161

 eigenvalue-minimisations  :  5056
 total energy-change (2. order) :-0.5694892E-04  (-0.5556902E-05)
 number of electron      32.0000013 magnetization 
 augmentation part        0.6847776 magnetization 

 Broyden mixing:
  rms(total) = 0.25843E-03    rms(broyden)= 0.25785E-03
  rms(prec ) = 0.60652E-03
  weight for this iteration     100.00

 eigenvalues of (default mixing * dielectric matrix)
  average eigenvalue GAMMA=   1.9730
  2.9526  2.5587  2.0688  0.9863  1.2986

 Free energy of the ion-electron system (eV)
  ---------------------------------------------------
  alpha Z        PSCENC =       104.69236739
  Ewald energy   TEWEN  =     -1349.25637603
  -Hartree energ DENC   =      -110.85545506
  -exchange      EXHF   =         0.00000000
  -V(xc)+E(xc)   XCENC  =       115.07726394
  PAW double counting   =       482.03886545     -491.93550963
  entropy T*S    EENTRO =         0.00000000
  eigenvalues    EBANDS =         0.92665385
  atomic energy  EATOM  =      1177.01779097
  Solvation  Ediel_sol  =         0.00000000
  ---------------------------------------------------
  free energy    TOTEN  =       -72.29439911 eV

  energy without entropy =      -72.29439911  energy(sigma->0) =      -72.29439911


--------------------------------------------------------------------------------------------------------




--------------------------------------- Iteration      1(  11)  ---------------------------------------


    POTLOK:  cpu time    0.0248: real time    0.0253
    SETDIJ:  cpu time    0.0059: real time    0.0059
     EDDAV:  cpu time    4.4716: real time    4.4719
 BZINTS: Fermi energy:  8.455714; 32.000000 electrons
         Band energy:   0.939181;  BLOECHL correction:  0.000000
       DOS:  cpu time    0.0319: real time    0.0319
    --------------------------------------------
      LOOP:  cpu time    4.5341: real time    4.5349

 eigenvalue-minimisations  :  3832
 total energy-change (2. order) :-0.3846635E-06  (-0.1142866E-06)
 number of electron      32.0000013 magnetization 
 augmentation part        0.6847776 magnetization 

 Free energy of the ion-electron system (eV)
  ---------------------------------------------------
  alpha Z        PSCENC =       104.69236739
  Ewald energy   TEWEN  =     -1349.25637603
  -Hartree energ DENC   =      -110.86856211
  -exchange      EXHF   =         0.00000000
  -V(xc)+E(xc)   XCENC  =       115.07849113
  PAW double counting   =       482.07704046     -491.97433203
  entropy T*S    EENTRO =         0.00000000
  eigenvalues    EBANDS =         0.93918071
  atomic energy  EATOM  =      1177.01779097
  Solvation  Ediel_sol  =         0.00000000
  ---------------------------------------------------
  free energy    TOTEN  =       -72.29439950 eV

  energy without entropy =      -72.29439950  energy(sigma->0) =      -72.29439950


--------------------------------------------------------------------------------------------------------




 average (electrostatic) potential at core
  the test charge radii are     0.6991
  (the norm of the test charge is              1.0000)
       1 -46.7084       2 -46.7084       3 -46.7084       4 -46.7084       5 -46.7084
       6 -46.7084       7 -46.7084       8 -46.7084
 
 
 
 E-fermi :   8.4557     XC(G=0): -12.7616     alpha+bet :-16.1236


 k-point     1 :       0.0000    0.0000    0.0000
  band No.  band energies     occupation 
      1     -11.8151      2.00000
      2      -3.6848      2.00000
      3      -3.6848      2.00000
      4      -3.6848      2.00000
      5      -3.6848      2.00000
      6      -3.6848      2.00000
      7      -3.6848      2.00000
      8       2.7007      2.00000
      9       2.7007      2.00000
     10       2.7007      2.00000
     11       2.7007      2.00000
     12       2.7007      2.00000
     13       2.7007      2.00000
     14       8.4467      2.00000
     15       8.4467      2.00000
     16       8.4467      2.00000
     17      13.0143      0.00000
     18      13.0143      0.00000
     19      13.0143      0.00000
     20      13.0143      0.00000
     21      13.0143      0.00000
     22      13.0143      0.00000
     23      13.7901      0.00000
     24      13.7901      0.00000

 k-point     2 :       0.0833    0.0000    0.0000
  band No.  band energies     occupation 
      1     -11.7550      2.00000
      2      -4.8949      2.00000
      3      -3.6498      2.00000
      4      -3.6498      2.00000
      5      -3.6498      2.00000
      6      -3.6498      2.00000
      7      -2.4190      2.00000
      8       2.5727      2.00000
      9       2.5727      2.00000
     10       2.5727      2.00000
     11       2.5727      2.00000
     12       2.7586      2.00000
     13       2.7586      2.00000
     14       8.2274      2.00000
     15       8.2274      2.00000
     16       8.2973      2.00000
     17      12.6815      0.00000
     18      13.2589      0.00000
     19      13.2589      0.00000
     20      13.2589      0.00000
     21      13.2589      0.00000
     22      13.4881      0.00000
     23      13.7400      0.00000
     24      14.0759      0.00000

 k-point     3 :       0.1667    0.0000    0.0000
  band No.  band energies     occupation 
      1     -11.5749      2.00000
      2      -6.0343      2.00000
      3      -3.5494      2.00000
      4      -3.5494      2.00000
      5      -3.5494      2.00000
      6      -3.5494      2.00000
      7      -1.1154      2.00000
      8       2.2328      2.00000
      9       2.2328      2.00000
     10       2.2328      2.00000
     11       2.2328      2.00000
     12       2.9315      2.00000
     13       2.9315      2.00000
     14       7.6468      2.00000
     15       7.6468      2.00000
     16       7.8416      2.00000
     17      12.4776      0.00000
     18      13.6098      0.00000
     19      13.9478      0.00000
     20      13.9478      0.00000
     21      13.9478      0.00000
     22      13.9478      0.00000
     23      14.1128      0.00000
     24      14.8149      0.00000

 k-point     4 :       0.2500    0.0000    0.0000
  band No.  band energies     occupation 
      1     -11.2755      2.00000
      2      -7.0909      2.00000
      3      -3.3994      2.00000
      4      -3.3994      2.00000
      5      -3.3994      2.00000
      6      -3.3994      2.00000
      7       0.2042      2.00000
      8       1.7847      2.00000
      9       1.7847      2.00000
     10       1.7847      2.00000
     11       1.7847      2.00000
     12       3.2191      2.00000
     13       3.2191      2.00000
     14       6.9053      2.00000
     15       6.9053      2.00000
     16       7.1284      2.00000
     17      12.3872      0.00000
     18      13.3975      0.00000
     19      14.8947      0.00000
     20      14.9777      0.00000
     21      14.9777      0.00000
     22      14.9777      0.00000
     23      14.9777      0.00000
     24      15.7988      0.00000

 k-point     5 :       0.3333    0.0000    0.0000
  band No.  band energies     occupation 
      1     -10.8580      2.00000
      2      -8.0549      2.00000
      3      -3.2301      2.00000
      4      -3.2301      2.00000
      5      -3.2301      2.00000
      6      -3.2301      2.00000
      7       1.3478      2.00000
      8       1.3478      2.00000
      9       1.3478      2.00000
     10       1.3478      2.00000
     11       1.5196      2.00000
     12       3.6151      2.00000
     13       3.6151      2.00000
     14       6.1309      2.00000
     15       6.1309      2.00000
     16       6.2262      2.00000
     17      12.4013      0.00000
     18      13.1503      0.00000
     19      15.8334      0.00000
     20      16.2397      0.00000
     21      16.2397      0.00000
     22      16.2397      0.00000
     23      16.2397      0.00000
     24      16.9070      0.00000

 k-point     6 :       0.4167    0.0000    0.0000
  band No.  band energies     occupation 
      1     -10.3242      2.00000
      2      -8.9187      2.00000
      3      -3.0901      2.00000
      4      -3.0901      2.00000
      5      -3.0901      2.00000
      6      -3.0901      2.00000
      7       1.0243      2.00000
      8       1.0243      2.00000
      9       1.0243      2.00000
     10       1.0243      2.00000
     11       2.8030      2.00000
     12       4.1152      2.00000
     13       4.1152      2.00000
     14       5.1824      2.00000
     15       5.3923      2.00000
     16       5.3923      2.00000
     17      12.5036      0.00000
     18      12.8947      0.00000
     19      16.8935      0.00000
     20      17.6149      0.00000
     21      17.6149      0.00000
     22      17.6149      0.00000
     23      17.6157      0.00000
     24      18.0697      0.00000

 k-point     7 :       0.5000    0.0000    0.0000
  band No.  band energies     occupation 
      1      -9.6766      2.00000
      2      -9.6766      2.00000
      3      -3.0345      2.00000
      4      -3.0345      2.00000
      5      -3.0345      2.00000
      6      -3.0345      2.00000
      7       0.9038      2.00000
      8       0.9038      2.00000
      9       0.9038      2.00000
     10       0.9038      2.00000
     11       4.0321      2.00000
     12       4.0321      2.00000
     13       4.7118      2.00000
     14       4.7118      2.00000
     15       4.7118      2.00000
     16       4.7118      2.00000
     17      12.6771      0.00000
     18      12.6771      0.00000
     19      18.0103      0.00000
     20      18.0103      0.00000
     21      18.6667      0.00000
     22      18.6667      0.00000
     23      18.6668      0.00000
     24      18.6673      0.00000

 k-point     8 :       0.0833    0.0833    0.0000
  band No.  band energies     occupation 
      1     -11.6949      2.00000
      2      -4.8515      2.00000
      3      -4.8515      2.00000
      4      -3.6584      2.00000
      5      -3.5751      2.00000
      6      -2.3973      2.00000
      7      -2.3973      2.00000
      8       2.1329      2.00000
      9       2.6171      2.00000
     10       2.6171      2.00000
     11       2.6484      2.00000
     12       2.6484      2.00000
     13       2.7992      2.00000
     14       7.7977      2.00000
     15       8.0024      2.00000
     16       8.3921      2.00000
     17      12.9324      0.00000
     18      12.9324      0.00000
     19      13.1129      0.00000
     20      13.7244      0.00000
     21      13.7244      0.00000
     22      13.8540      0.00000
     23      13.9131      0.00000
     24      14.1421      0.00000

 k-point     9 :       0.1667    0.0833    0.0000
  band No.  band energies     occupation 
      1     -11.5150      2.00000
      2      -5.9856      2.00000
      3      -4.7241      2.00000
      4      -3.6160      2.00000
      5      -3.4309      2.00000
      6      -2.3402      2.00000
      7      -1.1161      2.00000
      8       1.5809      2.00000
      9       2.2397      2.00000
     10       2.3634      2.00000
     11       2.7690      2.00000
     12       2.7798      2.00000
     13       2.8486      2.00000
     14       7.1068      2.00000
     15       7.4347      2.00000
     16       8.1326      2.00000
     17      12.7319      0.00000
     18      13.4523      0.00000
     19      13.6368      0.00000
     20      13.8449      0.00000
     21      14.3388      0.00000
     22      14.3925      0.00000
     23      14.8015      0.00000
     24      14.8023      0.00000

 k-point    10 :       0.2500    0.0833    0.0000
  band No.  band energies     occupation 
      1     -11.2158      2.00000
      2      -7.0385      2.00000
      3      -4.5222      2.00000
      4      -3.5526      2.00000
      5      -3.2226      2.00000
      6      -2.2731      2.00000
      7       0.1659      2.00000
      8       1.0384      2.00000
      9       1.7318      2.00000
     10       2.0063      2.00000
     11       2.5302      2.00000
     12       3.0582      2.00000
     13       3.1777      2.00000
     14       6.3032      2.00000
     15       6.7063      2.00000
     16       7.5601      2.00000
     17      12.6461      0.00000
     18      13.6445      0.00000
     19      14.2257      0.00000
     20      14.6867      0.00000
     21      15.1081      0.00000
     22      15.3950      0.00000
     23      15.7774      0.00000
     24      15.7881      0.00000

 k-point    11 :       0.3333    0.0833    0.0000
  band No.  band energies     occupation 
      1     -10.7987      2.00000
      2      -8.0000      2.00000
      3      -4.2649      2.00000
      4      -3.5172      2.00000
      5      -2.9670      2.00000
      6      -2.2400      2.00000
      7       0.6168      2.00000
      8       1.2049      2.00000
      9       1.4156      2.00000
     10       1.7001      2.00000
     11       2.1827      2.00000
     12       3.4471      2.00000
     13       3.6421      2.00000
     14       5.4537      2.00000
     15       5.9404      2.00000
     16       6.7845      2.00000
     17      12.6622      0.00000
     18      13.4030      0.00000
     19      15.3213      0.00000
     20      15.9665      0.00000
     21      16.0334      0.00000
     22      16.6180      0.00000
     23      16.8060      0.00000
     24      16.8882      0.00000

 k-point    12 :       0.4167    0.0833    0.0000
  band No.  band energies     occupation 
      1     -10.2656      2.00000
      2      -8.8621      2.00000
      3      -3.9848      2.00000
      4      -3.5677      2.00000
      5      -2.6946      2.00000
      6      -2.2915      2.00000
      7       0.4095      2.00000
      8       0.7554      2.00000
      9       1.5509      2.00000
     10       1.8430      2.00000
     11       2.5841      2.00000
     12       3.9408      2.00000
     13       4.2573      2.00000
     14       4.5741      2.00000
     15       5.2033      2.00000
     16       5.9031      2.00000
     17      12.7650      0.00000
     18      13.1535      0.00000
     19      16.6171      0.00000
     20      17.0758      0.00000
     21      17.3804      0.00000
     22      17.8890      0.00000
     23      17.8978      0.00000
     24      18.0576      0.00000

 k-point    13 :       0.5000    0.0833    0.0000
  band No.  band energies     occupation 
      1      -9.6189      2.00000
      2      -9.6189      2.00000
      3      -3.7331      2.00000
      4      -3.7331      2.00000
      5      -2.4519      2.00000
      6      -2.4519      2.00000
      7       0.4643      2.00000
      8       0.4643      2.00000
      9       1.6068      2.00000
     10       1.6068      2.00000
     11       3.6345      2.00000
     12       3.6345      2.00000
     13       4.5295      2.00000
     14       4.5295      2.00000
     15       5.0261      2.00000
     16       5.0261      2.00000
     17      12.9353      0.00000
     18      12.9353      0.00000
     19      17.9311      0.00000
     20      17.9311      0.00000
     21      18.1571      0.00000
     22      18.1571      0.00000
     23      18.7907      0.00000
     24      18.7919      0.00000

 k-point    14 :       0.1667    0.1667    0.0000
  band No.  band energies     occupation 
      1     -11.3355      2.00000
      2      -5.8409      2.00000
      3      -5.8409      2.00000
      4      -3.6602      2.00000
      5      -3.2467      2.00000
      6      -1.1296      2.00000
      7      -1.1296      2.00000
      8       0.9335      2.00000
      9       2.3743      2.00000
     10       2.3743      2.00000
     11       2.6441      2.00000
     12       2.6441      2.00000
     13       3.0884      2.00000
     14       6.3430      2.00000
     15       6.8904      2.00000
     16       8.1636      2.00000
     17      13.4049      0.00000
     18      13.4473      0.00000
     19      13.4473      0.00000
     20      14.2738      0.00000
     21      14.9561      0.00000
     22      14.9805      0.00000
     23      14.9805      0.00000
     24      15.2489      0.00000

 k-point    15 :       0.2500    0.1667    0.0000
  band No.  band energies     occupation 
      1     -11.0372      2.00000
      2      -6.8825      2.00000
      3      -5.6063      2.00000
      4      -3.7312      2.00000
      5      -2.9943      2.00000
      6      -1.1915      2.00000
      7       0.0392      2.00000
      8       0.4072      2.00000
      9       1.8259      2.00000
     10       2.4211      2.00000
     11       2.6308      2.00000
     12       3.0952      2.00000
     13       3.1527      2.00000
     14       5.5132      2.00000
     15       6.1851      2.00000
     16       7.8276      2.00000
     17      13.3667      0.00000
     18      13.8317      0.00000
     19      14.2689      0.00000
     20      14.5055      0.00000
     21      15.7187      0.00000
     22      15.7570      0.00000
     23      15.8246      0.00000
     24      15.9462      0.00000

 k-point    16 :       0.3333    0.1667    0.0000
  band No.  band energies     occupation 
      1     -10.6214      2.00000
      2      -7.8362      2.00000
      3      -5.2933      2.00000
      4      -3.8887      2.00000
      5      -2.6803      2.00000
      6      -1.3446      2.00000
      7       0.1006      2.00000
      8       1.1188      2.00000
      9       1.2417      2.00000
     10       2.2939      2.00000
     11       3.0010      2.00000
     12       3.0064      2.00000
     13       3.7307      2.00000
     14       4.6663      2.00000
     15       5.4394      2.00000
     16       7.2001      2.00000
     17      13.3836      0.00000
     18      14.0751      0.00000
     19      14.6726      0.00000
     20      15.7939      0.00000
     21      16.5954      0.00000
     22      16.5988      0.00000
     23      16.8515      0.00000
     24      17.1116      0.00000

 k-point    17 :       0.4167    0.1667    0.0000
  band No.  band energies     occupation 
      1     -10.0901      2.00000
      2      -8.6930      2.00000
      3      -4.9226      2.00000
      4      -4.1639      2.00000
      5      -2.3219      2.00000
      6      -1.6064      2.00000
      7       0.0684      2.00000
      8       0.7069      2.00000
      9       2.0890      2.00000
     10       2.3225      2.00000
     11       2.7530      2.00000
     12       3.4811      2.00000
     13       3.8212      2.00000
     14       4.5406      2.00000
     15       4.7168      2.00000
     16       6.3754      2.00000
     17      13.4811      0.00000
     18      13.8488      0.00000
     19      15.8092      0.00000
     20      17.2103      0.00000
     21      17.4914      0.00000
     22      17.5967      0.00000
     23      18.0300      0.00000
     24      18.0474      0.00000

 k-point    18 :       0.5000    0.1667    0.0000
  band No.  band energies     occupation 
      1      -9.4460      2.00000
      2      -9.4460      2.00000
      3      -4.5286      2.00000
      4      -4.5286      2.00000
      5      -1.9492      2.00000
      6      -1.9492      2.00000
      7       0.2914      2.00000
      8       0.2914      2.00000
      9       2.4952      2.00000
     10       2.4952      2.00000
     11       2.9731      2.00000
[...]

 k-point    72 :       0.4167    0.4167    0.2500
  band No.  band energies     occupation 
      1      -8.3868      2.00000
      2      -7.1173      2.00000
      3      -7.1173      2.00000
      4      -6.1425      2.00000
      5      -3.1962      2.00000
      6      -2.2493      2.00000
      7      -2.2493      2.00000
      8      -1.0141      2.00000
      9       3.3553      2.00000
     10       4.0814      2.00000
     11       4.0814      2.00000
     12       5.1338      2.00000
     13       5.1779      2.00000
     14       5.3345      2.00000
     15       5.3345      2.00000
     16       6.3222      2.00000
     17      15.5611      0.00000
     18      16.1095      0.00000
     19      16.1095      0.00000
     20      16.3237      0.00000
     21      16.4318      0.00000
     22      16.8198      0.00000
     23      16.8198      0.00000
     24      16.9113      0.00000

 k-point    73 :       0.5000    0.4167    0.2500
  band No.  band energies     occupation 
      1      -7.7912      2.00000
      2      -7.7912      2.00000
      3      -6.6208      2.00000
      4      -6.6208      2.00000
      5      -2.8290      2.00000
      6      -2.8290      2.00000
      7      -1.6920      2.00000
      8      -1.6920      2.00000
      9       3.7379      2.00000
     10       3.7379      2.00000
     11       4.6371      2.00000
     12       4.6371      2.00000
     13       5.3749      2.00000
     14       5.3749      2.00000
     15       5.9425      2.00000
     16       5.9425      2.00000
     17      16.0381      0.00000
     18      16.0381      0.00000
     19      16.3663      0.00000
     20      16.3663      0.00000
     21      16.4595      0.00000
     22      16.4595      0.00000
     23      17.1534      0.00000
     24      17.1550      0.00000

 k-point    74 :       0.5000    0.5000    0.2500
  band No.  band energies     occupation 
      1      -7.2300      2.00000
      2      -7.2300      2.00000
      3      -7.2300      2.00000
      4      -7.2300      2.00000
      5      -2.3355      2.00000
      6      -2.3355      2.00000
      7      -2.3355      2.00000
      8      -2.3355      2.00000
      9       4.2060      2.00000
     10       4.2060      2.00000
     11       4.2060      2.00000
     12       4.2060      2.00000
     13       5.7956      2.00000
     14       5.7956      2.00000
     15       5.7956      2.00000
     16       5.7956      2.00000
     17      16.1176      0.00000
     18      16.1176      0.00000
     19      16.1176      0.00000
     20      16.1176      0.00000
     21      17.1374      0.00000
     22      17.1374      0.00000
     23      17.1376      0.00000
     24      17.1391      0.00000

 k-point    75 :       0.3333    0.3333    0.3333
  band No.  band energies     occupation 
      1      -9.0026      2.00000
      2      -6.5046      2.00000
      3      -6.5046      2.00000
      4      -6.5046      2.00000
      5      -2.7545      2.00000
      6      -2.7545      2.00000
      7      -2.7545      2.00000
      8      -0.3180      2.00000
      9       3.7965      2.00000
     10       3.7965      2.00000
     11       3.7965      2.00000
     12       4.8345      2.00000
     13       4.8345      2.00000
     14       4.8345      2.00000
     15       6.3347      2.00000
     16       6.3347      2.00000
     17      15.1712      0.00000
     18      15.1712      0.00000
     19      15.1712      0.00000
     20      15.9531      0.00000
     21      16.3053      0.00000
     22      16.3053      0.00000
     23      18.5204      0.00000
     24      18.5221      0.00000

 k-point    76 :       0.4167    0.3333    0.3333
  band No.  band energies     occupation 
      1      -8.5007      2.00000
      2      -7.2262      2.00000
      3      -6.2442      2.00000
      4      -6.2442      2.00000
      5      -3.3046      2.00000
      6      -3.3046      2.00000
      7      -2.3485      2.00000
      8      -1.1046      2.00000
      9       3.9995      2.00000
     10       3.9995      2.00000
     11       4.8340      2.00000
     12       5.0381      2.00000
     13       5.0381      2.00000
     14       5.1731      2.00000
     15       5.9472      2.00000
     16       6.2021      2.00000
     17      15.4765      0.00000
     18      15.6717      0.00000
     19      15.6717      0.00000
     20      15.9998      0.00000
     21      16.2984      0.00000
     22      16.7229      0.00000
     23      17.4868      0.00000
     24      17.5107      0.00000

 k-point    77 :       0.5000    0.3333    0.3333
  band No.  band energies     occupation 
      1      -7.9029      2.00000
      2      -7.9029      2.00000
      3      -6.1274      2.00000
      4      -6.1274      2.00000
      5      -3.5192      2.00000
      6      -3.5192      2.00000
      7      -1.7881      2.00000
      8      -1.7881      2.00000
      9       4.0695      2.00000
     10       4.0695      2.00000
     11       5.1043      2.00000
     12       5.1043      2.00000
     13       5.5504      2.00000
     14       5.5504      2.00000
     15       5.6734      2.00000
     16       5.6734      2.00000
     17      15.7735      0.00000
     18      15.7735      0.00000
     19      16.3276      0.00000
     20      16.3276      0.00000
     21      16.6441      0.00000
     22      16.6441      0.00000
     23      16.8152      0.00000
     24      16.8154      0.00000

 k-point    78 :       0.4167    0.4167    0.3333
  band No.  band energies     occupation 
      1      -8.0166      2.00000
      2      -6.8358      2.00000
      3      -6.8358      2.00000
      4      -6.2342      2.00000
      5      -3.6204      2.00000
      6      -3.0316      2.00000
      7      -3.0316      2.00000
      8      -1.8783      2.00000
      9       4.4012      2.00000
     10       4.8394      2.00000
     11       4.8394      2.00000
     12       5.3640      2.00000
     13       5.4267      2.00000
     14       5.4267      2.00000
     15       5.7454      2.00000
     16       6.1803      2.00000
     17      15.7964      0.00000
     18      15.9474      0.00000
     19      15.9474      0.00000
     20      16.1493      0.00000
     21      16.4046      0.00000
     22      16.6134      0.00000
     23      16.8975      0.00000
     24      16.8975      0.00000

 k-point    79 :       0.5000    0.4167    0.3333
  band No.  band energies     occupation 
      1      -7.4506      2.00000
      2      -7.4506      2.00000
      3      -6.4617      2.00000
      4      -6.4617      2.00000
      5      -3.4998      2.00000
      6      -3.4998      2.00000
      7      -2.5327      2.00000
      8      -2.5327      2.00000
      9       4.6711      2.00000
     10       4.6711      2.00000
     11       5.3756      2.00000
     12       5.3756      2.00000
     13       5.5163      2.00000
     14       5.5163      2.00000
     15       5.8962      2.00000
     16       5.8962      2.00000
     17      16.1872      0.00000
     18      16.1872      0.00000
     19      16.2222      0.00000
     20      16.2222      0.00000
     21      16.4792      0.00000
     22      16.4792      0.00000
     23      16.6898      0.00000
     24      16.6900      0.00000

 k-point    80 :       0.5000    0.5000    0.3333
  band No.  band energies     occupation 
      1      -6.9467      2.00000
      2      -6.9467      2.00000
      3      -6.9467      2.00000
      4      -6.9467      2.00000
      5      -3.1280      2.00000
      6      -3.1280      2.00000
      7      -3.1280      2.00000
      8      -3.1280      2.00000
      9       5.0743      2.00000
     10       5.0743      2.00000
     11       5.0743      2.00000
     12       5.0743      2.00000
     13       5.8402      2.00000
     14       5.8402      2.00000
     15       5.8402      2.00000
     16       5.8402      2.00000
     17      16.2229      0.00000
     18      16.2229      0.00000
     19      16.2229      0.00000
     20      16.2230      0.00000
     21      16.8242      0.00000
     22      16.8252      0.00000
     23      16.8447      0.00000
     24      16.8605      0.00000

 k-point    81 :       0.4167    0.4167    0.4167
  band No.  band energies     occupation 
      1      -7.5624      2.00000
      2      -6.5689      2.00000
      3      -6.5689      2.00000
      4      -6.5689      2.00000
      5      -3.6043      2.00000
      6      -3.6043      2.00000
      7      -3.6043      2.00000
      8      -2.6304      2.00000
      9       5.2623      2.00000
     10       5.2623      2.00000
     11       5.2623      2.00000
     12       5.5742      2.00000
     13       5.5742      2.00000
     14       5.5742      2.00000
     15       6.0014      2.00000
     16       6.0014      2.00000
     17      16.0268      0.00000
     18      16.0268      0.00000
     19      16.0268      0.00000
     20      16.0421      0.00000
     21      16.4982      0.00000
     22      16.4983      0.00000
     23      16.8766      0.00000
     24      16.8768      0.00000

 k-point    82 :       0.5000    0.4167    0.4167
  band No.  band energies     occupation 
      1      -7.0561      2.00000
      2      -7.0561      2.00000
      3      -6.4487      2.00000
      4      -6.4487      2.00000
      5      -3.8274      2.00000
      6      -3.8274      2.00000
      7      -3.2307      2.00000
      8      -3.2307      2.00000
      9       5.3508      2.00000
     10       5.3508      2.00000
     11       5.6883      2.00000
     12       5.6883      2.00000
     13       5.7932      2.00000
     14       5.7932      2.00000
     15       5.8280      2.00000
     16       5.8280      2.00000
     17      16.1386      0.00000
     18      16.1386      0.00000
     19      16.3193      0.00000
     20      16.3195      0.00000
     21      16.4382      0.00000
     22      16.4385      0.00000
     23      16.4537      0.00000
     24      16.4563      0.00000

 k-point    83 :       0.5000    0.5000    0.4167
  band No.  band energies     occupation 
      1      -6.6776      2.00000
      2      -6.6776      2.00000
      3      -6.6776      2.00000
      4      -6.6776      2.00000
      5      -3.7074      2.00000
      6      -3.7074      2.00000
      7      -3.7074      2.00000
      8      -3.7074      2.00000
      9       5.6707      2.00000
     10       5.6707      2.00000
     11       5.6707      2.00000
     12       5.6707      2.00000
     13       5.8745      2.00000
     14       5.8745      2.00000
     15       5.8745      2.00000
     16       5.8745      2.00000
     17      16.1781      0.00000
     18      16.1781      0.00000
     19      16.1781      0.00000
     20      16.1781      0.00000
     21      16.5588      0.00000
     22      16.5592      0.00000
     23      16.5597      0.00000
     24      16.5711      0.00000

 k-point    84 :       0.5000    0.5000    0.5000
  band No.  band energies     occupation 
      1      -6.5562      2.00000
      2      -6.5562      2.00000
      3      -6.5562      2.00000
      4      -6.5562      2.00000
      5      -3.9330      2.00000
      6      -3.9330      2.00000
      7      -3.9330      2.00000
      8      -3.9330      2.00000
      9       5.8873      2.00000
     10       5.8873      2.00000
     11       5.8873      2.00000
     12       5.8873      2.00000
     13       5.8873      2.00000
     14       5.8873      2.00000
     15       5.8873      2.00000
     16       5.8873      2.00000
     17      16.0667      0.00000
     18      16.0667      0.00000
     19      16.0667      0.00000
     20      16.0667      0.00000
     21      16.5333      0.00000
     22      16.5333      0.00000
     23      16.5333      0.00000
     24      16.5333      0.00000


--------------------------------------------------------------------------------------------------------


 soft charge-density along one line, spin component           1
         0         1         2         3         4         5         6         7         8         9
 total charge-density along one line
 
 pseudopotential strength for first ion, spin component:           1
  9.511  -0.003   0.000   0.000   0.000  -0.000  -0.000  -0.000
 -0.003  -0.002  -0.000  -0.000  -0.000  -0.000  -0.000  -0.000
  0.000  -0.000  -3.734  -0.000  -0.000  -0.006  -0.000  -0.000
  0.000  -0.000  -0.000  -3.734   0.000  -0.000  -0.006   0.000
  0.000  -0.000  -0.000   0.000  -3.734  -0.000   0.000  -0.006
 -0.000  -0.000  -0.006  -0.000  -0.000  -0.759  -0.000  -0.000
 -0.000  -0.000  -0.000  -0.006   0.000  -0.000  -0.759   0.000
 -0.000  -0.000  -0.000   0.000  -0.006  -0.000   0.000  -0.759
 total augmentation occupancy for first ion, spin component:           1
  1.417  -0.909  -0.000   0.000   0.000  -0.000  -0.000   0.000
 -0.909   0.848  -0.000   0.000  -0.000  -0.000  -0.000  -0.000
 -0.000  -0.000   1.048  -0.000  -0.000   0.168   0.000   0.000
  0.000  -0.000  -0.000   1.048   0.000   0.000   0.168   0.000
 -0.000  -0.000  -0.000   0.000   1.048   0.000   0.000   0.168
 -0.000  -0.000   0.168   0.000  -0.000   0.032   0.000   0.000
  0.000   0.000   0.000   0.168   0.000  -0.000   0.032  -0.000
  0.000   0.000   0.000  -0.000   0.168   0.000  -0.000   0.032


------------------------ aborting loop because EDIFF is reached ----------------------------------------


    CHARGE:  cpu time    0.1513: real time    0.1513
    FORLOC:  cpu time    0.0020: real time    0.0020
    FORNL :  cpu time    0.2185: real time    0.2185
    STRESS:  cpu time    0.5372: real time    0.5374
    FORHAR:  cpu time    0.0075: real time    0.0075
    MIXING:  cpu time    0.0022: real time    0.0022
    OFIELD:  cpu time    0.0001: real time    0.0001

  FORCE on cell =-STRESS in cart. coord.  units (eV):
  Direction    XX          YY          ZZ          XY          YZ          ZX
  --------------------------------------------------------------------------------------
  Alpha Z   104.69237   104.69237   104.69237
  Ewald    -449.75289  -449.75289  -449.75289    -0.00000     0.00000    -0.00000
  Hartree    36.95535    36.95535    36.95535    -0.00000    -0.00000    -0.00000
  E(xc)    -117.22065  -117.22065  -117.22065     0.00000    -0.00000     0.00000
  Local     -53.12217   -53.12217   -53.12217    -0.00000     0.00000     0.00000
  n-local   -24.19479   -25.02624   -24.09658     0.70282     0.88147     0.42412
  augment    -2.50025    -2.50025    -2.50025     0.00000     0.00000     0.00000
  Kinetic   483.88890   499.22492   499.09962    -4.63522    -6.48877    -3.23556
  Fock        0.00000     0.00000     0.00000     0.00000     0.00000     0.00000
  -------------------------------------------------------------------------------------
  Total     -11.31631   -11.31631   -11.31631     0.00000    -0.00000     0.00000
  in kB    -363.99765  -363.99765  -363.99765     0.00000    -0.00000     0.00000
  external pressure =     -364.00 kB  Pullay stress =        0.00 kB


 VOLUME and BASIS-vectors are now :
 -----------------------------------------------------------------------------
  energy-cutoff  :      400.00
  volume of cell :       49.81
      direct lattice vectors                 reciprocal lattice vectors
     3.679360000  0.000000000  0.000000000     0.271786398  0.000000000  0.000000000
     0.000000000  3.679360000  0.000000000     0.000000000  0.271786398  0.000000000
     0.000000000  0.000000000  3.679360000     0.000000000  0.000000000  0.271786398

  length of vectors
     3.679360000  3.679360000  3.679360000     0.271786398  0.271786398  0.271786398


 FORCES acting on ions
    electron-ion (+dipol)            ewald-force                    non-local-force                 convergence-correction
 -----------------------------------------------------------------------------------------------
   0.000E+00 -.145E-12 0.141E-13   -.142E-13 -.711E-14 0.000E+00   0.172E-16 -.194E-16 0.102E-16   0.312E-14 0.300E-14 -.674E-14
   0.000E+00 -.869E-15 0.307E-13   0.406E-15 -.701E-14 0.712E-14   0.137E-16 -.544E-17 -.105E-16   -.126E-14 0.498E-14 0.252E-14
   0.000E+00 -.170E-12 0.392E-13   -.142E-13 0.000E+00 0.711E-14   -.108E-16 -.327E-16 -.972E-17   0.317E-14 0.366E-14 -.756E-14
   0.000E+00 0.234E-13 0.561E-14   0.139E-14 -.140E-17 0.143E-13   -.866E-17 0.917E-17 -.708E-17   -.920E-15 0.598E-14 0.143E-14
   0.232E-13 0.204E-12 0.402E-12   0.000E+00 0.000E+00 -.142E-13   -.243E-16 0.126E-16 0.110E-16   0.376E-14 0.255E-14 -.822E-14
   0.232E-13 -.332E-15 -.412E-12   0.714E-14 0.427E-15 -.704E-14   -.692E-17 0.127E-16 -.134E-16   -.374E-14 0.601E-14 0.234E-14
   0.309E-13 -.198E-12 0.230E-15   0.711E-14 0.711E-14 -.711E-14   0.157E-16 -.124E-16 0.709E-17   0.341E-14 0.275E-14 -.716E-14
   0.232E-13 0.374E-12 0.254E-13   0.143E-13 0.718E-14 -.163E-16   0.135E-16 0.266E-16 0.104E-16   -.397E-14 0.654E-14 0.308E-14
 -----------------------------------------------------------------------------------------------
   0.100E-12 0.870E-13 0.105E-12   0.186E-14 0.593E-15 0.127E-15   0.947E-17 -.884E-17 -.207E-17   0.356E-14 0.355E-13 -.203E-13
 
 
 POSITION                                       TOTAL-FORCE (eV/Angst)
 -----------------------------------------------------------------------------------
      0.91984      2.75952      0.91984         0.000000     -0.000000      0.000000
      0.00000      0.00000      1.83968         0.000000     -0.000000      0.000000
      0.91984      0.91984      2.75952        -0.000000     -0.000000     -0.000000
      0.00000      1.83968      0.00000         0.000000      0.000000      0.000000
      2.75952      2.75952      2.75952        -0.000000     -0.000000     -0.000000
      1.83968      0.00000      0.00000        -0.000000      0.000000     -0.000000
      2.75952      0.91984      0.91984         0.000000     -0.000000      0.000000
      1.83968      1.83968      1.83968         0.000000      0.000000      0.000000
 -----------------------------------------------------------------------------------
    total drift:                                0.000000      0.000000      0.000000


--------------------------------------------------------------------------------------------------------



  FREE ENERGIE OF THE ION-ELECTRON SYSTEM (eV)
  ---------------------------------------------------
  free  energy   TOTEN  =       -72.29439950 eV

  energy  without entropy=      -72.29439950  energy(sigma->0) =      -72.29439950
 


--------------------------------------------------------------------------------------------------------


    POTLOK:  cpu time    0.0303: real time    0.0303


--------------------------------------------------------------------------------------------------------


     LOOP+:  cpu time   59.5424: real time   59.5788
    4ORBIT:  cpu time    0.0000: real time    0.0000
 BZINTS: Fermi energy:  8.455714; 32.000000 electrons
         Band energy:   0.939181;  BLOECHL correction:  0.000000

 total amount of memory used by VASP MPI-rank0    34163. kBytes
=======================================================================

   base      :      30000. kBytes
   nonl-proj :       1298. kBytes
   fftplans  :        346. kBytes
   grid      :        481. kBytes
   one-center:          6. kBytes
   wavefun   :       2032. kBytes
 
  
  
 General timing and accounting informations for this job:
 ========================================================
  
                  Total CPU time used (sec):       61.969
                            User time (sec):       59.996
                          System time (sec):        1.973
                         Elapsed time (sec):       63.000
  
                   Maximum memory used (kb):      189608.
                   Average memory used (kb):           0.
  
                          Minor page faults:        36893
                          Major page faults:           36
                 Voluntary context switches:          785
