   8   8   0   0
  0.6403294E+01  0.3713908E-09  0.3713908E-09  0.3713908E-09  0.2000000E-16
  1.000000000000000E-004
  CAR 
 unknown system                          
     20.18482648    -13.36610871  301      8.12046936      1.00000000
    -13.366  0.0000E+00  0.0000E+00
    -13.254  0.0000E+00  0.0000E+00
    -13.142  0.0000E+00  0.0000E+00
    -13.031  0.0000E+00  0.0000E+00
    -12.919  0.0000E+00  0.0000E+00
    -12.807  0.0000E+00  0.0000E+00
    -12.695  0.0000E+00  0.0000E+00
    -12.583  0.0000E+00  0.0000E+00
    -12.471  0.0000E+00  0.0000E+00
    -12.360  0.0000E+00  0.0000E+00
    -12.248  0.0000E+00  0.0000E+00
    -12.136  0.0000E+00  0.0000E+00
    -12.024  0.0000E+00  0.0000E+00
    -11.912  0.0000E+00  0.0000E+00
    -11.800  0.3746E-01  0.5079E-03
    -11.689  0.1666E+00  0.1483E-01
    -11.577  0.2612E+00  0.3872E-01
    -11.465  0.2954E+00  0.6954E-01
    -11.353  0.3467E+00  0.1055E+00
    -11.241  0.3909E+00  0.1472E+00
    -11.129  0.4224E+00  0.1926E+00
    -11.018  0.4560E+00  0.2416E+00
    -10.906  0.4977E+00  0.2949E+00
    -10.794  0.5232E+00  0.3522E+00
    -10.682  0.5489E+00  0.4122E+00
    -10.570  0.5770E+00  0.4751E+00
    -10.458  0.6080E+00  0.5413E+00
    -10.347  0.6381E+00  0.6110E+00
    -10.235  0.6591E+00  0.6835E+00
    -10.123  0.6811E+00  0.7585E+00
    -10.011  0.7052E+00  0.8360E+00
     -9.899  0.7303E+00  0.9162E+00
     -9.787  0.7572E+00  0.9994E+00
     -9.676  0.7812E+00  0.1086E+01
     -9.564  0.8011E+00  0.1174E+01
     -9.452  0.8208E+00  0.1265E+01
     -9.340  0.8433E+00  0.1358E+01
     -9.228  0.8664E+00  0.1453E+01
     -9.116  0.8907E+00  0.1552E+01
     -9.004  0.9157E+00  0.1653E+01
     -8.893  0.9356E+00  0.1756E+01
     -8.781  0.9559E+00  0.1862E+01
     -8.669  0.9775E+00  0.1970E+01
     -8.557  0.9999E+00  0.2081E+01
     -8.445  0.1023E+01  0.2194E+01
     -8.333  0.1068E+01  0.2310E+01
     -8.222  0.1123E+01  0.2433E+01
     -8.110  0.1166E+01  0.2560E+01
     -7.998  0.1204E+01  0.2694E+01
     -7.886  0.1198E+01  0.2828E+01
     -7.774  0.1167E+01  0.2961E+01
     -7.662  0.1155E+01  0.3090E+01
     -7.551  0.1189E+01  0.3221E+01
     -7.439  0.1207E+01  0.3356E+01
     -7.327  0.1222E+01  0.3491E+01
     -7.215  0.1274E+01  0.3630E+01
     -7.103  0.1360E+01  0.3777E+01
     -6.991  0.1422E+01  0.3931E+01
     -6.880  0.1593E+01  0.4100E+01
     -6.768  0.1737E+01  0.4285E+01
     -6.656  0.1826E+01  0.4485E+01
     -6.544  0.1713E+01  0.4679E+01
     -6.432  0.1748E+01  0.4873E+01
     -6.320  0.1591E+01  0.5061E+01
     -6.209  0.1551E+01  0.5236E+01
     -6.097  0.1589E+01  0.5408E+01
     -5.985  0.1586E+01  0.5588E+01
     -5.873  0.1462E+01  0.5755E+01
     -5.761  0.1472E+01  0.5918E+01
     -5.649  0.1357E+01  0.6076E+01
     -5.538  0.1334E+01  0.6225E+01
     -5.426  0.1313E+01  0.6373E+01
     -5.314  0.1270E+01  0.6522E+01
     -5.202  0.1180E+01  0.6659E+01
     -5.090  0.1120E+01  0.6788E+01
     -4.978  0.1148E+01  0.6917E+01
     -4.867  0.1087E+01  0.7048E+01
     -4.755  0.1074E+01  0.7169E+01
     -4.643  0.1105E+01  0.7291E+01
     -4.531  0.1067E+01  0.7412E+01
     -4.419  0.9397E+00  0.7524E+01
     -4.307  0.8340E+00  0.7623E+01
     -4.196  0.7415E+00  0.7710E+01
     -4.084  0.6425E+00  0.7788E+01
     -3.972  0.5621E+00  0.7855E+01
     -3.860  0.8449E+00  0.7924E+01
     -3.748  0.6972E+00  0.8012E+01
     -3.636  0.7624E+00  0.8096E+01
     -3.525  0.7514E+00  0.8178E+01
     -3.413  0.8614E+00  0.8267E+01
     -3.301  0.1081E+01  0.8379E+01
     -3.189  0.1222E+01  0.8509E+01
     -3.077  0.1406E+01  0.8655E+01
     -2.965  0.1647E+01  0.8825E+01
     -2.853  0.1981E+01  0.9029E+01
     -2.742  0.2452E+01  0.9275E+01
     -2.630  0.3646E+01  0.9597E+01
     -2.518  0.3360E+01  0.1004E+02
     -2.406  0.2469E+01  0.1035E+02
     -2.294  0.2142E+01  0.1061E+02
     -2.182  0.1922E+01  0.1084E+02
     -2.071  0.1787E+01  0.1104E+02
     -1.959  0.1675E+01  0.1124E+02
     -1.847  0.1586E+01  0.1142E+02
     -1.735  0.1548E+01  0.1159E+02
     -1.623  0.1504E+01  0.1176E+02
     -1.511  0.1486E+01  0.1193E+02
     -1.400  0.1486E+01  0.1209E+02
     -1.288  0.1251E+01  0.1225E+02
     -1.176  0.1201E+01  0.1238E+02
     -1.064  0.1174E+01  0.1251E+02
     -0.952  0.1147E+01  0.1264E+02
     -0.840  0.1118E+01  0.1277E+02
     -0.729  0.1070E+01  0.1289E+02
     -0.617  0.1020E+01  0.1301E+02
     -0.505  0.9995E+00  0.1312E+02
     -0.393  0.1050E+01  0.1324E+02
     -0.281  0.1103E+01  0.1336E+02
     -0.169  0.1224E+01  0.1349E+02
     -0.058  0.1422E+01  0.1363E+02
      0.054  0.1537E+01  0.1380E+02
      0.166  0.1882E+01  0.1399E+02
      0.278  0.2327E+01  0.1422E+02
      0.390  0.2571E+01  0.1451E+02
      0.502  0.2741E+01  0.1481E+02
      0.613  0.2905E+01  0.1513E+02
      0.725  0.1735E+01  0.1539E+02
      0.837  0.1319E+01  0.1556E+02
      0.949  0.1482E+01  0.1570E+02
      1.061  0.2158E+01  0.1591E+02
      1.173  0.2393E+01  0.1617E+02
      1.284  0.2372E+01  0.1644E+02
      1.396  0.2511E+01  0.1671E+02
      1.508  0.2522E+01  0.1699E+02
      1.620  0.2556E+01  0.1728E+02
      1.732  0.2502E+01  0.1756E+02
      1.844  0.2472E+01  0.1784E+02
      1.955  0.2796E+01  0.1813E+02
      2.067  0.3230E+01  0.1847E+02
      2.179  0.3814E+01  0.1885E+02
      2.291  0.2873E+01  0.1922E+02
      2.403  0.2382E+01  0.1952E+02
      2.515  0.2767E+01  0.1979E+02
      2.627  0.3180E+01  0.2013E+02
      2.738  0.3204E+01  0.2048E+02
      2.850  0.4185E+01  0.2088E+02
      2.962  0.4504E+01  0.2139E+02
      3.074  0.3671E+01  0.2184E+02
      3.186  0.3045E+01  0.2221E+02
      3.298  0.2725E+01  0.2253E+02
      3.409  0.2788E+01  0.2283E+02
      3.521  0.4060E+01  0.2321E+02
      3.633  0.2954E+01  0.2356E+02
      3.745  0.3442E+01  0.2392E+02
      3.857  0.3183E+01  0.2429E+02
      3.969  0.3240E+01  0.2465E+02
      4.080  0.3316E+01  0.2502E+02
      4.192  0.3521E+01  0.2539E+02
      4.304  0.3165E+01  0.2578E+02
      4.416  0.2749E+01  0.2611E+02
      4.528  0.2617E+01  0.2641E+02
      4.640  0.2617E+01  0.2670E+02
      4.751  0.2786E+01  0.2700E+02
      4.863  0.3006E+01  0.2733E+02
      4.975  0.3125E+01  0.2768E+02
      5.087  0.3043E+01  0.2803E+02
      5.199  0.3018E+01  0.2837E+02
      5.311  0.2711E+01  0.2869E+02
      5.422  0.2575E+01  0.2899E+02
      5.534  0.3447E+01  0.2930E+02
      5.646  0.2468E+01  0.2966E+02
      5.758  0.1974E+01  0.2989E+02
      5.870  0.1887E+01  0.3011E+02
      5.982  0.1679E+01  0.3030E+02
      6.093  0.1533E+01  0.3048E+02
      6.205  0.1439E+01  0.3065E+02
      6.317  0.1346E+01  0.3080E+02
      6.429  0.1242E+01  0.3095E+02
      6.541  0.1121E+01  0.3108E+02
      6.653  0.1011E+01  0.3120E+02
      6.764  0.9582E+00  0.3131E+02
      6.876  0.9053E+00  0.3141E+02
      6.988  0.8162E+00  0.3151E+02
      7.100  0.7387E+00  0.3160E+02
      7.212  0.6657E+00  0.3168E+02
      7.324  0.6079E+00  0.3175E+02
      7.435  0.5380E+00  0.3181E+02
      7.547  0.4151E+00  0.3186E+02
      7.659  0.4369E+00  0.3191E+02
      7.771  0.3482E+00  0.3196E+02
      7.883  0.1661E+00  0.3198E+02
      7.995  0.7132E-01  0.3200E+02
      8.106  0.0000E+00  0.3200E+02
      8.218  0.0000E+00  0.3200E+02
      8.330  0.0000E+00  0.3200E+02
      8.442  0.0000E+00  0.3200E+02
      8.554  0.0000E+00  0.3200E+02
      8.666  0.0000E+00  0.3200E+02
      8.778  0.0000E+00  0.3200E+02
      8.889  0.0000E+00  0.3200E+02
      9.001  0.0000E+00  0.3200E+02
      9.113  0.0000E+00  0.3200E+02
      9.225  0.0000E+00  0.3200E+02
      9.337  0.0000E+00  0.3200E+02
      9.449  0.0000E+00  0.3200E+02
      9.560  0.0000E+00  0.3200E+02
      9.672  0.0000E+00  0.3200E+02
      9.784  0.0000E+00  0.3200E+02
      9.896  0.0000E+00  0.3200E+02
     10.008  0.0000E+00  0.3200E+02
     10.120  0.0000E+00  0.3200E+02
     10.231  0.0000E+00  0.3200E+02
     10.343  0.0000E+00  0.3200E+02
     10.455  0.0000E+00  0.3200E+02
     10.567  0.0000E+00  0.3200E+02
     10.679  0.0000E+00  0.3200E+02
     10.791  0.0000E+00  0.3200E+02
     10.902  0.0000E+00  0.3200E+02
     11.014  0.0000E+00  0.3200E+02
     11.126  0.0000E+00  0.3200E+02
     11.238  0.0000E+00  0.3200E+02
     11.350  0.0000E+00  0.3200E+02
     11.462  0.0000E+00  0.3200E+02
     11.573  0.0000E+00  0.3200E+02
     11.685  0.0000E+00  0.3200E+02
     11.797  0.0000E+00  0.3200E+02
     11.909  0.0000E+00  0.3200E+02
     12.021  0.4665E-01  0.3200E+02
     12.133  0.2128E+00  0.3202E+02
     12.244  0.4496E+00  0.3205E+02
     12.356  0.6089E+00  0.3211E+02
     12.468  0.6681E+00  0.3218E+02
     12.580  0.6934E+00  0.3226E+02
     12.692  0.9111E+00  0.3235E+02
     12.804  0.1025E+01  0.3246E+02
     12.915  0.1243E+01  0.3258E+02
     13.027  0.1601E+01  0.3276E+02
     13.139  0.1553E+01  0.3294E+02
     13.251  0.1549E+01  0.3311E+02
     13.363  0.1679E+01  0.3329E+02
     13.475  0.1711E+01  0.3348E+02
     13.586  0.1902E+01  0.3368E+02
     13.698  0.2008E+01  0.3390E+02
     13.810  0.2253E+01  0.3414E+02
     13.922  0.2501E+01  0.3441E+02
     14.034  0.2443E+01  0.3469E+02
     14.146  0.2275E+01  0.3495E+02
     14.257  0.2278E+01  0.3520E+02
     14.369  0.2357E+01  0.3546E+02
     14.481  0.2496E+01  0.3573E+02
     14.593  0.2713E+01  0.3602E+02
     14.705  0.2892E+01  0.3634E+02
     14.817  0.3173E+01  0.3667E+02
     14.929  0.3190E+01  0.3703E+02
     15.040  0.3302E+01  0.3739E+02
     15.152  0.3611E+01  0.3778E+02
     15.264  0.4104E+01  0.3821E+02
     15.376  0.4481E+01  0.3869E+02
     15.488  0.5371E+01  0.3925E+02
     15.600  0.5133E+01  0.3987E+02
     15.711  0.4862E+01  0.4043E+02
     15.823  0.4590E+01  0.4096E+02
     15.935  0.4844E+01  0.4145E+02
     16.047  0.4181E+01  0.4196E+02
     16.159  0.4111E+01  0.4241E+02
     16.271  0.4151E+01  0.4288E+02
     16.382  0.4317E+01  0.4334E+02
     16.494  0.3891E+01  0.4381E+02
     16.606  0.3099E+01  0.4420E+02
     16.718  0.2830E+01  0.4453E+02
     16.830  0.2706E+01  0.4484E+02
     16.942  0.2726E+01  0.4514E+02
     17.053  0.2947E+01  0.4546E+02
     17.165  0.3012E+01  0.4579E+02
     17.277  0.2995E+01  0.4612E+02
     17.389  0.3062E+01  0.4646E+02
     17.501  0.2975E+01  0.4680E+02
     17.613  0.2665E+01  0.4712E+02
     17.724  0.2156E+01  0.4738E+02
     17.836  0.1540E+01  0.4759E+02
     17.948  0.1066E+01  0.4774E+02
     18.060  0.7147E+00  0.4783E+02
     18.172  0.4680E+00  0.4790E+02
     18.284  0.2798E+00  0.4794E+02
     18.395  0.2104E+00  0.4797E+02
     18.507  0.1430E+00  0.4799E+02
     18.619  0.7169E-01  0.4800E+02
     18.731  0.0000E+00  0.4800E+02
     18.843  0.0000E+00  0.4800E+02
     18.955  0.0000E+00  0.4800E+02
     19.066  0.0000E+00  0.4800E+02
     19.178  0.0000E+00  0.4800E+02
     19.290  0.0000E+00  0.4800E+02
     19.402  0.0000E+00  0.4800E+02
     19.514  0.0000E+00  0.4800E+02
     19.626  0.0000E+00  0.4800E+02
     19.737  0.0000E+00  0.4800E+02
     19.849  0.0000E+00  0.4800E+02
     19.961  0.0000E+00  0.4800E+02
     20.073  0.0000E+00  0.4800E+02
     20.185  0.0000E+00  0.4800E+02
