       N       E                     dE             d eps       ncg     rms          rms(c)
DAV:   1     0.562072027086E+02    0.56207E+02   -0.14109E+04  4032   0.104E+03
DAV:   2    -0.691049767906E+02   -0.12531E+03   -0.11862E+03  5664   0.214E+02
DAV:   3    -0.736085441362E+02   -0.45036E+01   -0.44794E+01  5224   0.378E+01
DAV:   4    -0.736645666341E+02   -0.56022E-01   -0.55973E-01  5304   0.451E+00
DAV:   5    -0.736658394784E+02   -0.12728E-02   -0.12721E-02  5152   0.624E-01    0.820E+00
DAV:   6    -0.723975727115E+02    0.12683E+01   -0.86519E-01  4792   0.509E+00    0.459E+00
DAV:   7    -0.719677158247E+02    0.42986E+00   -0.10137E+00  4832   0.567E+00    0.654E-01
DAV:   8    -0.719737492943E+02   -0.60335E-02   -0.21199E-02  5200   0.827E-01    0.737E-02
DAV:   9    -0.719739807489E+02   -0.23145E-03   -0.43476E-04  4976   0.136E-01    0.266E-02
DAV:  10    -0.719740383121E+02   -0.57563E-04   -0.57564E-05  5104   0.550E-02    0.253E-03
DAV:  11    -0.719740386421E+02   -0.33003E-06   -0.11415E-06  3736   0.704E-03
   1 F= -.71974039E+02 E0= -.71974039E+02  d E =0.000000E+00
