 vasp.5.4.4.18Apr17-6-g9f103f2a35 (build Mar 12 2022 03:36:41) complex          
  
 executed on IFC19.0.3.199_CrayMP date 2022.11.30  13:10:30
 running on   16 total cores
 distrk:  each k-point on   16 cores,    1 groups
 distr:  one band on NCORES_PER_BAND=   4 cores,    4 groups


--------------------------------------------------------------------------------------------------------


 INCAR:
 POTCAR:   PAW_PBE C 08Apr2002                    
 POTCAR:   PAW_PBE C 08Apr2002                    
   VRHFIN =C: s2p2                                                              
   LEXCH  = PE                                                                  
   EATOM  =   147.1560 eV,   10.8157 Ry                                         
                                                                                
   TITEL  = PAW_PBE C 08Apr2002                                                 
   LULTRA =        F    use ultrasoft PP ?                                      
   IUNSCR =        0    unscreen: 0-lin 1-nonlin 2-no                           
   RPACOR =     .000    partial core radius                                     
   POMASS =   12.011; ZVAL   =    4.000    mass and valenz                      
   RCORE  =    1.500    outmost cutoff radius                                   
   RWIGS  =    1.630; RWIGS  =     .863    wigner-seitz radius (au A)           
   ENMAX  =  400.000; ENMIN  =  300.000 eV                                      
   ICORE  =        2    local potential                                         
   LCOR   =        T    correct aug charges                                     
   LPAW   =        T    paw PP                                                  
   EAUG   =  644.873                                                            
   DEXC   =     .000                                                            
   RMAX   =    2.266    core radius for proj-oper                               
   RAUG   =    1.300    factor for augmentation sphere                          
   RDEP   =    1.501    radius for radial grids                                 
   RDEPT  =    1.300    core radius for aug-charge                              
   QCUT   =   -5.516; QGAM   =   11.032    optimization parameters              
                                                                                
   Description                                                                  
     l     E      TYP  RCUT    TYP  RCUT                                        
     0   .000     23  1.200                                                     
     0   .000     23  1.200                                                     
     1   .000     23  1.500                                                     
     1  2.500     23  1.500                                                     
     2   .000      7  1.500                                                     
  local pseudopotential read in
  atomic valenz-charges read in
  non local Contribution for L=           0  read in
    real space projection operators read in
  non local Contribution for L=           0  read in
    real space projection operators read in
  non local Contribution for L=           1  read in
    real space projection operators read in
  non local Contribution for L=           1  read in
    real space projection operators read in
    PAW grid and wavefunctions read in
 
   number of l-projection  operators is LMAX  =           4
   number of lm-projection operators is LMMAX =           8
 
 PAW_PBE C 08Apr2002                    :
 energy of atom  1       EATOM= -147.1560
 kinetic energy error for atom=    0.0288 (will be added to EATOM!!)
 
 
 POSCAR: C8                                      
  positions in direct lattice
  No initial velocities read in
 exchange correlation table for  LEXCH =        8
   RHO(1)=    0.500       N(1)  =     2000
   RHO(2)=  100.500       N(2)  =     4000
 


--------------------------------------------------------------------------------------------------------


 ion  position               nearest neighbor table
   1  0.250  0.750  0.250-   2 1.61   4 1.61   6 1.61   8 1.61
   2  0.000  0.000  0.500-   1 1.61   3 1.61   5 1.61   7 1.61
   3  0.250  0.250  0.750-   2 1.61   4 1.61   6 1.61   8 1.61
   4  0.000  0.500  0.000-   1 1.61   3 1.61   5 1.61   7 1.61
   5  0.750  0.750  0.750-   2 1.61   4 1.61   6 1.61   8 1.61
   6  0.500  0.000  0.000-   1 1.61   3 1.61   5 1.61   7 1.61
   7  0.750  0.250  0.250-   2 1.61   4 1.61   6 1.61   8 1.61
   8  0.500  0.500  0.500-   1 1.61   3 1.61   5 1.61   7 1.61
 
  LATTYP: Found a simple cubic cell.
 ALAT       =     3.7139080000
  
  Lattice vectors:
  
 A1 = (   3.7139080000,   0.0000000000,   0.0000000000)
 A2 = (   0.0000000000,   3.7139080000,   0.0000000000)
 A3 = (   0.0000000000,   0.0000000000,   3.7139080000)


Analysis of symmetry for initial positions (statically):
=====================================================================
 Subroutine PRICEL returns following result:
 
  LATTYP: Found a face centered cubic cell.
 ALAT       =     3.7139080000
  
  Lattice vectors:
  
 A1 = (   1.8569540000,   1.8569540000,   0.0000000000)
 A2 = (   1.8569540000,   0.0000000000,  -1.8569540000)
 A3 = (   0.0000000000,   1.8569540000,  -1.8569540000)
 
   4 primitive cells build up your supercell.
 

 Routine SETGRP: Setting up the symmetry group for a 
 simple cubic supercell.


 Subroutine GETGRP returns: Found 48 space group operations
 (whereof 24 operations were pure point group operations)
 out of a pool of 48 trial point group operations.


The static configuration has the point symmetry T_d .
 The point group associated with its full space group is O_h .


Analysis of symmetry for dynamics (positions and initial velocities):
=====================================================================
 Subroutine PRICEL returns following result:
 
  LATTYP: Found a face centered cubic cell.
 ALAT       =     3.7139080000
  
  Lattice vectors:
  
 A1 = (   1.8569540000,   1.8569540000,   0.0000000000)
 A2 = (   1.8569540000,   0.0000000000,  -1.8569540000)
 A3 = (   0.0000000000,   1.8569540000,  -1.8569540000)
 
   4 primitive cells build up your supercell.
 

 Routine SETGRP: Setting up the symmetry group for a 
 simple cubic supercell.


 Subroutine GETGRP returns: Found 48 space group operations
 (whereof 24 operations were pure point group operations)
 out of a pool of 48 trial point group operations.


The dynamic configuration has the point symmetry T_d .
 The point group associated with its full space group is O_h .


 Subroutine INISYM returns: Found 48 space group operations
 (whereof 24 operations are pure point group operations),
 and found     4 'primitive' translations

 
 
 KPOINTS: kpt_density=1000                        

Automatic generation of k-mesh.
Space group operators:
 irot       det(A)        alpha          n_x          n_y          n_z        tau_x        tau_y        tau_z
    1     1.000000     0.000000     1.000000     0.000000     0.000000     0.000000     0.000000     0.000000
    2     1.000000   120.000000    -0.577350    -0.577350    -0.577350     0.000000     0.000000     0.000000
    3     1.000000   120.000000     0.577350     0.577350     0.577350     0.000000     0.000000     0.000000
    4    -1.000000    90.000000     0.000000     0.000000    -1.000000     0.000000     0.000000     0.000000
    5    -1.000000   180.000000     0.000000     0.707107     0.707107     0.000000     0.000000     0.000000
    6    -1.000000    90.000000     0.000000     1.000000     0.000000     0.000000     0.000000     0.000000
    7     1.000000   180.000000     0.000000     0.000000     1.000000     0.000000     0.000000     0.000000
    8     1.000000   120.000000    -0.577350     0.577350     0.577350     0.000000     0.000000     0.000000
    9     1.000000   120.000000    -0.577350     0.577350    -0.577350     0.000000     0.000000     0.000000
   10    -1.000000    90.000000     0.000000     0.000000     1.000000     0.000000     0.000000     0.000000
   11    -1.000000    90.000000    -1.000000     0.000000     0.000000     0.000000     0.000000     0.000000
   12    -1.000000   180.000000     0.707107     0.000000     0.707107     0.000000     0.000000     0.000000
   13     1.000000   120.000000     0.577350    -0.577350     0.577350     0.000000     0.000000     0.000000
   14     1.000000   120.000000    -0.577350    -0.577350     0.577350     0.000000     0.000000     0.000000
   15     1.000000   180.000000     1.000000     0.000000     0.000000     0.000000     0.000000     0.000000
   16    -1.000000    90.000000     0.000000    -1.000000     0.000000     0.000000     0.000000     0.000000
   17    -1.000000   180.000000     0.707107     0.707107     0.000000     0.000000     0.000000     0.000000
   18    -1.000000    90.000000     1.000000     0.000000     0.000000     0.000000     0.000000     0.000000
   19     1.000000   120.000000     0.577350    -0.577350    -0.577350     0.000000     0.000000     0.000000
   20     1.000000   180.000000     0.000000     1.000000     0.000000     0.000000     0.000000     0.000000
   21     1.000000   120.000000     0.577350     0.577350    -0.577350     0.000000     0.000000     0.000000
   22    -1.000000   180.000000     0.000000    -0.707107     0.707107     0.000000     0.000000     0.000000
   23    -1.000000   180.000000     0.707107    -0.707107     0.000000     0.000000     0.000000     0.000000
   24    -1.000000   180.000000     0.707107     0.000000    -0.707107     0.000000     0.000000     0.000000
   25    -1.000000     0.000000     1.000000     0.000000     0.000000     0.750000     0.750000    -0.750000
   26    -1.000000   120.000000    -0.577350    -0.577350    -0.577350     0.750000     0.750000    -0.750000
   27    -1.000000   120.000000     0.577350     0.577350     0.577350     0.750000     0.750000    -0.750000
   28     1.000000    90.000000     0.000000     0.000000    -1.000000     0.750000     0.750000    -0.750000
   29     1.000000   180.000000     0.000000     0.707107     0.707107     0.750000     0.750000    -0.750000
   30     1.000000    90.000000     0.000000     1.000000     0.000000     0.750000     0.750000    -0.750000
   31    -1.000000   180.000000     0.000000     0.000000     1.000000     0.750000     0.750000    -0.750000
   32    -1.000000   120.000000    -0.577350     0.577350     0.577350     0.750000     0.750000    -0.750000
   33    -1.000000   120.000000    -0.577350     0.577350    -0.577350     0.750000     0.750000    -0.750000
   34     1.000000    90.000000     0.000000     0.000000     1.000000     0.750000     0.750000    -0.750000
   35     1.000000    90.000000    -1.000000     0.000000     0.000000     0.750000     0.750000    -0.750000
   36     1.000000   180.000000     0.707107     0.000000     0.707107     0.750000     0.750000    -0.750000
   37    -1.000000   120.000000     0.577350    -0.577350     0.577350     0.750000     0.750000    -0.750000
   38    -1.000000   120.000000    -0.577350    -0.577350     0.577350     0.750000     0.750000    -0.750000
   39    -1.000000   180.000000     1.000000     0.000000     0.000000     0.750000     0.750000    -0.750000
   40     1.000000    90.000000     0.000000    -1.000000     0.000000     0.750000     0.750000    -0.750000
   41     1.000000   180.000000     0.707107     0.707107     0.000000     0.750000     0.750000    -0.750000
   42     1.000000    90.000000     1.000000     0.000000     0.000000     0.750000     0.750000    -0.750000
   43    -1.000000   120.000000     0.577350    -0.577350    -0.577350     0.750000     0.750000    -0.750000
   44    -1.000000   180.000000     0.000000     1.000000     0.000000     0.750000     0.750000    -0.750000
   45    -1.000000   120.000000     0.577350     0.577350    -0.577350     0.750000     0.750000    -0.750000
   46     1.000000   180.000000     0.000000    -0.707107     0.707107     0.750000     0.750000    -0.750000
   47     1.000000   180.000000     0.707107    -0.707107     0.000000     0.750000     0.750000    -0.750000
   48     1.000000   180.000000     0.707107     0.000000    -0.707107     0.750000     0.750000    -0.750000
 
 Subroutine IBZKPT returns following result:
 ===========================================
 
 Found     84 irreducible k-points:
 
 Following reciprocal coordinates:
            Coordinates               Weight
  0.000000  0.000000  0.000000      1.000000
  0.083333  0.000000  0.000000      6.000000
  0.166667  0.000000  0.000000      6.000000
  0.250000  0.000000  0.000000      6.000000
  0.333333  0.000000  0.000000      6.000000
  0.416667  0.000000  0.000000      6.000000
  0.500000  0.000000  0.000000      3.000000
  0.083333  0.083333  0.000000     12.000000
  0.166667  0.083333  0.000000     24.000000
  0.250000  0.083333  0.000000     24.000000
  0.333333  0.083333  0.000000     24.000000
  0.416667  0.083333  0.000000     24.000000
  0.500000  0.083333  0.000000     12.000000
  0.166667  0.166667  0.000000     12.000000
  0.250000  0.166667  0.000000     24.000000
  0.333333  0.166667  0.000000     24.000000
  0.416667  0.166667  0.000000     24.000000
  0.500000  0.166667  0.000000     12.000000
  0.250000  0.250000  0.000000     12.000000
  0.333333  0.250000  0.000000     24.000000
  0.416667  0.250000  0.000000     24.000000
  0.500000  0.250000  0.000000     12.000000
  0.333333  0.333333  0.000000     12.000000
  0.416667  0.333333  0.000000     24.000000
  0.500000  0.333333  0.000000     12.000000
  0.416667  0.416667  0.000000     12.000000
  0.500000  0.416667  0.000000     12.000000
  0.500000  0.500000  0.000000      3.000000
  0.083333  0.083333  0.083333      8.000000
  0.166667  0.083333  0.083333     24.000000
  0.250000  0.083333  0.083333     24.000000
  0.333333  0.083333  0.083333     24.000000
  0.416667  0.083333  0.083333     24.000000
  0.500000  0.083333  0.083333     12.000000
  0.166667  0.166667  0.083333     24.000000
  0.250000  0.166667  0.083333     48.000000
  0.333333  0.166667  0.083333     48.000000
  0.416667  0.166667  0.083333     48.000000
  0.500000  0.166667  0.083333     24.000000
  0.250000  0.250000  0.083333     24.000000
  0.333333  0.250000  0.083333     48.000000
  0.416667  0.250000  0.083333     48.000000
  0.500000  0.250000  0.083333     24.000000
  0.333333  0.333333  0.083333     24.000000
  0.416667  0.333333  0.083333     48.000000
  0.500000  0.333333  0.083333     24.000000
  0.416667  0.416667  0.083333     24.000000
  0.500000  0.416667  0.083333     24.000000
  0.500000  0.500000  0.083333      6.000000
  0.166667  0.166667  0.166667      8.000000
  0.250000  0.166667  0.166667     24.000000
  0.333333  0.166667  0.166667     24.000000
  0.416667  0.166667  0.166667     24.000000
  0.500000  0.166667  0.166667     12.000000
  0.250000  0.250000  0.166667     24.000000
  0.333333  0.250000  0.166667     48.000000
  0.416667  0.250000  0.166667     48.000000
  0.500000  0.250000  0.166667     24.000000
  0.333333  0.333333  0.166667     24.000000
  0.416667  0.333333  0.166667     48.000000
  0.500000  0.333333  0.166667     24.000000
  0.416667  0.416667  0.166667     24.000000
  0.500000  0.416667  0.166667     24.000000
  0.500000  0.500000  0.166667      6.000000
  0.250000  0.250000  0.250000      8.000000
  0.333333  0.250000  0.250000     24.000000
  0.416667  0.250000  0.250000     24.000000
  0.500000  0.250000  0.250000     12.000000
  0.333333  0.333333  0.250000     24.000000
  0.416667  0.333333  0.250000     48.000000
  0.500000  0.333333  0.250000     24.000000
  0.416667  0.416667  0.250000     24.000000
  0.500000  0.416667  0.250000     24.000000
  0.500000  0.500000  0.250000      6.000000
  0.333333  0.333333  0.333333      8.000000
  0.416667  0.333333  0.333333     24.000000
  0.500000  0.333333  0.333333     12.000000
  0.416667  0.416667  0.333333     24.000000
  0.500000  0.416667  0.333333     24.000000
  0.500000  0.500000  0.333333      6.000000
  0.416667  0.416667  0.416667      8.000000
  0.500000  0.416667  0.416667     12.000000
  0.500000  0.500000  0.416667      6.000000
  0.500000  0.500000  0.500000      1.000000
 
 Following cartesian coordinates:
            Coordinates               Weight
  0.000000  0.000000  0.000000      1.000000
  0.022438  0.000000  0.000000      6.000000
  0.044876  0.000000  0.000000      6.000000
  0.067315  0.000000  0.000000      6.000000
  0.089753  0.000000  0.000000      6.000000
  0.112191  0.000000  0.000000      6.000000
  0.134629  0.000000  0.000000      3.000000
  0.022438  0.022438  0.000000     12.000000
  0.044876  0.022438  0.000000     24.000000
  0.067315  0.022438  0.000000     24.000000
  0.089753  0.022438  0.000000     24.000000
  0.112191  0.022438  0.000000     24.000000
  0.134629  0.022438  0.000000     12.000000
  0.044876  0.044876  0.000000     12.000000
  0.067315  0.044876  0.000000     24.000000
  0.089753  0.044876  0.000000     24.000000
  0.112191  0.044876  0.000000     24.000000
  0.134629  0.044876  0.000000     12.000000
  0.067315  0.067315  0.000000     12.000000
  0.089753  0.067315  0.000000     24.000000
  0.112191  0.067315  0.000000     24.000000
  0.134629  0.067315  0.000000     12.000000
  0.089753  0.089753  0.000000     12.000000
  0.112191  0.089753  0.000000     24.000000
  0.134629  0.089753  0.000000     12.000000
  0.112191  0.112191  0.000000     12.000000
  0.134629  0.112191  0.000000     12.000000
  0.134629  0.134629  0.000000      3.000000
  0.022438  0.022438  0.022438      8.000000
  0.044876  0.022438  0.022438     24.000000
  0.067315  0.022438  0.022438     24.000000
  0.089753  0.022438  0.022438     24.000000
  0.112191  0.022438  0.022438     24.000000
  0.134629  0.022438  0.022438     12.000000
  0.044876  0.044876  0.022438     24.000000
  0.067315  0.044876  0.022438     48.000000
  0.089753  0.044876  0.022438     48.000000
  0.112191  0.044876  0.022438     48.000000
  0.134629  0.044876  0.022438     24.000000
  0.067315  0.067315  0.022438     24.000000
  0.089753  0.067315  0.022438     48.000000
  0.112191  0.067315  0.022438     48.000000
  0.134629  0.067315  0.022438     24.000000
  0.089753  0.089753  0.022438     24.000000
  0.112191  0.089753  0.022438     48.000000
  0.134629  0.089753  0.022438     24.000000
  0.112191  0.112191  0.022438     24.000000
  0.134629  0.112191  0.022438     24.000000
  0.134629  0.134629  0.022438      6.000000
  0.044876  0.044876  0.044876      8.000000
  0.067315  0.044876  0.044876     24.000000
  0.089753  0.044876  0.044876     24.000000
  0.112191  0.044876  0.044876     24.000000
  0.134629  0.044876  0.044876     12.000000
  0.067315  0.067315  0.044876     24.000000
  0.089753  0.067315  0.044876     48.000000
  0.112191  0.067315  0.044876     48.000000
  0.134629  0.067315  0.044876     24.000000
  0.089753  0.089753  0.044876     24.000000
  0.112191  0.089753  0.044876     48.000000
  0.134629  0.089753  0.044876     24.000000
  0.112191  0.112191  0.044876     24.000000
  0.134629  0.112191  0.044876     24.000000
  0.134629  0.134629  0.044876      6.000000
  0.067315  0.067315  0.067315      8.000000
  0.089753  0.067315  0.067315     24.000000
  0.112191  0.067315  0.067315     24.000000
  0.134629  0.067315  0.067315     12.000000
  0.089753  0.089753  0.067315     24.000000
  0.112191  0.089753  0.067315     48.000000
  0.134629  0.089753  0.067315     24.000000
  0.112191  0.112191  0.067315     24.000000
  0.134629  0.112191  0.067315     24.000000
  0.134629  0.134629  0.067315      6.000000
  0.089753  0.089753  0.089753      8.000000
  0.112191  0.089753  0.089753     24.000000
  0.134629  0.089753  0.089753     12.000000
  0.112191  0.112191  0.089753     24.000000
  0.134629  0.112191  0.089753     24.000000
  0.134629  0.134629  0.089753      6.000000
  0.112191  0.112191  0.112191      8.000000
  0.134629  0.112191  0.112191     12.000000
  0.134629  0.134629  0.112191      6.000000
  0.134629  0.134629  0.134629      1.000000
 
 TETIRR: Found    854 inequivalent tetrahedra from    10368


--------------------------------------------------------------------------------------------------------




 Dimension of arrays:
   k-points           NKPTS =     84   k-points in BZ     NKDIM =     84   number of bands    NBANDS=     24
   number of dos      NEDOS =    301   number of ions     NIONS =      8
   non local maximal  LDIM  =      4   non local SUM 2l+1 LMDIM =      8
   total plane-waves  NPLWV =  13824
   max r-space proj   IRMAX =      1   max aug-charges    IRDMAX=   3384
   dimension x,y,z NGX =    24 NGY =   24 NGZ =   24
   dimension x,y,z NGXF=    48 NGYF=   48 NGZF=   48
   support grid    NGXF=    48 NGYF=   48 NGZF=   48
   ions per type =               8
   NGX,Y,Z   is equivalent  to a cutoff of  10.74, 10.74, 10.74 a.u.
   NGXF,Y,Z  is equivalent  to a cutoff of  21.49, 21.49, 21.49 a.u.

 SYSTEM =  unknown system                          
 POSCAR =  C8                                      

 Startparameter for this run:
   NWRITE =      2    write-flag & timer
   PREC   = accura    normal or accurate (medium, high low for compatibility)
   ISTART =      0    job   : 0-new  1-cont  2-samecut
   ICHARG =      2    charge: 1-file 2-atom 10-const
   ISPIN  =      1    spin polarized calculation?
   LNONCOLLINEAR =      F non collinear calculations
   LSORBIT =      F    spin-orbit coupling
   INIWAV =      1    electr: 0-lowe 1-rand  2-diag
   LASPH  =      F    aspherical Exc in radial PAW
   METAGGA=      F    non-selfconsistent MetaGGA calc.

 Electronic Relaxation 1
   ENCUT  =  400.0 eV  29.40 Ry    5.42 a.u.   6.06  6.06  6.06*2*pi/ulx,y,z
   ENINI  =  400.0     initial cutoff
   ENAUG  =  644.9 eV  augmentation charge cutoff
   NELM   =     60;   NELMIN=  2; NELMDL= -5     # of ELM steps 
   EDIFF  = 0.1E-05   stopping-criterion for ELM
   LREAL  =      F    real-space projection
   NLSPLINE    = F    spline interpolate recip. space projectors
   LCOMPAT=      F    compatible to vasp.4.4
   GGA_COMPAT  = T    GGA compatible to vasp.4.4-vasp.4.6
   LMAXPAW     = -100 max onsite density
   LMAXMIX     =    2 max onsite mixed and CHGCAR
   VOSKOWN=      0    Vosko Wilk Nusair interpolation
   ROPT   =    0.00000
 Ionic relaxation
   EDIFFG = 0.1E-04   stopping-criterion for IOM
   NSW    =      0    number of steps for IOM
   NBLOCK =      1;   KBLOCK =      1    inner block; outer block 
   IBRION =     -1    ionic relax: 0-MD 1-quasi-New 2-CG
   NFREE  =      0    steps in history (QN), initial steepest desc. (CG)
   ISIF   =      2    stress and relaxation
   IWAVPR =     10    prediction:  0-non 1-charg 2-wave 3-comb
   ISYM   =      2    0-nonsym 1-usesym 2-fastsym
   LCORR  =      T    Harris-Foulkes like correction to forces

   POTIM  = 0.0200    time-step for ionic-motion
   TEIN   =    0.0    initial temperature
   TEBEG  =    0.0;   TEEND  =   0.0 temperature during run
   SMASS  =  -3.00    Nose mass-parameter (am)
   estimated Nose-frequenzy (Omega)   =  0.10E-29 period in steps =****** mass=  -0.315E-27a.u.
   SCALEE = 1.0000    scale energy and forces
   NPACO  =    256;   APACO  = 16.0  distance and # of slots for P.C.
   PSTRESS=    0.0 pullay stress

  Mass of Ions in am
   POMASS =  12.01
  Ionic Valenz
   ZVAL   =   4.00
  Atomic Wigner-Seitz radii
   RWIGS  =  -1.00
  virtual crystal weights 
   VCA    =   1.00
   NELECT =      32.0000    total number of electrons
   NUPDOWN=      -1.0000    fix difference up-down

 DOS related values:
   EMIN   =  10.00;   EMAX   =-10.00  energy-range for DOS
   EFERMI =   0.00
   ISMEAR =    -5;   SIGMA  =   0.06  broadening in eV -4-tet -1-fermi 0-gaus

 Electronic relaxation 2 (details)
   IALGO  =     38    algorithm
   LDIAG  =      T    sub-space diagonalisation (order eigenvalues)
   LSUBROT=      F    optimize rotation matrix (better conditioning)
   TURBO    =      0    0=normal 1=particle mesh
   IRESTART =      0    0=no restart 2=restart with 2 vectors
   NREBOOT  =      0    no. of reboots
   NMIN     =      0    reboot dimension
   EREF     =   0.00    reference energy to select bands
   IMIX   =      4    mixing-type and parameters
     AMIX     =   0.40;   BMIX     =  1.00
     AMIX_MAG =   1.60;   BMIX_MAG =  1.00
     AMIN     =   0.10
     WC   =   100.;   INIMIX=   1;  MIXPRE=   1;  MAXMIX= -45

 Intra band minimization:
   WEIMIN = 0.0000     energy-eigenvalue tresh-hold
   EBREAK =  0.10E-07  absolut break condition
   DEPER  =   0.30     relativ break condition  

   TIME   =   0.40     timestep for ELM

  volume/ion in A,a.u.               =       6.40        43.21
  Fermi-wavevector in a.u.,A,eV,Ry     =   1.399460  2.644595 26.646834  1.958487
  Thomas-Fermi vector in A             =   2.522517
 
 Write flags
   LWAVE        =      F    write WAVECAR
   LDOWNSAMPLE  =      F    k-point downsampling of WAVECAR
   LCHARG       =      F    write CHGCAR
   LVTOT        =      F    write LOCPOT, total local potential
   LVHAR        =      F    write LOCPOT, Hartree potential only
   LELF         =      F    write electronic localiz. function (ELF)
   LORBIT       =      0    0 simple, 1 ext, 2 COOP (PROOUT), +10 PAW based schemes


 Dipole corrections
   LMONO  =      F    monopole corrections only (constant potential shift)
   LDIPOL =      F    correct potential (dipole corrections)
   IDIPOL =      0    1-x, 2-y, 3-z, 4-all directions 
   EPSILON=  1.0000000 bulk dielectric constant

 Exchange correlation treatment:
   GGA     =    --    GGA type
   LEXCH   =     8    internal setting for exchange type
   VOSKOWN=      0    Vosko Wilk Nusair interpolation
   LHFCALC =     F    Hartree Fock is set to
   LHFONE  =     F    Hartree Fock one center treatment
   AEXX    =    0.0000 exact exchange contribution

 Linear response parameters
   LEPSILON=     F    determine dielectric tensor
   LRPA    =     F    only Hartree local field effects (RPA)
   LNABLA  =     F    use nabla operator in PAW spheres
   LVEL    =     F    velocity operator in full k-point grid
   LINTERFAST=   F  fast interpolation
   KINTER  =     0    interpolate to denser k-point grid
   CSHIFT  =0.1000    complex shift for real part using Kramers Kronig
   OMEGAMAX=  -1.0    maximum frequency
   DEG_THRESHOLD= 0.2000000E-02 threshold for treating states as degnerate
   RTIME   =   -0.100 relaxation time in fs
  (WPLASMAI=    0.000 imaginary part of plasma frequency in eV, 0.658/RTIME)
   DFIELD  = 0.0000000 0.0000000 0.0000000 field for delta impulse in time
 
 Orbital magnetization related:
   ORBITALMAG=     F  switch on orbital magnetization
   LCHIMAG   =     F  perturbation theory with respect to B field
   DQ        =  0.001000  dq finite difference perturbation B field
   LLRAUG    =     F  two centre corrections for induced B field



--------------------------------------------------------------------------------------------------------


 Static calculation
 charge density and potential will be updated during run
 non-spin polarized calculation
 Variant of blocked Davidson
 Davidson routine will perform the subspace rotation
 perform sub-space diagonalisation
    after iterative eigenvector-optimisation
 modified Broyden-mixing scheme, WC =      100.0
 initial mixing is a Kerker type mixing with AMIX =  0.4000 and BMIX =      1.0000
 Hartree-type preconditioning will be used
 using additional bands            8
 reciprocal scheme for non local part
 calculate Harris-corrections to forces 
   (improved forces if not selfconsistent)
 use gradient corrections 
 use of overlap-Matrix (Vanderbilt PP)
 Fermi weights with tetrahedron method with Bloechl corrections


--------------------------------------------------------------------------------------------------------


  energy-cutoff  :      400.00
  volume of cell :       51.23
      direct lattice vectors                 reciprocal lattice vectors
     3.713908000  0.000000000  0.000000000     0.269258151  0.000000000  0.000000000
     0.000000000  3.713908000  0.000000000     0.000000000  0.269258151  0.000000000
     0.000000000  0.000000000  3.713908000     0.000000000  0.000000000  0.269258151

  length of vectors
     3.713908000  3.713908000  3.713908000     0.269258151  0.269258151  0.269258151


 
 k-points in units of 2pi/SCALE and weight: kpt_density=1000                        
   0.00000000  0.00000000  0.00000000       0.001
   0.02243818  0.00000000  0.00000000       0.003
   0.04487636  0.00000000  0.00000000       0.003
   0.06731454  0.00000000  0.00000000       0.003
   0.08975272  0.00000000  0.00000000       0.003
   0.11219090  0.00000000  0.00000000       0.003
   0.13462908  0.00000000  0.00000000       0.002
   0.02243818  0.02243818  0.00000000       0.007
   0.04487636  0.02243818  0.00000000       0.014
   0.06731454  0.02243818  0.00000000       0.014
   0.08975272  0.02243818  0.00000000       0.014
   0.11219090  0.02243818  0.00000000       0.014
   0.13462908  0.02243818  0.00000000       0.007
   0.04487636  0.04487636  0.00000000       0.007
   0.06731454  0.04487636  0.00000000       0.014
   0.08975272  0.04487636  0.00000000       0.014
   0.11219090  0.04487636  0.00000000       0.014
   0.13462908  0.04487636  0.00000000       0.007
   0.06731454  0.06731454  0.00000000       0.007
   0.08975272  0.06731454  0.00000000       0.014
   0.11219090  0.06731454  0.00000000       0.014
   0.13462908  0.06731454  0.00000000       0.007
   0.08975272  0.08975272  0.00000000       0.007
   0.11219090  0.08975272  0.00000000       0.014
   0.13462908  0.08975272  0.00000000       0.007
   0.11219090  0.11219090  0.00000000       0.007
   0.13462908  0.11219090  0.00000000       0.007
   0.13462908  0.13462908  0.00000000       0.002
   0.02243818  0.02243818  0.02243818       0.005
   0.04487636  0.02243818  0.02243818       0.014
   0.06731454  0.02243818  0.02243818       0.014
   0.08975272  0.02243818  0.02243818       0.014
   0.11219090  0.02243818  0.02243818       0.014
   0.13462908  0.02243818  0.02243818       0.007
   0.04487636  0.04487636  0.02243818       0.014
   0.06731454  0.04487636  0.02243818       0.028
   0.08975272  0.04487636  0.02243818       0.028
   0.11219090  0.04487636  0.02243818       0.028
   0.13462908  0.04487636  0.02243818       0.014
   0.06731454  0.06731454  0.02243818       0.014
   0.08975272  0.06731454  0.02243818       0.028
   0.11219090  0.06731454  0.02243818       0.028
   0.13462908  0.06731454  0.02243818       0.014
   0.08975272  0.08975272  0.02243818       0.014
   0.11219090  0.08975272  0.02243818       0.028
   0.13462908  0.08975272  0.02243818       0.014
   0.11219090  0.11219090  0.02243818       0.014
   0.13462908  0.11219090  0.02243818       0.014
   0.13462908  0.13462908  0.02243818       0.003
   0.04487636  0.04487636  0.04487636       0.005
   0.06731454  0.04487636  0.04487636       0.014
   0.08975272  0.04487636  0.04487636       0.014
   0.11219090  0.04487636  0.04487636       0.014
   0.13462908  0.04487636  0.04487636       0.007
   0.06731454  0.06731454  0.04487636       0.014
   0.08975272  0.06731454  0.04487636       0.028
   0.11219090  0.06731454  0.04487636       0.028
   0.13462908  0.06731454  0.04487636       0.014
   0.08975272  0.08975272  0.04487636       0.014
   0.11219090  0.08975272  0.04487636       0.028
   0.13462908  0.08975272  0.04487636       0.014
   0.11219090  0.11219090  0.04487636       0.014
   0.13462908  0.11219090  0.04487636       0.014
   0.13462908  0.13462908  0.04487636       0.003
   0.06731454  0.06731454  0.06731454       0.005
   0.08975272  0.06731454  0.06731454       0.014
   0.11219090  0.06731454  0.06731454       0.014
   0.13462908  0.06731454  0.06731454       0.007
   0.08975272  0.08975272  0.06731454       0.014
   0.11219090  0.08975272  0.06731454       0.028
   0.13462908  0.08975272  0.06731454       0.014
   0.11219090  0.11219090  0.06731454       0.014
   0.13462908  0.11219090  0.06731454       0.014
   0.13462908  0.13462908  0.06731454       0.003
   0.08975272  0.08975272  0.08975272       0.005
   0.11219090  0.08975272  0.08975272       0.014
   0.13462908  0.08975272  0.08975272       0.007
   0.11219090  0.11219090  0.08975272       0.014
   0.13462908  0.11219090  0.08975272       0.014
   0.13462908  0.13462908  0.08975272       0.003
   0.11219090  0.11219090  0.11219090       0.005
   0.13462908  0.11219090  0.11219090       0.007
   0.13462908  0.13462908  0.11219090       0.003
   0.13462908  0.13462908  0.13462908       0.001
 
 k-points in reciprocal lattice and weights: kpt_density=1000                        
   0.00000000  0.00000000  0.00000000       0.001
   0.08333333  0.00000000  0.00000000       0.003
   0.16666667  0.00000000  0.00000000       0.003
   0.25000000  0.00000000  0.00000000       0.003
   0.33333333  0.00000000  0.00000000       0.003
   0.41666667  0.00000000  0.00000000       0.003
   0.50000000  0.00000000  0.00000000       0.002
   0.08333333  0.08333333  0.00000000       0.007
   0.16666667  0.08333333  0.00000000       0.014
   0.25000000  0.08333333  0.00000000       0.014
   0.33333333  0.08333333  0.00000000       0.014
   0.41666667  0.08333333  0.00000000       0.014
   0.50000000  0.08333333  0.00000000       0.007
   0.16666667  0.16666667  0.00000000       0.007
   0.25000000  0.16666667  0.00000000       0.014
   0.33333333  0.16666667  0.00000000       0.014
   0.41666667  0.16666667  0.00000000       0.014
   0.50000000  0.16666667  0.00000000       0.007
   0.25000000  0.25000000  0.00000000       0.007
   0.33333333  0.25000000  0.00000000       0.014
   0.41666667  0.25000000  0.00000000       0.014
   0.50000000  0.25000000  0.00000000       0.007
   0.33333333  0.33333333  0.00000000       0.007
   0.41666667  0.33333333  0.00000000       0.014
   0.50000000  0.33333333  0.00000000       0.007
   0.41666667  0.41666667  0.00000000       0.007
   0.50000000  0.41666667  0.00000000       0.007
   0.50000000  0.50000000  0.00000000       0.002
   0.08333333  0.08333333  0.08333333       0.005
   0.16666667  0.08333333  0.08333333       0.014
   0.25000000  0.08333333  0.08333333       0.014
   0.33333333  0.08333333  0.08333333       0.014
   0.41666667  0.08333333  0.08333333       0.014
   0.50000000  0.08333333  0.08333333       0.007
   0.16666667  0.16666667  0.08333333       0.014
   0.25000000  0.16666667  0.08333333       0.028
   0.33333333  0.16666667  0.08333333       0.028
   0.41666667  0.16666667  0.08333333       0.028
   0.50000000  0.16666667  0.08333333       0.014
   0.25000000  0.25000000  0.08333333       0.014
   0.33333333  0.25000000  0.08333333       0.028
   0.41666667  0.25000000  0.08333333       0.028
   0.50000000  0.25000000  0.08333333       0.014
   0.33333333  0.33333333  0.08333333       0.014
   0.41666667  0.33333333  0.08333333       0.028
   0.50000000  0.33333333  0.08333333       0.014
   0.41666667  0.41666667  0.08333333       0.014
   0.50000000  0.41666667  0.08333333       0.014
   0.50000000  0.50000000  0.08333333       0.003
   0.16666667  0.16666667  0.16666667       0.005
   0.25000000  0.16666667  0.16666667       0.014
   0.33333333  0.16666667  0.16666667       0.014
   0.41666667  0.16666667  0.16666667       0.014
   0.50000000  0.16666667  0.16666667       0.007
   0.25000000  0.25000000  0.16666667       0.014
   0.33333333  0.25000000  0.16666667       0.028
   0.41666667  0.25000000  0.16666667       0.028
   0.50000000  0.25000000  0.16666667       0.014
   0.33333333  0.33333333  0.16666667       0.014
   0.41666667  0.33333333  0.16666667       0.028
   0.50000000  0.33333333  0.16666667       0.014
   0.41666667  0.41666667  0.16666667       0.014
   0.50000000  0.41666667  0.16666667       0.014
   0.50000000  0.50000000  0.16666667       0.003
   0.25000000  0.25000000  0.25000000       0.005
   0.33333333  0.25000000  0.25000000       0.014
   0.41666667  0.25000000  0.25000000       0.014
   0.50000000  0.25000000  0.25000000       0.007
   0.33333333  0.33333333  0.25000000       0.014
   0.41666667  0.33333333  0.25000000       0.028
   0.50000000  0.33333333  0.25000000       0.014
   0.41666667  0.41666667  0.25000000       0.014
   0.50000000  0.41666667  0.25000000       0.014
   0.50000000  0.50000000  0.25000000       0.003
   0.33333333  0.33333333  0.33333333       0.005
   0.41666667  0.33333333  0.33333333       0.014
   0.50000000  0.33333333  0.33333333       0.007
   0.41666667  0.41666667  0.33333333       0.014
   0.50000000  0.41666667  0.33333333       0.014
   0.50000000  0.50000000  0.33333333       0.003
   0.41666667  0.41666667  0.41666667       0.005
   0.50000000  0.41666667  0.41666667       0.007
   0.50000000  0.50000000  0.41666667       0.003
   0.50000000  0.50000000  0.50000000       0.001
 
 position of ions in fractional coordinates (direct lattice) 
   0.25000000  0.75000000  0.25000000
   0.00000000  0.00000000  0.50000000
   0.25000000  0.25000000  0.75000000
   0.00000000  0.50000000  0.00000000
   0.75000000  0.75000000  0.75000000
   0.50000000  0.00000000  0.00000000
   0.75000000  0.25000000  0.25000000
   0.50000000  0.50000000  0.50000000
 
 position of ions in cartesian coordinates  (Angst):
   0.92847700  2.78543100  0.92847700
   0.00000000  0.00000000  1.85695400
   0.92847700  0.92847700  2.78543100
   0.00000000  1.85695400  0.00000000
   2.78543100  2.78543100  2.78543100
   1.85695400  0.00000000  0.00000000
   2.78543100  0.92847700  0.92847700
   1.85695400  1.85695400  1.85695400
 


--------------------------------------------------------------------------------------------------------


 k-point  1 :   0.0000 0.0000 0.0000  plane waves:     925
 k-point  2 :   0.0833 0.0000 0.0000  plane waves:     928
 k-point  3 :   0.1667 0.0000 0.0000  plane waves:     920
 k-point  4 :   0.2500 0.0000 0.0000  plane waves:     932
 k-point  5 :   0.3333 0.0000 0.0000  plane waves:     920
 k-point  6 :   0.4167 0.0000 0.0000  plane waves:     932
 k-point  7 :   0.5000 0.0000 0.0000  plane waves:     916
 k-point  8 :   0.0833 0.0833 0.0000  plane waves:     925
 k-point  9 :   0.1667 0.0833 0.0000  plane waves:     927
 k-point 10 :   0.2500 0.0833 0.0000  plane waves:     932
 k-point 11 :   0.3333 0.0833 0.0000  plane waves:     923
 k-point 12 :   0.4167 0.0833 0.0000  plane waves:     918
 k-point 13 :   0.5000 0.0833 0.0000  plane waves:     918
 k-point 14 :   0.1667 0.1667 0.0000  plane waves:     931
 k-point 15 :   0.2500 0.1667 0.0000  plane waves:     930
 k-point 16 :   0.3333 0.1667 0.0000  plane waves:     919
 k-point 17 :   0.4167 0.1667 0.0000  plane waves:     922
 k-point 18 :   0.5000 0.1667 0.0000  plane waves:     924
 k-point 19 :   0.2500 0.2500 0.0000  plane waves:     927
 k-point 20 :   0.3333 0.2500 0.0000  plane waves:     924
 k-point 21 :   0.4167 0.2500 0.0000  plane waves:     924
 k-point 22 :   0.5000 0.2500 0.0000  plane waves:     928
 k-point 23 :   0.3333 0.3333 0.0000  plane waves:     940
 k-point 24 :   0.4167 0.3333 0.0000  plane waves:     931
 k-point 25 :   0.5000 0.3333 0.0000  plane waves:     924
 k-point 26 :   0.4167 0.4167 0.0000  plane waves:     922
 k-point 27 :   0.5000 0.4167 0.0000  plane waves:     932
 k-point 28 :   0.5000 0.5000 0.0000  plane waves:     952
 k-point 29 :   0.0833 0.0833 0.0833  plane waves:     934
 k-point 30 :   0.1667 0.0833 0.0833  plane waves:     932
 k-point 31 :   0.2500 0.0833 0.0833  plane waves:     924
 k-point 32 :   0.3333 0.0833 0.0833  plane waves:     927
 k-point 33 :   0.4167 0.0833 0.0833  plane waves:     920
 k-point 34 :   0.5000 0.0833 0.0833  plane waves:     924
 k-point 35 :   0.1667 0.1667 0.0833  plane waves:     932
 k-point 36 :   0.2500 0.1667 0.0833  plane waves:     925
 k-point 37 :   0.3333 0.1667 0.0833  plane waves:     924
 k-point 38 :   0.4167 0.1667 0.0833  plane waves:     924
 k-point 39 :   0.5000 0.1667 0.0833  plane waves:     928
 k-point 40 :   0.2500 0.2500 0.0833  plane waves:     927
 k-point 41 :   0.3333 0.2500 0.0833  plane waves:     922
 k-point 42 :   0.4167 0.2500 0.0833  plane waves:     925
 k-point 43 :   0.5000 0.2500 0.0833  plane waves:     928
 k-point 44 :   0.3333 0.3333 0.0833  plane waves:     925
 k-point 45 :   0.4167 0.3333 0.0833  plane waves:     933
 k-point 46 :   0.5000 0.3333 0.0833  plane waves:     928
 k-point 47 :   0.4167 0.4167 0.0833  plane waves:     929
 k-point 48 :   0.5000 0.4167 0.0833  plane waves:     930
 k-point 49 :   0.5000 0.5000 0.0833  plane waves:     936
 k-point 50 :   0.1667 0.1667 0.1667  plane waves:     922
 k-point 51 :   0.2500 0.1667 0.1667  plane waves:     926
 k-point 52 :   0.3333 0.1667 0.1667  plane waves:     923
 k-point 53 :   0.4167 0.1667 0.1667  plane waves:     922
 k-point 54 :   0.5000 0.1667 0.1667  plane waves:     926
 k-point 55 :   0.2500 0.2500 0.1667  plane waves:     930
 k-point 56 :   0.3333 0.2500 0.1667  plane waves:     927
 k-point 57 :   0.4167 0.2500 0.1667  plane waves:     931
 k-point 58 :   0.5000 0.2500 0.1667  plane waves:     938
 k-point 59 :   0.3333 0.3333 0.1667  plane waves:     934
 k-point 60 :   0.4167 0.3333 0.1667  plane waves:     940
 k-point 61 :   0.5000 0.3333 0.1667  plane waves:     930
 k-point 62 :   0.4167 0.4167 0.1667  plane waves:     937
 k-point 63 :   0.5000 0.4167 0.1667  plane waves:     942
 k-point 64 :   0.5000 0.5000 0.1667  plane waves:     944
 k-point 65 :   0.2500 0.2500 0.2500  plane waves:     925
 k-point 66 :   0.3333 0.2500 0.2500  plane waves:     936
 k-point 67 :   0.4167 0.2500 0.2500  plane waves:     939
 k-point 68 :   0.5000 0.2500 0.2500  plane waves:     936
 k-point 69 :   0.3333 0.3333 0.2500  plane waves:     942
 k-point 70 :   0.4167 0.3333 0.2500  plane waves:     938
 k-point 71 :   0.5000 0.3333 0.2500  plane waves:     944
 k-point 72 :   0.4167 0.4167 0.2500  plane waves:     938
 k-point 73 :   0.5000 0.4167 0.2500  plane waves:     944
 k-point 74 :   0.5000 0.5000 0.2500  plane waves:     944
 k-point 75 :   0.3333 0.3333 0.3333  plane waves:     943
 k-point 76 :   0.4167 0.3333 0.3333  plane waves:     941
 k-point 77 :   0.5000 0.3333 0.3333  plane waves:     942
 k-point 78 :   0.4167 0.4167 0.3333  plane waves:     940
 k-point 79 :   0.5000 0.4167 0.3333  plane waves:     934
 k-point 80 :   0.5000 0.5000 0.3333  plane waves:     940
 k-point 81 :   0.4167 0.4167 0.4167  plane waves:     940
 k-point 82 :   0.5000 0.4167 0.4167  plane waves:     938
 k-point 83 :   0.5000 0.5000 0.4167  plane waves:     940
 k-point 84 :   0.5000 0.5000 0.5000  plane waves:     912

 maximum and minimum number of plane-waves per node :       253      206

 maximum number of plane-waves:       952
 maximum index in each direction: 
   IXMAX=    6   IYMAX=    6   IZMAX=    6
   IXMIN=   -6   IYMIN=   -6   IZMIN=   -6


 parallel 3D FFT for wavefunctions:
    minimum data exchange during FFTs selected (reduces bandwidth)
 parallel 3D FFT for charge:
    minimum data exchange during FFTs selected (reduces bandwidth)


 total amount of memory used by VASP MPI-rank0    34325. kBytes
=======================================================================

   base      :      30000. kBytes
   nonl-proj :       1364. kBytes
   fftplans  :        346. kBytes
   grid      :        481. kBytes
   one-center:          6. kBytes
   wavefun   :       2128. kBytes
 
     INWAV:  cpu time    0.0004: real time    0.0006
 Broyden mixing: mesh for mixing (old mesh)
   NGX = 13   NGY = 13   NGZ = 13
  (NGX  = 48   NGY  = 48   NGZ  = 48)
  gives a total of   2197 points

 initial charge density was supplied:
 charge density of overlapping atoms calculated
 number of electron      32.0000000 magnetization 
 keeping initial charge density in first step


--------------------------------------------------------------------------------------------------------


 Maximum index for augmentation-charges          253 (set IRDMAX)


--------------------------------------------------------------------------------------------------------


 First call to EWALD:  gamma=   0.477
 Maximum number of real-space cells 3x 3x 3
 Maximum number of reciprocal cells 3x 3x 3

    FEWALD:  cpu time    0.0054: real time    0.0054


--------------------------------------- Iteration      1(   1)  ---------------------------------------


    POTLOK:  cpu time    0.0257: real time    0.0299
    SETDIJ:  cpu time    0.0066: real time    0.0066
     EDDAV:  cpu time    4.4262: real time    4.4367
 BZINTS: Fermi energy: 16.827363; 32.000000 electrons
         Band energy:  93.399409;  BLOECHL correction: -0.150316
       DOS:  cpu time    0.1579: real time    0.1579
    --------------------------------------------
      LOOP:  cpu time    4.6165: real time    4.6312

 eigenvalue-minimisations  :  4032
 total energy-change (2. order) : 0.5620720E+02  (-0.1410871E+04)
 number of electron      32.0000000 magnetization 
 augmentation part       32.0000000 magnetization 

 Free energy of the ion-electron system (eV)
  ---------------------------------------------------
  alpha Z        PSCENC =       101.79781223
  Ewald energy   TEWEN  =     -1336.70514717
  -Hartree energ DENC   =       -81.52185337
  -exchange      EXHF   =         0.00000000
  -V(xc)+E(xc)   XCENC  =       111.42302855
  PAW double counting   =       302.65154477     -311.85538214
  entropy T*S    EENTRO =         0.00000000
  eigenvalues    EBANDS =        93.39940887
  atomic energy  EATOM  =      1177.01779097
  Solvation  Ediel_sol  =         0.00000000
  ---------------------------------------------------
  free energy    TOTEN  =        56.20720271 eV

  energy without entropy =       56.20720271  energy(sigma->0) =       56.20720271


--------------------------------------------------------------------------------------------------------




--------------------------------------- Iteration      1(   2)  ---------------------------------------


     EDDAV:  cpu time    5.5240: real time    5.5251
 BZINTS: Fermi energy:  7.716826; 32.000000 electrons
         Band energy: -31.912771;  BLOECHL correction:  0.000000
       DOS:  cpu time    0.0494: real time    0.0494
    --------------------------------------------
      LOOP:  cpu time    5.5734: real time    5.5744

 eigenvalue-minimisations  :  5664
 total energy-change (2. order) :-0.1253122E+03  (-0.1186213E+03)
 number of electron      32.0000000 magnetization 
 augmentation part       32.0000000 magnetization 

 Free energy of the ion-electron system (eV)
  ---------------------------------------------------
  alpha Z        PSCENC =       101.79781223
  Ewald energy   TEWEN  =     -1336.70514717
  -Hartree energ DENC   =       -81.52185337
  -exchange      EXHF   =         0.00000000
  -V(xc)+E(xc)   XCENC  =       111.42302855
  PAW double counting   =       302.65154477     -311.85538214
  entropy T*S    EENTRO =         0.00000000
  eigenvalues    EBANDS =       -31.91277063
  atomic energy  EATOM  =      1177.01779097
  Solvation  Ediel_sol  =         0.00000000
  ---------------------------------------------------
  free energy    TOTEN  =       -69.10497679 eV

  energy without entropy =      -69.10497679  energy(sigma->0) =      -69.10497679


--------------------------------------------------------------------------------------------------------




--------------------------------------- Iteration      1(   3)  ---------------------------------------


     EDDAV:  cpu time    5.3214: real time    5.3240
 BZINTS: Fermi energy:  6.957743; 32.000000 electrons
         Band energy: -36.416338;  BLOECHL correction:  0.000000
       DOS:  cpu time    0.0358: real time    0.0358
    --------------------------------------------
      LOOP:  cpu time    5.3573: real time    5.3598

 eigenvalue-minimisations  :  5224
 total energy-change (2. order) :-0.4503567E+01  (-0.4479447E+01)
 number of electron      32.0000000 magnetization 
 augmentation part       32.0000000 magnetization 

 Free energy of the ion-electron system (eV)
  ---------------------------------------------------
  alpha Z        PSCENC =       101.79781223
  Ewald energy   TEWEN  =     -1336.70514717
  -Hartree energ DENC   =       -81.52185337
  -exchange      EXHF   =         0.00000000
  -V(xc)+E(xc)   XCENC  =       111.42302855
  PAW double counting   =       302.65154477     -311.85538214
  entropy T*S    EENTRO =         0.00000000
  eigenvalues    EBANDS =       -36.41633797
  atomic energy  EATOM  =      1177.01779097
  Solvation  Ediel_sol  =         0.00000000
  ---------------------------------------------------
  free energy    TOTEN  =       -73.60854414 eV

  energy without entropy =      -73.60854414  energy(sigma->0) =      -73.60854414


--------------------------------------------------------------------------------------------------------




--------------------------------------- Iteration      1(   4)  ---------------------------------------


     EDDAV:  cpu time    5.3190: real time    5.3199
 BZINTS: Fermi energy:  6.950225; 32.000000 electrons
         Band energy: -36.472360;  BLOECHL correction:  0.000000
       DOS:  cpu time    0.0404: real time    0.0404
    --------------------------------------------
      LOOP:  cpu time    5.3594: real time    5.3603

 eigenvalue-minimisations  :  5304
 total energy-change (2. order) :-0.5602250E-01  (-0.5597280E-01)
 number of electron      32.0000000 magnetization 
 augmentation part       32.0000000 magnetization 

 Free energy of the ion-electron system (eV)
  ---------------------------------------------------
  alpha Z        PSCENC =       101.79781223
  Ewald energy   TEWEN  =     -1336.70514717
  -Hartree energ DENC   =       -81.52185337
  -exchange      EXHF   =         0.00000000
  -V(xc)+E(xc)   XCENC  =       111.42302855
  PAW double counting   =       302.65154477     -311.85538214
  entropy T*S    EENTRO =         0.00000000
  eigenvalues    EBANDS =       -36.47236047
  atomic energy  EATOM  =      1177.01779097
  Solvation  Ediel_sol  =         0.00000000
  ---------------------------------------------------
  free energy    TOTEN  =       -73.66456663 eV

  energy without entropy =      -73.66456663  energy(sigma->0) =      -73.66456663


--------------------------------------------------------------------------------------------------------




--------------------------------------- Iteration      1(   5)  ---------------------------------------


     EDDAV:  cpu time    5.2018: real time    5.2025
 BZINTS: Fermi energy:  6.928650; 32.000000 electrons
         Band energy: -36.473633;  BLOECHL correction:  0.000000
       DOS:  cpu time    0.0360: real time    0.0499
    CHARGE:  cpu time    0.1429: real time    0.1429
    MIXING:  cpu time    0.0016: real time    0.0016
    --------------------------------------------
      LOOP:  cpu time    5.3824: real time    5.3970

 eigenvalue-minimisations  :  5152
 total energy-change (2. order) :-0.1272844E-02  (-0.1272096E-02)
 number of electron      31.9999998 magnetization 
 augmentation part        0.6930026 magnetization 

 Broyden mixing:
  rms(total) = 0.81953E+00    rms(broyden)= 0.81944E+00
  rms(prec ) = 0.18775E+01
  weight for this iteration     100.00

 Free energy of the ion-electron system (eV)
  ---------------------------------------------------
  alpha Z        PSCENC =       101.79781223
  Ewald energy   TEWEN  =     -1336.70514717
  -Hartree energ DENC   =       -81.52185337
  -exchange      EXHF   =         0.00000000
  -V(xc)+E(xc)   XCENC  =       111.42302855
  PAW double counting   =       302.65154477     -311.85538214
  entropy T*S    EENTRO =         0.00000000
  eigenvalues    EBANDS =       -36.47363332
  atomic energy  EATOM  =      1177.01779097
  Solvation  Ediel_sol  =         0.00000000
  ---------------------------------------------------
  free energy    TOTEN  =       -73.66583948 eV

  energy without entropy =      -73.66583948  energy(sigma->0) =      -73.66583948


--------------------------------------------------------------------------------------------------------




--------------------------------------- Iteration      1(   6)  ---------------------------------------


    POTLOK:  cpu time    0.0199: real time    0.0202
    SETDIJ:  cpu time    0.0059: real time    0.0059
     EDDAV:  cpu time    5.0639: real time    5.0643
 BZINTS: Fermi energy:  7.485663; 32.000000 electrons
         Band energy: -22.631363;  BLOECHL correction:  0.000000
       DOS:  cpu time    0.0359: real time    0.0359
    CHARGE:  cpu time    0.1421: real time    0.1421
    MIXING:  cpu time    0.0020: real time    0.0020
    --------------------------------------------
      LOOP:  cpu time    5.2696: real time    5.2704

 eigenvalue-minimisations  :  4792
 total energy-change (2. order) : 0.1268267E+01  (-0.8651864E-01)
 number of electron      31.9999998 magnetization 
 augmentation part        0.6790509 magnetization 

 Broyden mixing:
  rms(total) = 0.45934E+00    rms(broyden)= 0.45933E+00
  rms(prec ) = 0.10329E+01
  weight for this iteration     100.00

 eigenvalues of (default mixing * dielectric matrix)
  average eigenvalue GAMMA=   2.2180
  2.2180

 Free energy of the ion-electron system (eV)
  ---------------------------------------------------
  alpha Z        PSCENC =       101.79781223
  Ewald energy   TEWEN  =     -1336.70514717
  -Hartree energ DENC   =       -94.94268816
  -exchange      EXHF   =         0.00000000
  -V(xc)+E(xc)   XCENC  =       112.66263183
  PAW double counting   =       372.86826439     -382.46487387
  entropy T*S    EENTRO =         0.00000000
  eigenvalues    EBANDS =       -22.63136294
  atomic energy  EATOM  =      1177.01779097
  Solvation  Ediel_sol  =         0.00000000
  ---------------------------------------------------
  free energy    TOTEN  =       -72.39757271 eV

  energy without entropy =      -72.39757271  energy(sigma->0) =      -72.39757271


--------------------------------------------------------------------------------------------------------




--------------------------------------- Iteration      1(   7)  ---------------------------------------


    POTLOK:  cpu time    0.0235: real time    0.0238
    SETDIJ:  cpu time    0.0056: real time    0.0056
     EDDAV:  cpu time    5.0610: real time    5.0614
 BZINTS: Fermi energy:  8.122074; 32.000000 electrons
         Band energy:  -6.174018;  BLOECHL correction:  0.000000
       DOS:  cpu time    0.0360: real time    0.0360
    CHARGE:  cpu time    0.1515: real time    0.1516
    MIXING:  cpu time    0.0019: real time    0.0019
    --------------------------------------------
      LOOP:  cpu time    5.2795: real time    5.2804

 eigenvalue-minimisations  :  4832
 total energy-change (2. order) : 0.4298569E+00  (-0.1013677E+00)
 number of electron      31.9999998 magnetization 
 augmentation part        0.6641688 magnetization 

 Broyden mixing:
  rms(total) = 0.65401E-01    rms(broyden)= 0.65349E-01
  rms(prec ) = 0.11396E+00
  weight for this iteration     100.00

 eigenvalues of (default mixing * dielectric matrix)
  average eigenvalue GAMMA=   2.2617
  1.9948  2.5286

 Free energy of the ion-electron system (eV)
  ---------------------------------------------------
  alpha Z        PSCENC =       101.79781223
  Ewald energy   TEWEN  =     -1336.70514717
  -Hartree energ DENC   =      -112.22673502
  -exchange      EXHF   =         0.00000000
  -V(xc)+E(xc)   XCENC  =       114.28715863
  PAW double counting   =       466.72872565     -476.69330336
  entropy T*S    EENTRO =         0.00000000
  eigenvalues    EBANDS =        -6.17401776
  atomic energy  EATOM  =      1177.01779097
  Solvation  Ediel_sol  =         0.00000000
  ---------------------------------------------------
  free energy    TOTEN  =       -71.96771582 eV

  energy without entropy =      -71.96771582  energy(sigma->0) =      -71.96771582


--------------------------------------------------------------------------------------------------------




--------------------------------------- Iteration      1(   8)  ---------------------------------------


    POTLOK:  cpu time    0.0223: real time    0.0226
    SETDIJ:  cpu time    0.0058: real time    0.0058
     EDDAV:  cpu time    5.3128: real time    5.3133
 BZINTS: Fermi energy:  8.123843; 32.000000 electrons
         Band energy:  -5.971798;  BLOECHL correction:  0.000000
       DOS:  cpu time    0.0360: real time    0.0360
    CHARGE:  cpu time    0.1387: real time    0.1387
    MIXING:  cpu time    0.0018: real time    0.0018
    --------------------------------------------
      LOOP:  cpu time    5.5175: real time    5.5183

 eigenvalue-minimisations  :  5200
 total energy-change (2. order) :-0.6033470E-02  (-0.2119880E-02)
 number of electron      31.9999998 magnetization 
 augmentation part        0.6650593 magnetization 

 Broyden mixing:
  rms(total) = 0.73687E-02    rms(broyden)= 0.73561E-02
  rms(prec ) = 0.12859E-01
  weight for this iteration     100.00

 eigenvalues of (default mixing * dielectric matrix)
  average eigenvalue GAMMA=   2.1036
  1.4481  2.6740  2.1888

 Free energy of the ion-electron system (eV)
  ---------------------------------------------------
  alpha Z        PSCENC =       101.79781223
  Ewald energy   TEWEN  =     -1336.70514717
  -Hartree energ DENC   =      -112.58744913
  -exchange      EXHF   =         0.00000000
  -V(xc)+E(xc)   XCENC  =       114.32254605
  PAW double counting   =       471.07389692     -480.92140142
  entropy T*S    EENTRO =         0.00000000
  eigenvalues    EBANDS =        -5.97179775
  atomic energy  EATOM  =      1177.01779097
  Solvation  Ediel_sol  =         0.00000000
  ---------------------------------------------------
  free energy    TOTEN  =       -71.97374929 eV

  energy without entropy =      -71.97374929  energy(sigma->0) =      -71.97374929


--------------------------------------------------------------------------------------------------------




--------------------------------------- Iteration      1(   9)  ---------------------------------------


    POTLOK:  cpu time    0.0232: real time    0.0237
    SETDIJ:  cpu time    0.0059: real time    0.0059
     EDDAV:  cpu time    5.2600: real time    5.2604
 BZINTS: Fermi energy:  8.118947; 32.000000 electrons
         Band energy:  -6.072333;  BLOECHL correction:  0.000000
       DOS:  cpu time    0.0360: real time    0.0360
    CHARGE:  cpu time    0.1553: real time    0.1553
    MIXING:  cpu time    0.0022: real time    0.0022
    --------------------------------------------
      LOOP:  cpu time    5.4825: real time    5.4835

 eigenvalue-minimisations  :  4976
 total energy-change (2. order) :-0.2314545E-03  (-0.4347556E-04)
 number of electron      31.9999998 magnetization 
 augmentation part        0.6650063 magnetization 

 Broyden mixing:
  rms(total) = 0.26580E-02    rms(broyden)= 0.26573E-02
  rms(prec ) = 0.48385E-02
  weight for this iteration     100.00

 eigenvalues of (default mixing * dielectric matrix)
  average eigenvalue GAMMA=   2.0646
  0.9773  2.8020  2.4929  1.9862

 Free energy of the ion-electron system (eV)
  ---------------------------------------------------
  alpha Z        PSCENC =       101.79781223
  Ewald energy   TEWEN  =     -1336.70514717
  -Hartree energ DENC   =      -112.49034603
  -exchange      EXHF   =         0.00000000
  -V(xc)+E(xc)   XCENC  =       114.31313068
  PAW double counting   =       470.23001987     -480.06490782
  entropy T*S    EENTRO =         0.00000000
  eigenvalues    EBANDS =        -6.07233349
  atomic energy  EATOM  =      1177.01779097
  Solvation  Ediel_sol  =         0.00000000
  ---------------------------------------------------
  free energy    TOTEN  =       -71.97398075 eV

  energy without entropy =      -71.97398075  energy(sigma->0) =      -71.97398075


--------------------------------------------------------------------------------------------------------




--------------------------------------- Iteration      1(  10)  ---------------------------------------


    POTLOK:  cpu time    0.0206: real time    0.0211
    SETDIJ:  cpu time    0.0062: real time    0.0062
     EDDAV:  cpu time    4.7139: real time    4.7143
 BZINTS: Fermi energy:  8.120139; 32.000000 electrons
         Band energy:  -6.029922;  BLOECHL correction:  0.000000
       DOS:  cpu time    0.0356: real time    0.0356
    CHARGE:  cpu time    0.1190: real time    0.1191
    MIXING:  cpu time    0.0022: real time    0.0022
    --------------------------------------------
      LOOP:  cpu time    4.8976: real time    4.8985

 eigenvalue-minimisations  :  5104
 total energy-change (2. order) :-0.5756318E-04  (-0.5756350E-05)
 number of electron      31.9999998 magnetization 
 augmentation part        0.6649779 magnetization 

 Broyden mixing:
  rms(total) = 0.25349E-03    rms(broyden)= 0.25290E-03
  rms(prec ) = 0.59284E-03
  weight for this iteration     100.00

 eigenvalues of (default mixing * dielectric matrix)
  average eigenvalue GAMMA=   1.9785
  2.9652  2.5602  2.0717  0.9837  1.3120

 Free energy of the ion-electron system (eV)
  ---------------------------------------------------
  alpha Z        PSCENC =       101.79781223
  Ewald energy   TEWEN  =     -1336.70514717
  -Hartree energ DENC   =      -112.53491380
  -exchange      EXHF   =         0.00000000
  -V(xc)+E(xc)   XCENC  =       114.31704267
  PAW double counting   =       469.82787407     -479.66457527
  entropy T*S    EENTRO =         0.00000000
  eigenvalues    EBANDS =        -6.02992201
  atomic energy  EATOM  =      1177.01779097
  Solvation  Ediel_sol  =         0.00000000
  ---------------------------------------------------
  free energy    TOTEN  =       -71.97403831 eV

  energy without entropy =      -71.97403831  energy(sigma->0) =      -71.97403831


--------------------------------------------------------------------------------------------------------




--------------------------------------- Iteration      1(  11)  ---------------------------------------


    POTLOK:  cpu time    0.0200: real time    0.0203
    SETDIJ:  cpu time    0.0058: real time    0.0058
     EDDAV:  cpu time    4.1181: real time    4.1185
 BZINTS: Fermi energy:  8.120469; 32.000000 electrons
         Band energy:  -6.017468;  BLOECHL correction:  0.000000
       DOS:  cpu time    0.0360: real time    0.0360
    --------------------------------------------
      LOOP:  cpu time    4.1798: real time    4.1805

 eigenvalue-minimisations  :  3736
 total energy-change (2. order) :-0.3300308E-06  (-0.1141520E-06)
 number of electron      31.9999998 magnetization 
 augmentation part        0.6649779 magnetization 

 Free energy of the ion-electron system (eV)
  ---------------------------------------------------
  alpha Z        PSCENC =       101.79781223
  Ewald energy   TEWEN  =     -1336.70514717
  -Hartree energ DENC   =      -112.54796940
  -exchange      EXHF   =         0.00000000
  -V(xc)+E(xc)   XCENC  =       114.31826806
  PAW double counting   =       469.86936384     -479.70668956
  entropy T*S    EENTRO =         0.00000000
  eigenvalues    EBANDS =        -6.01746762
  atomic energy  EATOM  =      1177.01779097
  Solvation  Ediel_sol  =         0.00000000
  ---------------------------------------------------
  free energy    TOTEN  =       -71.97403864 eV

  energy without entropy =      -71.97403864  energy(sigma->0) =      -71.97403864


--------------------------------------------------------------------------------------------------------




 average (electrostatic) potential at core
  the test charge radii are     0.6991
  (the norm of the test charge is              1.0000)
       1 -47.0990       2 -47.0990       3 -47.0990       4 -47.0990       5 -47.0990
       6 -47.0990       7 -47.0990       8 -47.0990
 
 
 
 E-fermi :   8.1205     XC(G=0): -12.6247     alpha+bet :-15.6778


 k-point     1 :       0.0000    0.0000    0.0000
  band No.  band energies     occupation 
      1     -11.8411      2.00000
      2      -3.8808      2.00000
      3      -3.8808      2.00000
      4      -3.8808      2.00000
      5      -3.8808      2.00000
      6      -3.8808      2.00000
      7      -3.8808      2.00000
      8       2.4841      2.00000
      9       2.4841      2.00000
     10       2.4841      2.00000
     11       2.4841      2.00000
     12       2.4841      2.00000
     13       2.4841      2.00000
     14       8.0729      2.00000
     15       8.0729      2.00000
     16       8.0729      2.00000
     17      12.5789      0.00000
     18      12.5789      0.00000
     19      12.5789      0.00000
     20      12.5789      0.00000
     21      12.5789      0.00000
     22      12.5789      0.00000
     23      13.3414      0.00000
     24      13.3414      0.00000

 k-point     2 :       0.0833    0.0000    0.0000
  band No.  band energies     occupation 
      1     -11.7822      2.00000
      2      -5.0646      2.00000
      3      -3.8474      2.00000
      4      -3.8474      2.00000
      5      -3.8474      2.00000
      6      -3.8474      2.00000
      7      -2.6424      2.00000
      8       2.3591      2.00000
      9       2.3591      2.00000
     10       2.3591      2.00000
     11       2.3591      2.00000
     12       2.5406      2.00000
     13       2.5406      2.00000
     14       7.8480      2.00000
     15       7.8480      2.00000
     16       7.9134      2.00000
     17      12.2490      0.00000
     18      12.8177      0.00000
     19      12.8177      0.00000
     20      12.8177      0.00000
     21      12.8177      0.00000
     22      13.0467      0.00000
     23      13.2913      0.00000
     24      13.6145      0.00000

 k-point     3 :       0.1667    0.0000    0.0000
  band No.  band energies     occupation 
      1     -11.6056      2.00000
      2      -6.1797      2.00000
      3      -3.7520      2.00000
      4      -3.7520      2.00000
      5      -3.7520      2.00000
      6      -3.7520      2.00000
      7      -1.3678      2.00000
      8       2.0282      2.00000
      9       2.0282      2.00000
     10       2.0282      2.00000
     11       2.0282      2.00000
     12       2.7095      2.00000
     13       2.7095      2.00000
     14       7.2930      2.00000
     15       7.2930      2.00000
     16       7.4648      2.00000
     17      12.0426      0.00000
     18      13.1595      0.00000
     19      13.4899      0.00000
     20      13.4899      0.00000
     21      13.4899      0.00000
     22      13.4899      0.00000
     23      13.6604      0.00000
     24      14.3269      0.00000

 k-point     4 :       0.2500    0.0000    0.0000
  band No.  band energies     occupation 
      1     -11.3121      2.00000
      2      -7.2136      2.00000
      3      -3.6100      2.00000
      4      -3.6100      2.00000
      5      -3.6100      2.00000
      6      -3.6100      2.00000
      7      -0.0759      2.00000
      8       1.5948      2.00000
      9       1.5948      2.00000
     10       1.5948      2.00000
     11       1.5948      2.00000
     12       2.9872      2.00000
     13       2.9872      2.00000
     14       6.5746      2.00000
     15       6.5746      2.00000
     16       6.7511      2.00000
     17      11.9534      0.00000
     18      12.9491      0.00000
     19      14.4245      0.00000
     20      14.4955      0.00000
     21      14.4955      0.00000
     22      14.4955      0.00000
     23      14.4955      0.00000
     24      15.2801      0.00000

 k-point     5 :       0.3333    0.0000    0.0000
  band No.  band energies     occupation 
      1     -10.9030      2.00000
      2      -8.1573      2.00000
      3      -3.4509      2.00000
      4      -3.4509      2.00000
      5      -3.4509      2.00000
      6      -3.4509      2.00000
      7       1.1731      2.00000
      8       1.1731      2.00000
      9       1.1731      2.00000
     10       1.1731      2.00000
     11       1.2119      2.00000
     12       3.3749      2.00000
     13       3.3749      2.00000
     14       5.8249      2.00000
     15       5.8249      2.00000
     16       5.8543      2.00000
     17      11.9673      0.00000
     18      12.7004      0.00000
     19      15.3319      0.00000
     20      15.7266      0.00000
     21      15.7266      0.00000
     22      15.7266      0.00000
     23      15.7267      0.00000
     24      16.3594      0.00000

 k-point     6 :       0.4167    0.0000    0.0000
  band No.  band energies     occupation 
      1     -10.3800      2.00000
      2      -9.0032      2.00000
      3      -3.3201      2.00000
      4      -3.3201      2.00000
      5      -3.3201      2.00000
      6      -3.3201      2.00000
      7       0.8635      2.00000
      8       0.8635      2.00000
      9       0.8635      2.00000
     10       0.8635      2.00000
     11       2.4738      2.00000
     12       3.8577      2.00000
     13       3.8577      2.00000
     14       4.8192      2.00000
     15       5.1006      2.00000
     16       5.1006      2.00000
     17      12.0674      0.00000
     18      12.4529      0.00000
     19      16.3546      0.00000
     20      17.0712      0.00000
     21      17.0712      0.00000
     22      17.0712      0.00000
     23      17.0722      0.00000
     24      17.4868      0.00000

 k-point     7 :       0.5000    0.0000    0.0000
  band No.  band energies     occupation 
      1      -9.7456      2.00000
      2      -9.7456      2.00000
      3      -3.2683      2.00000
      4      -3.2683      2.00000
      5      -3.2683      2.00000
      6      -3.2683      2.00000
      7       0.7507      2.00000
      8       0.7507      2.00000
      9       0.7507      2.00000
     10       0.7507      2.00000
     11       3.6834      2.00000
     12       3.6834      2.00000
     13       4.4383      2.00000
     14       4.4383      2.00000
     15       4.4383      2.00000
     16       4.4383      2.00000
     17      12.2323      0.00000
     18      12.2323      0.00000
     19      17.4054      0.00000
     20      17.4054      0.00000
     21      18.1660      0.00000
     22      18.1661      0.00000
     23      18.1681      0.00000
     24      18.1736      0.00000

 k-point     8 :       0.0833    0.0833    0.0000
  band No.  band energies     occupation 
      1     -11.7233      2.00000
      2      -5.0228      2.00000
      3      -5.0228      2.00000
      4      -3.8595      2.00000
      5      -3.7727      2.00000
      6      -2.6224      2.00000
      7      -2.6224      2.00000
      8       1.9319      2.00000
      9       2.4022      2.00000
     10       2.4022      2.00000
     11       2.4342      2.00000
     12       2.4342      2.00000
     13       2.5784      2.00000
     14       7.4299      2.00000
     15       7.6329      2.00000
     16       8.0042      2.00000
     17      12.4943      0.00000
     18      12.4943      0.00000
     19      12.6755      0.00000
     20      13.2771      0.00000
     21      13.2771      0.00000
     22      13.3983      0.00000
     23      13.4585      0.00000
     24      13.6691      0.00000

 k-point     9 :       0.1667    0.0833    0.0000
  band No.  band energies     occupation 
      1     -11.5469      2.00000
      2      -6.1324      2.00000
      3      -4.9002      2.00000
      4      -3.8237      2.00000
      5      -3.6317      2.00000
      6      -2.5699      2.00000
      7      -1.3695      2.00000
      8       1.3957      2.00000
      9       2.0346      2.00000
     10       2.1582      2.00000
     11       2.5502      2.00000
     12       2.5597      2.00000
     13       2.6286      2.00000
     14       6.7551      2.00000
     15       7.0843      2.00000
     16       7.7569      2.00000
     17      12.2925      0.00000
     18      13.0070      0.00000
     19      13.1821      0.00000
     20      13.3856      0.00000
     21      13.8807      0.00000
     22      13.9290      0.00000
     23      14.3127      0.00000
     24      14.3224      0.00000

 k-point    10 :       0.2500    0.0833    0.0000
  band No.  band energies     occupation 
      1     -11.2537      2.00000
      2      -7.1627      2.00000
      3      -4.7066      2.00000
      4      -3.7690      2.00000
      5      -3.4300      2.00000
      6      -2.5099      2.00000
      7      -0.1138      2.00000
      8       0.8731      2.00000
      9       1.5405      2.00000
     10       1.8139      2.00000
     11       2.3169      2.00000
     12       2.8279      2.00000
     13       2.9476      2.00000
     14       5.9653      2.00000
     15       6.3789      2.00000
     16       7.1969      2.00000
     17      12.2064      0.00000
     18      13.1919      0.00000
     19      13.7616      0.00000
     20      14.2043      0.00000
     21      14.6326      0.00000
     22      14.9075      0.00000
     23      15.2590      0.00000
     24      15.2644      0.00000

 k-point    11 :       0.3333    0.0833    0.0000
  band No.  band energies     occupation 
      1     -10.8450      2.00000
      2      -8.1038      2.00000
      3      -4.4601      2.00000
      4      -3.7417      2.00000
      5      -3.1837      2.00000
      6      -2.4829      2.00000
      7       0.4676      2.00000
      8       1.0304      2.00000
      9       1.1120      2.00000
     10       1.5216      2.00000
     11       1.9836      2.00000
     12       3.2081      2.00000
     13       3.4008      2.00000
     14       5.1260      2.00000
     15       5.6365      2.00000
     16       6.4363      2.00000
     17      12.2218      0.00000
     18      12.9468      0.00000
     19      14.8332      0.00000
     20      15.4566      0.00000
     21      15.5271      0.00000
     22      16.1037      0.00000
     23      16.2517      0.00000
     24      16.3381      0.00000

 k-point    12 :       0.4167    0.0833    0.0000
  band No.  band energies     occupation 
      1     -10.3226      2.00000
      2      -8.9479      2.00000
      3      -4.1932      2.00000
      4      -3.7946      2.00000
      5      -2.9224      2.00000
      6      -2.5360      2.00000
      7       0.2693      2.00000
      8       0.5959      2.00000
      9       1.3777      2.00000
     10       1.6538      2.00000
     11       2.2674      2.00000
     12       3.6904      2.00000
     13       3.9955      2.00000
     14       4.2525      2.00000
     15       4.9203      2.00000
     16       5.5807      2.00000
     17      12.3210      0.00000
     18      12.7047      0.00000
     19      16.1006      0.00000
     20      16.5298      0.00000
     21      16.8334      0.00000
     22      17.2971      0.00000
     23      17.3708      0.00000
     24      17.4740      0.00000

 k-point    13 :       0.5000    0.0833    0.0000
  band No.  band energies     occupation 
      1      -9.6891      2.00000
      2      -9.6891      2.00000
      3      -3.9535      2.00000
      4      -3.9535      2.00000
      5      -2.6904      2.00000
      6      -2.6904      2.00000
      7       0.3196      2.00000
      8       0.3196      2.00000
      9       1.4291      2.00000
     10       1.4291      2.00000
     11       3.3136      2.00000
     12       3.3136      2.00000
     13       4.2656      2.00000
     14       4.2656      2.00000
     15       4.7354      2.00000
     16       4.7354      2.00000
     17      12.4876      0.00000
     18      12.4876      0.00000
     19      17.4141      0.00000
     20      17.4141      0.00000
     21      17.5356      0.00000
     22      17.5356      0.00000
     23      18.2238      0.00000
     24      18.2356      0.00000

 k-point    14 :       0.1667    0.1667    0.0000
  band No.  band energies     occupation 
      1     -11.3710      2.00000
      2      -5.9923      2.00000
      3      -5.9923      2.00000
      4      -3.8752      2.00000
      5      -3.4491      2.00000
      6      -1.3861      2.00000
      7      -1.3861      2.00000
      8       0.7716      2.00000
      9       2.1639      2.00000
     10       2.1639      2.00000
     11       2.4323      2.00000
     12       2.4323      2.00000
     13       2.8615      2.00000
     14       6.0029      2.00000
     15       6.5586      2.00000
     16       7.7871      2.00000
     17      12.9605      0.00000
     18      12.9906      0.00000
     19      12.9906      0.00000
     20      13.8101      0.00000
     21      14.4533      0.00000
     22      14.5061      0.00000
     23      14.5061      0.00000
     24      14.7297      0.00000

 k-point    15 :       0.2500    0.1667    0.0000
  band No.  band energies     occupation 
      1     -11.0787      2.00000
      2      -7.0109      2.00000
      3      -5.7653      2.00000
      4      -3.9529      2.00000
      5      -3.2014      2.00000
      6      -1.4506      2.00000
      7      -0.2397      2.00000
      8       0.2640      2.00000
      9       1.6297      2.00000
     10       2.2205      2.00000
     11       2.4122      2.00000
     12       2.8714      2.00000
     13       2.9222      2.00000
     14       5.1860      2.00000
     15       5.8734      2.00000
     16       7.4637      2.00000
     17      12.9117      0.00000
     18      13.3775      0.00000
     19      13.7968      0.00000
     20      14.0264      0.00000
     21      15.2254      0.00000
     22      15.2301      0.00000
     23      15.2775      0.00000
     24      15.4478      0.00000

 k-point    16 :       0.3333    0.1667    0.0000
  band No.  band energies     occupation 
      1     -10.6714      2.00000
      2      -7.9442      2.00000
      3      -5.4631      2.00000
      4      -4.1112      2.00000
      5      -2.8950      2.00000
      6      -1.6018      2.00000
      7      -0.0310      2.00000
      8       0.8262      2.00000
      9       1.0626      2.00000
     10       2.0978      2.00000
     11       2.7738      2.00000
     12       2.7828      2.00000
     13       3.4875      2.00000
     14       4.3509      2.00000
     15       5.1486      2.00000
     16       6.8482      2.00000
     17      12.9257      0.00000
     18      13.6049      0.00000
     19      14.1993      0.00000
     20      15.2853      0.00000
     21      16.0200      0.00000
     22      16.0790      0.00000
     23      16.2918      0.00000
     24      16.5929      0.00000

 k-point    17 :       0.4167    0.1667    0.0000
  band No.  band energies     occupation 
      1     -10.1509      2.00000
      2      -8.7828      2.00000
      3      -5.1062      2.00000
      4      -4.3780      2.00000
      5      -2.5472      2.00000
      6      -1.8560      2.00000
      7      -0.0658      2.00000
      8       0.5438      2.00000
      9       1.7899      2.00000
     10       2.1236      2.00000
     11       2.5386      2.00000
     12       3.2405      2.00000
     13       3.5148      2.00000
     14       4.2679      2.00000
     15       4.4453      2.00000
     16       6.0422      2.00000
     17      13.0226      0.00000
     18      13.3832      0.00000
     19      15.3128      0.00000
     20      16.6638      0.00000
     21      16.8827      0.00000
     22      17.0273      0.00000
     23      17.4359      0.00000
     24      17.5680      0.00000

 k-point    18 :       0.5000    0.1667    0.0000
  band No.  band energies     occupation 
      1      -9.5201      2.00000
      2      -9.5201      2.00000
      3      -4.7280      2.00000
      4      -4.7280      2.00000
      5      -2.1866      2.00000
      6      -2.1866      2.00000
      7       0.1456      2.00000
      8       0.1456      2.00000
      9       2.2898      2.00000
     10       2.2898      2.00000
     11       2.6718      2.00000
[...]

 k-point    72 :       0.4167    0.4167    0.2500
  band No.  band energies     occupation 
      1      -8.4874      2.00000
      2      -7.2523      2.00000
      3      -7.2523      2.00000
      4      -6.3156      2.00000
      5      -3.3211      2.00000
      6      -2.4090      2.00000
      7      -2.4090      2.00000
      8      -1.2027      2.00000
      9       3.0896      2.00000
     10       3.8031      2.00000
     11       3.8031      2.00000
     12       4.8350      2.00000
     13       4.8914      2.00000
     14       5.0433      2.00000
     15       5.0433      2.00000
     16       6.0030      2.00000
     17      15.0444      0.00000
     18      15.5960      0.00000
     19      15.5960      0.00000
     20      15.6676      0.00000
     21      15.9216      0.00000
     22      16.2211      0.00000
     23      16.2211      0.00000
     24      16.3568      0.00000

 k-point    73 :       0.5000    0.4167    0.2500
  band No.  band energies     occupation 
      1      -7.9073      2.00000
      2      -7.9073      2.00000
      3      -6.7739      2.00000
      4      -6.7739      2.00000
      5      -2.9695      2.00000
      6      -2.9695      2.00000
      7      -1.8654      2.00000
      8      -1.8654      2.00000
      9       3.4630      2.00000
     10       3.4630      2.00000
     11       4.3496      2.00000
     12       4.3496      2.00000
     13       5.0821      2.00000
     14       5.0821      2.00000
     15       5.6321      2.00000
     16       5.6321      2.00000
     17      15.5013      0.00000
     18      15.5013      0.00000
     19      15.7912      0.00000
     20      15.7912      0.00000
     21      15.8998      0.00000
     22      15.8998      0.00000
     23      16.5841      0.00000
     24      16.5850      0.00000

 k-point    74 :       0.5000    0.5000    0.2500
  band No.  band energies     occupation 
      1      -7.3629      2.00000
      2      -7.3629      2.00000
      3      -7.3629      2.00000
      4      -7.3629      2.00000
      5      -2.4917      2.00000
      6      -2.4917      2.00000
      7      -2.4917      2.00000
      8      -2.4917      2.00000
      9       3.9249      2.00000
     10       3.9249      2.00000
     11       3.9249      2.00000
     12       3.9249      2.00000
     13       5.4905      2.00000
     14       5.4905      2.00000
     15       5.4905      2.00000
     16       5.4905      2.00000
     17      15.5511      0.00000
     18      15.5511      0.00000
     19      15.5511      0.00000
     20      15.5511      0.00000
     21      16.6107      0.00000
     22      16.6107      0.00000
     23      16.6107      0.00000
     24      16.6110      0.00000

 k-point    75 :       0.3333    0.3333    0.3333
  band No.  band energies     occupation 
      1      -9.0886      2.00000
      2      -6.6597      2.00000
      3      -6.6597      2.00000
      4      -6.6597      2.00000
      5      -2.8990      2.00000
      6      -2.8990      2.00000
      7      -2.8990      2.00000
      8      -0.5204      2.00000
      9       3.5172      2.00000
     10       3.5172      2.00000
     11       3.5172      2.00000
     12       4.5603      2.00000
     13       4.5603      2.00000
     14       4.5603      2.00000
     15       6.0195      2.00000
     16       6.0195      2.00000
     17      14.6722      0.00000
     18      14.6722      0.00000
     19      14.6722      0.00000
     20      15.2664      0.00000
     21      15.8045      0.00000
     22      15.8045      0.00000
     23      17.8154      0.00000
     24      17.8180      0.00000

 k-point    76 :       0.4167    0.3333    0.3333
  band No.  band energies     occupation 
      1      -8.5989      2.00000
      2      -7.3589      2.00000
      3      -6.4154      2.00000
      4      -6.4154      2.00000
      5      -3.4256      2.00000
      6      -3.4256      2.00000
      7      -2.5047      2.00000
      8      -1.2900      2.00000
      9       3.7154      2.00000
     10       3.7154      2.00000
     11       4.5340      2.00000
     12       4.7554      2.00000
     13       4.7554      2.00000
     14       4.8879      2.00000
     15       5.6429      2.00000
     16       5.8858      2.00000
     17      14.9627      0.00000
     18      15.1559      0.00000
     19      15.1559      0.00000
     20      15.3665      0.00000
     21      15.7416      0.00000
     22      16.2139      0.00000
     23      16.8814      0.00000
     24      16.8900      0.00000

 k-point    77 :       0.5000    0.3333    0.3333
  band No.  band energies     occupation 
      1      -8.0167      2.00000
      2      -8.0167      2.00000
      3      -6.3074      2.00000
      4      -6.3074      2.00000
      5      -3.6285      2.00000
      6      -3.6285      2.00000
      7      -1.9583      2.00000
      8      -1.9583      2.00000
      9       3.7833      2.00000
     10       3.7833      2.00000
     11       4.8231      2.00000
     12       4.8231      2.00000
     13       5.2558      2.00000
     14       5.2558      2.00000
     15       5.3556      2.00000
     16       5.3556      2.00000
     17      15.2333      0.00000
     18      15.2333      0.00000
     19      15.8522      0.00000
     20      15.8522      0.00000
     21      16.0063      0.00000
     22      16.0063      0.00000
     23      16.1575      0.00000
     24      16.1576      0.00000

 k-point    78 :       0.4167    0.4167    0.3333
  band No.  band energies     occupation 
      1      -8.1280      2.00000
      2      -6.9847      2.00000
      3      -6.9847      2.00000
      4      -6.4124      2.00000
      5      -3.7258      2.00000
      6      -3.1650      2.00000
      7      -3.1650      2.00000
      8      -2.0455      2.00000
      9       4.1124      2.00000
     10       4.5417      2.00000
     11       4.5417      2.00000
     12       5.0733      2.00000
     13       5.1330      2.00000
     14       5.1330      2.00000
     15       5.4424      2.00000
     16       5.8663      2.00000
     17      15.2619      0.00000
     18      15.4113      0.00000
     19      15.4113      0.00000
     20      15.4420      0.00000
     21      15.9040      0.00000
     22      16.1109      0.00000
     23      16.2876      0.00000
     24      16.2877      0.00000

 k-point    79 :       0.5000    0.4167    0.3333
  band No.  band energies     occupation 
      1      -7.5790      2.00000
      2      -7.5790      2.00000
      3      -6.6291      2.00000
      4      -6.6291      2.00000
      5      -3.6132      2.00000
      6      -3.6132      2.00000
      7      -2.6823      2.00000
      8      -2.6823      2.00000
      9       4.3793      2.00000
     10       4.3793      2.00000
     11       5.0760      2.00000
     12       5.0760      2.00000
     13       5.2207      2.00000
     14       5.2207      2.00000
     15       5.5882      2.00000
     16       5.5882      2.00000
     17      15.5690      0.00000
     18      15.5690      0.00000
     19      15.6585      0.00000
     20      15.6585      0.00000
     21      15.9167      0.00000
     22      15.9167      0.00000
     23      16.1219      0.00000
     24      16.1221      0.00000

 k-point    80 :       0.5000    0.5000    0.3333
  band No.  band energies     occupation 
      1      -7.0936      2.00000
      2      -7.0936      2.00000
      3      -7.0936      2.00000
      4      -7.0936      2.00000
      5      -3.2579      2.00000
      6      -3.2579      2.00000
      7      -3.2579      2.00000
      8      -3.2579      2.00000
      9       4.7779      2.00000
     10       4.7779      2.00000
     11       4.7779      2.00000
     12       4.7779      2.00000
     13       5.5366      2.00000
     14       5.5366      2.00000
     15       5.5366      2.00000
     16       5.5366      2.00000
     17      15.6037      0.00000
     18      15.6037      0.00000
     19      15.6037      0.00000
     20      15.6037      0.00000
     21      16.3142      0.00000
     22      16.3145      0.00000
     23      16.3155      0.00000
     24      16.3162      0.00000

 k-point    81 :       0.4167    0.4167    0.4167
  band No.  band energies     occupation 
      1      -7.6885      2.00000
      2      -6.7344      2.00000
      3      -6.7344      2.00000
      4      -6.7344      2.00000
      5      -3.7139      2.00000
      6      -3.7139      2.00000
      7      -3.7139      2.00000
      8      -2.7772      2.00000
      9       4.9597      2.00000
     10       4.9597      2.00000
     11       4.9597      2.00000
     12       5.2785      2.00000
     13       5.2785      2.00000
     14       5.2785      2.00000
     15       5.6922      2.00000
     16       5.6922      2.00000
     17      15.3241      0.00000
     18      15.4535      0.00000
     19      15.4535      0.00000
     20      15.4535      0.00000
     21      15.9948      0.00000
     22      15.9949      0.00000
     23      16.2414      0.00000
     24      16.2414      0.00000

 k-point    82 :       0.5000    0.4167    0.4167
  band No.  band energies     occupation 
      1      -7.2009      2.00000
      2      -7.2009      2.00000
      3      -6.6233      2.00000
      4      -6.6233      2.00000
      5      -3.9252      2.00000
      6      -3.9252      2.00000
      7      -3.3573      2.00000
      8      -3.3573      2.00000
      9       5.0481      2.00000
     10       5.0481      2.00000
     11       5.3887      2.00000
     12       5.3887      2.00000
     13       5.4910      2.00000
     14       5.4910      2.00000
     15       5.5207      2.00000
     16       5.5207      2.00000
     17      15.4419      0.00000
     18      15.4419      0.00000
     19      15.6310      0.00000
     20      15.6310      0.00000
     21      15.9345      0.00000
     22      15.9345      0.00000
     23      15.9532      0.00000
     24      15.9535      0.00000

 k-point    83 :       0.5000    0.5000    0.4167
  band No.  band energies     occupation 
      1      -6.8413      2.00000
      2      -6.8413      2.00000
      3      -6.8413      2.00000
      4      -6.8413      2.00000
      5      -3.8134      2.00000
      6      -3.8134      2.00000
      7      -3.8134      2.00000
      8      -3.8134      2.00000
      9       5.3678      2.00000
     10       5.3678      2.00000
     11       5.3678      2.00000
     12       5.3678      2.00000
     13       5.5694      2.00000
     14       5.5694      2.00000
     15       5.5694      2.00000
     16       5.5694      2.00000
     17      15.4610      0.00000
     18      15.4610      0.00000
     19      15.4610      0.00000
     20      15.4610      0.00000
     21      16.0566      0.00000
     22      16.0574      0.00000
     23      16.0661      0.00000
     24      16.0775      0.00000

 k-point    84 :       0.5000    0.5000    0.5000
  band No.  band energies     occupation 
      1      -6.7290      2.00000
      2      -6.7290      2.00000
      3      -6.7290      2.00000
      4      -6.7290      2.00000
      5      -4.0271      2.00000
      6      -4.0271      2.00000
      7      -4.0271      2.00000
      8      -4.0271      2.00000
      9       5.5821      2.00000
     10       5.5821      2.00000
     11       5.5821      2.00000
     12       5.5821      2.00000
     13       5.5821      2.00000
     14       5.5821      2.00000
     15       5.5821      2.00000
     16       5.5821      2.00000
     17      15.3391      0.00000
     18      15.3391      0.00000
     19      15.3391      0.00000
     20      15.3391      0.00000
     21      16.0433      0.00000
     22      16.0433      0.00000
     23      16.0433      0.00000
     24      16.0433      0.00000


--------------------------------------------------------------------------------------------------------


 soft charge-density along one line, spin component           1
         0         1         2         3         4         5         6         7         8         9
 total charge-density along one line
 
 pseudopotential strength for first ion, spin component:           1
  9.533  -0.002   0.000   0.000   0.000  -0.000  -0.000  -0.000
 -0.002  -0.002  -0.000  -0.000  -0.000  -0.000  -0.000  -0.000
  0.000  -0.000  -3.756   0.000  -0.000  -0.005   0.000  -0.000
  0.000  -0.000   0.000  -3.756   0.000   0.000  -0.005   0.000
  0.000  -0.000  -0.000   0.000  -3.756  -0.000   0.000  -0.005
 -0.000  -0.000  -0.005   0.000  -0.000  -0.759   0.000  -0.000
 -0.000  -0.000   0.000  -0.005   0.000   0.000  -0.759   0.000
 -0.000  -0.000  -0.000   0.000  -0.005  -0.000   0.000  -0.759
 total augmentation occupancy for first ion, spin component:           1
  1.416  -0.871   0.000   0.000  -0.000   0.000   0.000  -0.000
 -0.871   0.796  -0.000   0.000   0.000   0.000  -0.000  -0.000
  0.000   0.000   1.033   0.000   0.000   0.163  -0.000  -0.000
 -0.000  -0.000  -0.000   1.033  -0.000  -0.000   0.163   0.000
  0.000  -0.000   0.000  -0.000   1.033  -0.000  -0.000   0.163
 -0.000  -0.000   0.163  -0.000  -0.000   0.030   0.000  -0.000
  0.000  -0.000  -0.000   0.163   0.000  -0.000   0.030  -0.000
 -0.000  -0.000   0.000  -0.000   0.163   0.000   0.000   0.030


------------------------ aborting loop because EDIFF is reached ----------------------------------------


    CHARGE:  cpu time    0.1390: real time    0.1390
    FORLOC:  cpu time    0.0020: real time    0.0020
    FORNL :  cpu time    0.2155: real time    0.2155
    STRESS:  cpu time    0.5302: real time    0.5305
    FORHAR:  cpu time    0.0074: real time    0.0074
    MIXING:  cpu time    0.0018: real time    0.0018
    OFIELD:  cpu time    0.0001: real time    0.0001

  FORCE on cell =-STRESS in cart. coord.  units (eV):
  Direction    XX          YY          ZZ          XY          YZ          ZX
  --------------------------------------------------------------------------------------
  Alpha Z   101.79781   101.79781   101.79781
  Ewald    -445.56914  -445.56914  -445.56914     0.00000    -0.00000    -0.00000
  Hartree    37.51514    37.51514    37.51514    -0.00000    -0.00000    -0.00000
  E(xc)    -116.49665  -116.49665  -116.49665     0.00000     0.00000     0.00000
  Local     -55.06541   -55.06541   -55.06541    -0.00000     0.00000     0.00000
  n-local   -23.01154   -23.86204   -22.81358     0.71170     0.90528     0.43437
  augment    -2.40326    -2.40326    -2.40326    -0.00000     0.00000     0.00000
  Kinetic   479.33794   494.49081   493.92886    -4.63693    -6.48821    -3.23743
  Fock        0.00000     0.00000     0.00000     0.00000     0.00000     0.00000
  -------------------------------------------------------------------------------------
  Total     -14.19803   -14.19803   -14.19803     0.00000     0.00000    -0.00000
  in kB    -444.06366  -444.06366  -444.06366     0.00000     0.00000    -0.00000
  external pressure =     -444.06 kB  Pullay stress =        0.00 kB


 VOLUME and BASIS-vectors are now :
 -----------------------------------------------------------------------------
  energy-cutoff  :      400.00
  volume of cell :       51.23
      direct lattice vectors                 reciprocal lattice vectors
     3.713908000  0.000000000  0.000000000     0.269258151  0.000000000  0.000000000
     0.000000000  3.713908000  0.000000000     0.000000000  0.269258151  0.000000000
     0.000000000  0.000000000  3.713908000     0.000000000  0.000000000  0.269258151

  length of vectors
     3.713908000  3.713908000  3.713908000     0.269258151  0.269258151  0.269258151


 FORCES acting on ions
    electron-ion (+dipol)            ewald-force                    non-local-force                 convergence-correction
 -----------------------------------------------------------------------------------------------
   0.000E+00 -.143E-12 0.842E-14   0.000E+00 0.000E+00 0.000E+00   0.114E-16 0.111E-16 0.446E-16   -.102E-13 -.357E-14 -.852E-14
   -.765E-14 0.730E-16 0.182E-13   -.147E-13 0.687E-14 0.710E-14   -.431E-16 -.137E-16 -.475E-16   0.595E-14 0.170E-15 0.129E-14
   0.765E-14 -.169E-12 0.324E-13   0.000E+00 -.711E-14 -.711E-14   0.542E-16 0.558E-17 0.642E-16   -.968E-14 -.473E-14 -.777E-14
   -.765E-14 0.182E-13 -.692E-15   -.169E-13 -.367E-17 -.174E-15   -.199E-16 -.297E-16 -.415E-16   0.665E-14 0.196E-14 0.109E-14
   0.383E-13 0.208E-12 0.399E-12   0.711E-14 0.000E+00 0.000E+00   0.419E-16 0.737E-17 0.542E-16   -.124E-13 -.355E-14 -.879E-14
   0.230E-13 0.409E-15 -.417E-12   0.624E-16 0.437E-14 0.693E-14   -.152E-16 -.165E-16 -.517E-16   0.101E-13 0.105E-14 0.120E-14
   0.383E-13 -.200E-12 -.684E-14   0.142E-13 -.711E-14 -.711E-14   0.133E-16 0.250E-16 0.442E-16   -.127E-13 -.493E-14 -.865E-14
   0.230E-13 0.371E-12 0.191E-13   0.721E-14 -.318E-16 0.916E-16   -.551E-16 0.532E-17 -.652E-16   0.106E-13 0.181E-14 0.151E-14
 -----------------------------------------------------------------------------------------------
   0.115E-12 0.846E-13 0.524E-13   -.309E-14 -.301E-14 -.266E-15   -.126E-16 -.547E-17 0.129E-17   -.117E-13 -.118E-13 -.286E-13
 
 
 POSITION                                       TOTAL-FORCE (eV/Angst)
 -----------------------------------------------------------------------------------
      0.92848      2.78543      0.92848        -0.000000     -0.000000      0.000000
      0.00000      0.00000      1.85695        -0.000000      0.000000     -0.000000
      0.92848      0.92848      2.78543         0.000000      0.000000     -0.000000
      0.00000      1.85695      0.00000         0.000000     -0.000000      0.000000
      2.78543      2.78543      2.78543         0.000000     -0.000000     -0.000000
      1.85695      0.00000      0.00000         0.000000      0.000000     -0.000000
      2.78543      0.92848      0.92848        -0.000000      0.000000     -0.000000
      1.85695      1.85695      1.85695        -0.000000     -0.000000      0.000000
 -----------------------------------------------------------------------------------
    total drift:                                0.000000      0.000000      0.000000


--------------------------------------------------------------------------------------------------------



  FREE ENERGIE OF THE ION-ELECTRON SYSTEM (eV)
  ---------------------------------------------------
  free  energy   TOTEN  =       -71.97403864 eV

  energy  without entropy=      -71.97403864  energy(sigma->0) =      -71.97403864
 


--------------------------------------------------------------------------------------------------------


    POTLOK:  cpu time    0.0265: real time    0.0265


--------------------------------------------------------------------------------------------------------


     LOOP+:  cpu time   57.8911: real time   57.9367
    4ORBIT:  cpu time    0.0000: real time    0.0000
 BZINTS: Fermi energy:  8.120469; 32.000000 electrons
         Band energy:  -6.017468;  BLOECHL correction:  0.000000

 total amount of memory used by VASP MPI-rank0    34325. kBytes
=======================================================================

   base      :      30000. kBytes
   nonl-proj :       1364. kBytes
   fftplans  :        346. kBytes
   grid      :        481. kBytes
   one-center:          6. kBytes
   wavefun   :       2128. kBytes
 
  
  
 General timing and accounting informations for this job:
 ========================================================
  
                  Total CPU time used (sec):       60.352
                            User time (sec):       58.348
                          System time (sec):        2.004
                         Elapsed time (sec):       60.439
  
                   Maximum memory used (kb):      189604.
                   Average memory used (kb):           0.
  
                          Minor page faults:        36889
                          Major page faults:           36
                 Voluntary context switches:          787
