   8   8   0   0
  0.5552189E+01  0.3517466E-09  0.3517466E-09  0.3589999E-09  0.2000000E-16
  1.000000000000000E-004
  CAR 
 unknown system                          
     23.69527830    -13.38349770  301     10.23877251      1.00000000
    -13.383  0.0000E+00  0.0000E+00
    -13.260  0.0000E+00  0.0000E+00
    -13.136  0.0000E+00  0.0000E+00
    -13.013  0.0000E+00  0.0000E+00
    -12.889  0.0000E+00  0.0000E+00
    -12.766  0.0000E+00  0.0000E+00
    -12.642  0.0000E+00  0.0000E+00
    -12.518  0.0000E+00  0.0000E+00
    -12.395  0.0000E+00  0.0000E+00
    -12.271  0.0000E+00  0.0000E+00
    -12.148  0.0000E+00  0.0000E+00
    -12.024  0.0000E+00  0.0000E+00
    -11.900  0.0000E+00  0.0000E+00
    -11.777  0.0000E+00  0.0000E+00
    -11.653  0.3394E-01  0.5085E-03
    -11.530  0.1508E+00  0.1484E-01
    -11.406  0.2362E+00  0.3873E-01
    -11.282  0.2672E+00  0.6954E-01
    -11.159  0.3135E+00  0.1054E+00
    -11.035  0.3534E+00  0.1471E+00
    -10.912  0.3816E+00  0.1924E+00
    -10.788  0.4117E+00  0.2414E+00
    -10.664  0.4488E+00  0.2945E+00
    -10.541  0.4721E+00  0.3516E+00
    -10.417  0.4948E+00  0.4114E+00
    -10.294  0.5199E+00  0.4740E+00
    -10.170  0.5475E+00  0.5400E+00
    -10.046  0.5736E+00  0.6093E+00
     -9.923  0.5927E+00  0.6814E+00
     -9.799  0.6124E+00  0.7559E+00
     -9.676  0.6335E+00  0.8329E+00
     -9.552  0.6556E+00  0.9125E+00
     -9.428  0.6791E+00  0.9950E+00
     -9.305  0.7006E+00  0.1080E+01
     -9.181  0.7174E+00  0.1168E+01
     -9.058  0.7346E+00  0.1258E+01
     -8.934  0.7539E+00  0.1350E+01
     -8.810  0.7738E+00  0.1444E+01
     -8.687  0.7945E+00  0.1541E+01
     -8.563  0.8150E+00  0.1640E+01
     -8.440  0.8332E+00  0.1742E+01
     -8.316  0.8500E+00  0.1846E+01
     -8.192  0.8679E+00  0.1952E+01
     -8.069  0.8867E+00  0.2061E+01
     -7.945  0.9059E+00  0.2172E+01
     -7.822  0.9377E+00  0.2285E+01
     -7.698  0.9898E+00  0.2404E+01
     -7.574  0.1026E+01  0.2529E+01
     -7.451  0.1066E+01  0.2658E+01
     -7.327  0.1067E+01  0.2790E+01
     -7.204  0.1044E+01  0.2921E+01
     -7.080  0.1019E+01  0.3048E+01
     -6.957  0.1039E+01  0.3175E+01
     -6.833  0.1044E+01  0.3304E+01
     -6.709  0.1043E+01  0.3433E+01
     -6.586  0.1069E+01  0.3563E+01
     -6.462  0.1127E+01  0.3699E+01
     -6.339  0.1189E+01  0.3842E+01
     -6.215  0.1262E+01  0.3993E+01
     -6.091  0.1286E+01  0.4150E+01
     -5.968  0.1340E+01  0.4312E+01
     -5.844  0.1514E+01  0.4488E+01
     -5.721  0.1632E+01  0.4683E+01
     -5.597  0.1521E+01  0.4874E+01
     -5.473  0.1589E+01  0.5059E+01
     -5.350  0.1388E+01  0.5238E+01
     -5.226  0.1368E+01  0.5407E+01
     -5.103  0.1324E+01  0.5573E+01
     -4.979  0.1412E+01  0.5743E+01
     -4.855  0.1298E+01  0.5910E+01
     -4.732  0.1191E+01  0.6062E+01
     -4.608  0.1186E+01  0.6209E+01
     -4.485  0.1146E+01  0.6353E+01
     -4.361  0.1170E+01  0.6495E+01
     -4.237  0.1093E+01  0.6636E+01
     -4.114  0.1039E+01  0.6767E+01
     -3.990  0.1064E+01  0.6897E+01
     -3.867  0.9860E+00  0.7023E+01
     -3.743  0.9501E+00  0.7143E+01
     -3.619  0.9358E+00  0.7259E+01
     -3.496  0.9362E+00  0.7375E+01
     -3.372  0.1029E+01  0.7495E+01
     -3.249  0.1008E+01  0.7623E+01
     -3.125  0.1073E+01  0.7750E+01
     -3.001  0.1022E+01  0.7880E+01
     -2.878  0.9968E+00  0.8006E+01
     -2.754  0.1038E+01  0.8129E+01
     -2.631  0.1042E+01  0.8263E+01
     -2.507  0.9779E+00  0.8388E+01
     -2.383  0.9730E+00  0.8507E+01
     -2.260  0.1048E+01  0.8631E+01
     -2.136  0.1206E+01  0.8770E+01
     -2.013  0.1363E+01  0.8928E+01
     -1.889  0.1576E+01  0.9110E+01
     -1.765  0.1855E+01  0.9320E+01
     -1.642  0.2279E+01  0.9574E+01
     -1.518  0.2784E+01  0.9888E+01
     -1.395  0.2579E+01  0.1023E+02
     -1.271  0.2227E+01  0.1053E+02
     -1.148  0.1856E+01  0.1078E+02
     -1.024  0.1646E+01  0.1099E+02
     -0.900  0.1536E+01  0.1119E+02
     -0.777  0.1453E+01  0.1137E+02
     -0.653  0.1385E+01  0.1155E+02
     -0.530  0.1347E+01  0.1172E+02
     -0.406  0.1320E+01  0.1188E+02
     -0.282  0.1299E+01  0.1204E+02
     -0.159  0.1218E+01  0.1220E+02
     -0.035  0.1182E+01  0.1235E+02
      0.088  0.1122E+01  0.1249E+02
      0.212  0.1102E+01  0.1263E+02
      0.336  0.1099E+01  0.1277E+02
      0.459  0.1063E+01  0.1290E+02
      0.583  0.1050E+01  0.1303E+02
      0.706  0.1253E+01  0.1317E+02
      0.830  0.1553E+01  0.1334E+02
      0.954  0.1765E+01  0.1355E+02
      1.077  0.2097E+01  0.1378E+02
      1.201  0.2298E+01  0.1405E+02
      1.324  0.2099E+01  0.1433E+02
      1.448  0.2150E+01  0.1459E+02
      1.572  0.2160E+01  0.1485E+02
      1.695  0.2151E+01  0.1512E+02
      1.819  0.2050E+01  0.1538E+02
      1.942  0.1554E+01  0.1561E+02
      2.066  0.1427E+01  0.1578E+02
      2.190  0.1664E+01  0.1597E+02
      2.313  0.2001E+01  0.1620E+02
      2.437  0.2255E+01  0.1646E+02
      2.560  0.2280E+01  0.1674E+02
      2.684  0.2316E+01  0.1703E+02
      2.808  0.2318E+01  0.1731E+02
      2.931  0.2287E+01  0.1760E+02
      3.055  0.2411E+01  0.1789E+02
      3.178  0.2829E+01  0.1821E+02
      3.302  0.2969E+01  0.1857E+02
      3.426  0.2890E+01  0.1893E+02
      3.549  0.2516E+01  0.1926E+02
      3.673  0.2498E+01  0.1958E+02
      3.796  0.2626E+01  0.1990E+02
      3.920  0.2817E+01  0.2023E+02
      4.044  0.3206E+01  0.2060E+02
      4.167  0.3571E+01  0.2102E+02
      4.291  0.3621E+01  0.2147E+02
      4.414  0.3179E+01  0.2188E+02
      4.538  0.2778E+01  0.2225E+02
      4.662  0.2680E+01  0.2259E+02
      4.785  0.2712E+01  0.2292E+02
      4.909  0.2733E+01  0.2326E+02
      5.032  0.2677E+01  0.2359E+02
      5.156  0.2909E+01  0.2393E+02
      5.279  0.2966E+01  0.2430E+02
      5.403  0.2926E+01  0.2466E+02
      5.527  0.2961E+01  0.2503E+02
      5.650  0.3013E+01  0.2540E+02
      5.774  0.2788E+01  0.2576E+02
      5.897  0.2479E+01  0.2608E+02
      6.021  0.2353E+01  0.2638E+02
      6.145  0.2324E+01  0.2667E+02
      6.268  0.2487E+01  0.2696E+02
      6.392  0.2676E+01  0.2729E+02
      6.515  0.2694E+01  0.2762E+02
      6.639  0.2724E+01  0.2795E+02
      6.763  0.2585E+01  0.2828E+02
      6.886  0.2473E+01  0.2859E+02
      7.010  0.2262E+01  0.2888E+02
      7.133  0.2651E+01  0.2918E+02
      7.257  0.2213E+01  0.2949E+02
      7.381  0.2106E+01  0.2976E+02
      7.504  0.1688E+01  0.2999E+02
      7.628  0.1521E+01  0.3019E+02
      7.751  0.1406E+01  0.3037E+02
      7.875  0.1336E+01  0.3054E+02
      7.999  0.1236E+01  0.3070E+02
      8.122  0.1147E+01  0.3084E+02
      8.246  0.1045E+01  0.3098E+02
      8.369  0.9611E+00  0.3110E+02
      8.493  0.8919E+00  0.3122E+02
      8.617  0.8425E+00  0.3132E+02
      8.740  0.7776E+00  0.3142E+02
      8.864  0.7131E+00  0.3152E+02
      8.987  0.6355E+00  0.3160E+02
      9.111  0.5747E+00  0.3167E+02
      9.235  0.5423E+00  0.3174E+02
      9.358  0.4583E+00  0.3181E+02
      9.482  0.3897E+00  0.3186E+02
      9.605  0.3350E+00  0.3190E+02
      9.729  0.2777E+00  0.3194E+02
      9.853  0.1960E+00  0.3197E+02
      9.976  0.1271E+00  0.3199E+02
     10.100  0.2590E-01  0.3200E+02
     10.223  0.0000E+00  0.3200E+02
     10.347  0.0000E+00  0.3200E+02
     10.471  0.0000E+00  0.3200E+02
     10.594  0.0000E+00  0.3200E+02
     10.718  0.0000E+00  0.3200E+02
     10.841  0.0000E+00  0.3200E+02
     10.965  0.0000E+00  0.3200E+02
     11.088  0.0000E+00  0.3200E+02
     11.212  0.0000E+00  0.3200E+02
     11.336  0.0000E+00  0.3200E+02
     11.459  0.0000E+00  0.3200E+02
     11.583  0.0000E+00  0.3200E+02
     11.706  0.0000E+00  0.3200E+02
     11.830  0.0000E+00  0.3200E+02
     11.954  0.0000E+00  0.3200E+02
     12.077  0.0000E+00  0.3200E+02
     12.201  0.0000E+00  0.3200E+02
     12.324  0.0000E+00  0.3200E+02
     12.448  0.0000E+00  0.3200E+02
     12.572  0.0000E+00  0.3200E+02
     12.695  0.0000E+00  0.3200E+02
     12.819  0.0000E+00  0.3200E+02
     12.942  0.0000E+00  0.3200E+02
     13.066  0.0000E+00  0.3200E+02
     13.190  0.0000E+00  0.3200E+02
     13.313  0.0000E+00  0.3200E+02
     13.437  0.0000E+00  0.3200E+02
     13.560  0.0000E+00  0.3200E+02
     13.684  0.0000E+00  0.3200E+02
     13.808  0.0000E+00  0.3200E+02
     13.931  0.0000E+00  0.3200E+02
     14.055  0.0000E+00  0.3200E+02
     14.178  0.3509E-01  0.3200E+02
     14.302  0.1393E+00  0.3201E+02
     14.426  0.2904E+00  0.3204E+02
     14.549  0.3678E+00  0.3208E+02
     14.673  0.4251E+00  0.3213E+02
     14.796  0.5696E+00  0.3219E+02
     14.920  0.7279E+00  0.3227E+02
     15.044  0.8189E+00  0.3236E+02
     15.167  0.1228E+01  0.3248E+02
     15.291  0.1144E+01  0.3262E+02
     15.414  0.1240E+01  0.3277E+02
     15.538  0.1312E+01  0.3293E+02
     15.662  0.1644E+01  0.3310E+02
     15.785  0.1581E+01  0.3329E+02
     15.909  0.1650E+01  0.3349E+02
     16.032  0.1718E+01  0.3370E+02
     16.156  0.1868E+01  0.3392E+02
     16.280  0.1940E+01  0.3416E+02
     16.403  0.2025E+01  0.3440E+02
     16.527  0.2070E+01  0.3465E+02
     16.650  0.2101E+01  0.3491E+02
     16.774  0.2116E+01  0.3517E+02
     16.898  0.2183E+01  0.3544E+02
     17.021  0.2277E+01  0.3571E+02
     17.145  0.2356E+01  0.3600E+02
     17.268  0.2518E+01  0.3630E+02
     17.392  0.2634E+01  0.3662E+02
     17.515  0.2733E+01  0.3695E+02
     17.639  0.2834E+01  0.3729E+02
     17.763  0.3043E+01  0.3765E+02
     17.886  0.3223E+01  0.3804E+02
     18.010  0.3452E+01  0.3845E+02
     18.133  0.3983E+01  0.3891E+02
     18.257  0.4401E+01  0.3942E+02
     18.381  0.5029E+01  0.4003E+02
     18.504  0.3583E+01  0.4054E+02
     18.628  0.2719E+01  0.4090E+02
     18.751  0.3593E+01  0.4127E+02
     18.875  0.3234E+01  0.4169E+02
     18.999  0.3222E+01  0.4210E+02
     19.122  0.3599E+01  0.4251E+02
     19.246  0.3647E+01  0.4296E+02
     19.369  0.3549E+01  0.4341E+02
     19.493  0.3116E+01  0.4382E+02
     19.617  0.3023E+01  0.4420E+02
     19.740  0.2875E+01  0.4456E+02
     19.864  0.2803E+01  0.4491E+02
     19.987  0.2702E+01  0.4525E+02
     20.111  0.2711E+01  0.4558E+02
     20.235  0.2725E+01  0.4592E+02
     20.358  0.2690E+01  0.4625E+02
     20.482  0.2715E+01  0.4659E+02
     20.605  0.2621E+01  0.4692E+02
     20.729  0.2220E+01  0.4722E+02
     20.853  0.1710E+01  0.4746E+02
     20.976  0.1428E+01  0.4765E+02
     21.100  0.9591E+00  0.4780E+02
     21.223  0.4839E+00  0.4789E+02
     21.347  0.2887E+00  0.4793E+02
     21.471  0.1864E+00  0.4796E+02
     21.594  0.1218E+00  0.4798E+02
     21.718  0.6633E-01  0.4799E+02
     21.841  0.2664E-01  0.4800E+02
     21.965  0.3696E-02  0.4800E+02
     22.089  0.0000E+00  0.4800E+02
     22.212  0.0000E+00  0.4800E+02
     22.336  0.0000E+00  0.4800E+02
     22.459  0.0000E+00  0.4800E+02
     22.583  0.0000E+00  0.4800E+02
     22.707  0.0000E+00  0.4800E+02
     22.830  0.0000E+00  0.4800E+02
     22.954  0.0000E+00  0.4800E+02
     23.077  0.0000E+00  0.4800E+02
     23.201  0.0000E+00  0.4800E+02
     23.324  0.0000E+00  0.4800E+02
     23.448  0.0000E+00  0.4800E+02
     23.572  0.0000E+00  0.4800E+02
     23.695  0.0000E+00  0.4800E+02
