       N       E                     dE             d eps       ncg     rms          rms(c)
DAV:   1     0.569422473661E+02    0.56942E+02   -0.14462E+04  9424   0.106E+03
DAV:   2    -0.712912580995E+02   -0.12823E+03   -0.12197E+03 12960   0.222E+02
DAV:   3    -0.753294555860E+02   -0.40382E+01   -0.40207E+01 12192   0.367E+01
DAV:   4    -0.753683670355E+02   -0.38911E-01   -0.38877E-01 11776   0.399E+00
DAV:   5    -0.753691006166E+02   -0.73358E-03   -0.73334E-03 12112   0.496E-01    0.975E+00
DAV:   6    -0.733444513881E+02    0.20246E+01   -0.13339E+00 10648   0.662E+00    0.532E+00
DAV:   7    -0.726611086439E+02    0.68334E+00   -0.14963E+00 10864   0.721E+00    0.702E-01
DAV:   8    -0.726687680947E+02   -0.76595E-02   -0.28729E-02 11904   0.992E-01    0.815E-02
DAV:   9    -0.726689746852E+02   -0.20659E-03   -0.42361E-04 11400   0.139E-01    0.285E-02
DAV:  10    -0.726690274082E+02   -0.52723E-04   -0.44295E-05 11824   0.510E-02    0.269E-03
DAV:  11    -0.726690280405E+02   -0.63234E-06   -0.10335E-06  8616   0.716E-03
   1 F= -.72669028E+02 E0= -.72669028E+02  d E =0.000000E+00
