  64  64   0   0
  0.5534863E+01  0.7075584E-09  0.7075584E-09  0.7075584E-09  0.5000000E-15
  1.000000000000000E-004
  CAR 
 unknown system                          
     23.91383499    -13.39102067  301     10.37528112      1.00000000
    -13.391  0.0000E+00  0.0000E+00
    -13.267  0.0000E+00  0.0000E+00
    -13.142  0.0000E+00  0.0000E+00
    -13.018  0.0000E+00  0.0000E+00
    -12.894  0.0000E+00  0.0000E+00
    -12.769  0.0000E+00  0.0000E+00
    -12.645  0.0000E+00  0.0000E+00
    -12.521  0.0000E+00  0.0000E+00
    -12.396  0.0000E+00  0.0000E+00
    -12.272  0.0000E+00  0.0000E+00
    -12.148  0.0000E+00  0.0000E+00
    -12.023  0.1726E-15  0.2147E-16
    -11.899  0.2685E-07  0.3338E-08
    -11.774  0.1636E-02  0.2034E-03
    -11.650  0.2481E+00  0.3105E-01
    -11.526  0.1077E+01  0.1650E+00
    -11.401  0.1599E+01  0.3638E+00
    -11.277  0.2237E+01  0.6419E+00
    -11.153  0.2395E+01  0.9397E+00
    -11.028  0.2708E+01  0.1276E+01
    -10.904  0.3261E+01  0.1682E+01
    -10.780  0.2584E+01  0.2003E+01
    -10.655  0.4083E+01  0.2511E+01
    -10.531  0.3434E+01  0.2938E+01
    -10.407  0.4036E+01  0.3440E+01
    -10.282  0.3974E+01  0.3934E+01
    -10.158  0.4860E+01  0.4539E+01
    -10.034  0.4501E+01  0.5098E+01
     -9.909  0.3433E+01  0.5525E+01
     -9.785  0.5776E+01  0.6243E+01
     -9.661  0.5553E+01  0.6934E+01
     -9.536  0.4462E+01  0.7489E+01
     -9.412  0.5312E+01  0.8149E+01
     -9.287  0.5804E+01  0.8871E+01
     -9.163  0.6297E+01  0.9654E+01
     -9.039  0.4817E+01  0.1025E+02
     -8.914  0.7094E+01  0.1114E+02
     -8.790  0.4667E+01  0.1172E+02
     -8.666  0.6656E+01  0.1254E+02
     -8.541  0.6622E+01  0.1337E+02
     -8.417  0.8512E+01  0.1443E+02
     -8.293  0.5216E+01  0.1507E+02
     -8.168  0.5523E+01  0.1576E+02
     -8.044  0.8610E+01  0.1683E+02
     -7.920  0.6890E+01  0.1769E+02
     -7.795  0.7901E+01  0.1867E+02
     -7.671  0.6597E+01  0.1949E+02
     -7.547  0.8165E+01  0.2051E+02
     -7.422  0.7311E+01  0.2142E+02
     -7.298  0.7711E+01  0.2237E+02
     -7.174  0.8548E+01  0.2344E+02
     -7.049  0.8408E+01  0.2448E+02
     -6.925  0.9563E+01  0.2567E+02
     -6.800  0.8056E+01  0.2667E+02
     -6.676  0.8223E+01  0.2770E+02
     -6.552  0.6954E+01  0.2856E+02
     -6.427  0.1108E+02  0.2994E+02
     -6.303  0.1131E+02  0.3135E+02
     -6.179  0.7891E+01  0.3233E+02
     -6.054  0.1014E+02  0.3359E+02
     -5.930  0.1090E+02  0.3494E+02
     -5.806  0.9507E+01  0.3613E+02
     -5.681  0.1333E+02  0.3778E+02
     -5.557  0.1133E+02  0.3919E+02
     -5.433  0.1053E+02  0.4050E+02
     -5.308  0.1342E+02  0.4217E+02
     -5.184  0.1245E+02  0.4372E+02
     -5.060  0.8717E+01  0.4480E+02
     -4.935  0.8797E+01  0.4590E+02
     -4.811  0.1119E+02  0.4729E+02
     -4.687  0.9512E+01  0.4847E+02
     -4.562  0.1092E+02  0.4983E+02
     -4.438  0.1055E+02  0.5114E+02
     -4.314  0.6388E+01  0.5194E+02
     -4.189  0.1150E+02  0.5336E+02
     -4.065  0.6159E+01  0.5413E+02
     -3.940  0.8230E+01  0.5515E+02
     -3.816  0.7517E+01  0.5609E+02
     -3.692  0.8950E+01  0.5720E+02
     -3.567  0.5650E+01  0.5790E+02
     -3.443  0.9001E+01  0.5902E+02
     -3.319  0.9199E+01  0.6017E+02
     -3.194  0.1005E+02  0.6142E+02
     -3.070  0.7397E+01  0.6234E+02
     -2.946  0.7454E+01  0.6326E+02
     -2.821  0.6579E+01  0.6408E+02
     -2.697  0.1236E+02  0.6562E+02
     -2.573  0.9576E+01  0.6681E+02
     -2.448  0.8410E+01  0.6786E+02
     -2.324  0.1001E+02  0.6910E+02
     -2.200  0.8546E+01  0.7016E+02
     -2.075  0.7876E+01  0.7114E+02
     -1.951  0.1079E+02  0.7248E+02
     -1.827  0.9245E+01  0.7363E+02
     -1.702  0.1539E+02  0.7555E+02
     -1.578  0.2163E+02  0.7824E+02
     -1.453  0.2425E+02  0.8125E+02
     -1.329  0.1814E+02  0.8351E+02
     -1.205  0.1275E+02  0.8509E+02
     -1.080  0.1215E+02  0.8660E+02
     -0.956  0.1064E+02  0.8793E+02
     -0.832  0.1163E+02  0.8937E+02
     -0.707  0.1600E+02  0.9136E+02
     -0.583  0.1528E+02  0.9326E+02
     -0.459  0.1117E+02  0.9465E+02
     -0.334  0.8350E+01  0.9569E+02
     -0.210  0.5580E+01  0.9638E+02
     -0.086  0.9791E+01  0.9760E+02
      0.039  0.1010E+02  0.9886E+02
      0.163  0.7954E+01  0.9985E+02
      0.287  0.9086E+01  0.1010E+03
      0.412  0.1402E+02  0.1027E+03
      0.536  0.7273E+01  0.1036E+03
      0.660  0.6695E+01  0.1045E+03
      0.785  0.1025E+02  0.1057E+03
      0.909  0.1867E+02  0.1081E+03
      1.034  0.1122E+02  0.1094E+03
      1.158  0.1402E+02  0.1112E+03
      1.282  0.1343E+02  0.1129E+03
      1.407  0.2057E+02  0.1154E+03
      1.531  0.1766E+02  0.1176E+03
      1.655  0.1557E+02  0.1196E+03
      1.780  0.1397E+02  0.1213E+03
      1.904  0.1706E+02  0.1234E+03
      2.028  0.1456E+02  0.1252E+03
      2.153  0.1262E+02  0.1268E+03
      2.277  0.2033E+02  0.1293E+03
      2.401  0.1616E+02  0.1313E+03
      2.526  0.2232E+02  0.1341E+03
      2.650  0.1611E+02  0.1361E+03
      2.774  0.1041E+02  0.1374E+03
      2.899  0.1523E+02  0.1393E+03
      3.023  0.2786E+02  0.1428E+03
      3.147  0.1921E+02  0.1451E+03
      3.272  0.1407E+02  0.1469E+03
      3.396  0.1964E+02  0.1493E+03
      3.521  0.2374E+02  0.1523E+03
      3.645  0.2398E+02  0.1553E+03
      3.769  0.2537E+02  0.1584E+03
      3.894  0.2211E+02  0.1612E+03
      4.018  0.2380E+02  0.1641E+03
      4.142  0.2342E+02  0.1670E+03
      4.267  0.2767E+02  0.1705E+03
      4.391  0.2702E+02  0.1738E+03
      4.515  0.2164E+02  0.1765E+03
      4.640  0.1981E+02  0.1790E+03
      4.764  0.2117E+02  0.1816E+03
      4.888  0.2616E+02  0.1849E+03
      5.013  0.2991E+02  0.1886E+03
      5.137  0.1884E+02  0.1910E+03
      5.261  0.1642E+02  0.1930E+03
      5.386  0.2505E+02  0.1961E+03
      5.510  0.2302E+02  0.1990E+03
      5.634  0.2774E+02  0.2024E+03
      5.759  0.1563E+02  0.2044E+03
      5.883  0.2021E+02  0.2069E+03
      6.008  0.2049E+02  0.2094E+03
      6.132  0.2731E+02  0.2128E+03
      6.256  0.1887E+02  0.2152E+03
      6.381  0.1989E+02  0.2176E+03
      6.505  0.1693E+02  0.2197E+03
      6.629  0.2107E+02  0.2224E+03
      6.754  0.2591E+02  0.2256E+03
      6.878  0.1740E+02  0.2277E+03
      7.002  0.1923E+02  0.2301E+03
      7.127  0.1605E+02  0.2321E+03
      7.251  0.1977E+02  0.2346E+03
      7.375  0.2491E+02  0.2377E+03
      7.500  0.8382E+01  0.2387E+03
      7.624  0.1240E+02  0.2403E+03
      7.748  0.1526E+02  0.2422E+03
      7.873  0.1114E+02  0.2436E+03
      7.997  0.1052E+02  0.2449E+03
      8.121  0.7986E+01  0.2459E+03
      8.246  0.1018E+02  0.2471E+03
      8.370  0.8889E+01  0.2482E+03
      8.494  0.7976E+01  0.2492E+03
      8.619  0.6673E+01  0.2501E+03
      8.743  0.5354E+01  0.2507E+03
      8.868  0.7767E+01  0.2517E+03
      8.992  0.5713E+01  0.2524E+03
      9.116  0.5317E+01  0.2531E+03
      9.241  0.3263E+01  0.2535E+03
      9.365  0.5116E+01  0.2541E+03
      9.489  0.3929E+01  0.2546E+03
      9.614  0.3261E+01  0.2550E+03
      9.738  0.2778E+01  0.2553E+03
      9.862  0.2104E+01  0.2556E+03
      9.987  0.2204E+01  0.2559E+03
     10.111  0.8267E+00  0.2560E+03
     10.235  0.1910E+00  0.2560E+03
     10.360  0.8987E-03  0.2560E+03
     10.484  0.4872E-08  0.2560E+03
     10.608  0.0000E+00  0.2560E+03
     10.733  0.0000E+00  0.2560E+03
     10.857  0.0000E+00  0.2560E+03
     10.981  0.0000E+00  0.2560E+03
     11.106  0.0000E+00  0.2560E+03
     11.230  0.0000E+00  0.2560E+03
     11.355  0.0000E+00  0.2560E+03
     11.479  0.0000E+00  0.2560E+03
     11.603  0.0000E+00  0.2560E+03
     11.728  0.0000E+00  0.2560E+03
     11.852  0.0000E+00  0.2560E+03
     11.976  0.0000E+00  0.2560E+03
     12.101  0.0000E+00  0.2560E+03
     12.225  0.0000E+00  0.2560E+03
     12.349  0.0000E+00  0.2560E+03
     12.474  0.0000E+00  0.2560E+03
     12.598  0.0000E+00  0.2560E+03
     12.722  0.0000E+00  0.2560E+03
     12.847  0.0000E+00  0.2560E+03
     12.971  0.0000E+00  0.2560E+03
     13.095  0.0000E+00  0.2560E+03
     13.220  0.0000E+00  0.2560E+03
     13.344  0.0000E+00  0.2560E+03
     13.468  0.0000E+00  0.2560E+03
     13.593  0.0000E+00  0.2560E+03
     13.717  0.0000E+00  0.2560E+03
     13.842  0.0000E+00  0.2560E+03
     13.966  0.1988E-15  0.2560E+03
     14.090  0.6178E-07  0.2560E+03
     14.215  0.5469E-02  0.2560E+03
     14.339  0.3911E+00  0.2560E+03
     14.463  0.1296E+01  0.2562E+03
     14.588  0.3221E+01  0.2566E+03
     14.712  0.4158E+01  0.2571E+03
     14.836  0.2888E+01  0.2575E+03
     14.961  0.4728E+01  0.2581E+03
     15.085  0.9280E+01  0.2592E+03
     15.209  0.9561E+01  0.2604E+03
     15.334  0.5388E+01  0.2611E+03
     15.458  0.7012E+01  0.2620E+03
     15.582  0.1112E+02  0.2633E+03
     15.707  0.1545E+02  0.2653E+03
     15.831  0.1241E+02  0.2668E+03
     15.955  0.1300E+02  0.2684E+03
     16.080  0.1383E+02  0.2701E+03
     16.204  0.1206E+02  0.2716E+03
     16.329  0.1361E+02  0.2733E+03
     16.453  0.1821E+02  0.2756E+03
     16.577  0.2024E+02  0.2781E+03
     16.702  0.1573E+02  0.2801E+03
     16.826  0.1545E+02  0.2820E+03
     16.950  0.1881E+02  0.2843E+03
     17.075  0.1870E+02  0.2867E+03
     17.199  0.1666E+02  0.2887E+03
     17.323  0.2037E+02  0.2913E+03
     17.448  0.2396E+02  0.2942E+03
     17.572  0.1873E+02  0.2966E+03
     17.696  0.2350E+02  0.2995E+03
     17.821  0.2489E+02  0.3026E+03
     17.945  0.2139E+02  0.3052E+03
     18.069  0.2505E+02  0.3084E+03
     18.194  0.3102E+02  0.3122E+03
     18.318  0.2763E+02  0.3157E+03
     18.442  0.3350E+02  0.3198E+03
     18.567  0.2633E+02  0.3231E+03
     18.691  0.3304E+02  0.3272E+03
     18.816  0.3452E+02  0.3315E+03
     18.940  0.3143E+02  0.3354E+03
     19.064  0.3464E+02  0.3397E+03
     19.189  0.2477E+02  0.3428E+03
     19.313  0.2478E+02  0.3459E+03
     19.437  0.2983E+02  0.3496E+03
     19.562  0.2419E+02  0.3526E+03
     19.686  0.2572E+02  0.3558E+03
     19.810  0.3467E+02  0.3601E+03
     19.935  0.2683E+02  0.3634E+03
     20.059  0.2734E+02  0.3668E+03
     20.183  0.2471E+02  0.3699E+03
     20.308  0.2178E+02  0.3726E+03
     20.432  0.2718E+02  0.3760E+03
     20.556  0.1510E+02  0.3779E+03
     20.681  0.1127E+02  0.3793E+03
     20.805  0.9871E+01  0.3805E+03
     20.929  0.1053E+02  0.3818E+03
     21.054  0.5363E+01  0.3825E+03
     21.178  0.2030E+01  0.3827E+03
     21.302  0.2623E+01  0.3831E+03
     21.427  0.1850E+01  0.3833E+03
     21.551  0.2162E+01  0.3836E+03
     21.676  0.1506E+01  0.3837E+03
     21.800  0.1198E+01  0.3839E+03
     21.924  0.7010E-01  0.3839E+03
     22.049  0.1357E-02  0.3839E+03
     22.173  0.3124E+00  0.3839E+03
     22.297  0.4331E+00  0.3840E+03
     22.422  0.7149E-02  0.3840E+03
     22.546  0.1563E-06  0.3840E+03
     22.670  0.1046E-14  0.3840E+03
     22.795  0.0000E+00  0.3840E+03
     22.919  0.0000E+00  0.3840E+03
     23.043  0.0000E+00  0.3840E+03
     23.168  0.0000E+00  0.3840E+03
     23.292  0.0000E+00  0.3840E+03
     23.416  0.0000E+00  0.3840E+03
     23.541  0.0000E+00  0.3840E+03
     23.665  0.0000E+00  0.3840E+03
     23.789  0.0000E+00  0.3840E+03
     23.914  0.0000E+00  0.3840E+03
