   64   64    1    1
  0.5534863E+01  0.7075584E-09  0.7075584E-09  0.7075584E-09  0.5000000E-15
  1.000000000000000E-004
  CAR 
 unknown system                          
    256     35    192
 
  0.0000000E+00  0.0000000E+00  0.0000000E+00  0.1953125E-02
    1      -11.695345   1.000000
    2       -9.371776   1.000000
    3       -9.371776   1.000000
    4       -9.371776   1.000000
    5       -9.371776   1.000000
    6       -9.371776   1.000000
    7       -9.371776   1.000000
    8       -7.146437   1.000000
    9       -7.146437   1.000000
   10       -7.146437   1.000000
   11       -7.146437   1.000000
   12       -7.146437   1.000000
   13       -7.146437   1.000000
   14       -7.146437   1.000000
   15       -7.146437   1.000000
   16       -7.146437   1.000000
   17       -7.146437   1.000000
   18       -7.146437   1.000000
   19       -7.146437   1.000000
   20       -5.779575   1.000000
   21       -5.779575   1.000000
   22       -5.779575   1.000000
   23       -5.779575   1.000000
   24       -3.532788   1.000000
   25       -3.532788   1.000000
   26       -3.532788   1.000000
   27       -3.532788   1.000000
   28       -2.826514   1.000000
   29       -2.826514   1.000000
   30       -2.826514   1.000000
   31       -2.826514   1.000000
   32       -2.826514   1.000000
   33       -2.826514   1.000000
   34       -1.995675   1.000000
   35       -1.995675   1.000000
   36       -1.995675   1.000000
   37       -1.995675   1.000000
   38       -1.995675   1.000000
   39       -1.995675   1.000000
   40       -1.995675   1.000000
   41       -1.995675   1.000000
   42       -1.995675   1.000000
   43       -1.995675   1.000000
   44       -1.995675   1.000000
   45       -1.995675   1.000000
   46        1.290511   1.000000
   47        1.290511   1.000000
   48        1.290511   1.000000
   49        1.290511   1.000000
   50        1.290511   1.000000
   51        1.290511   1.000000
   52        1.290511   1.000000
   53        1.290511   1.000000
   54        1.290511   1.000000
   55        1.290511   1.000000
   56        1.290511   1.000000
   57        1.290511   1.000000
   58        1.578344   1.000000
   59        1.578344   1.000000
   60        1.578344   1.000000
   61        1.578344   1.000000
   62        1.578344   1.000000
   63        1.578344   1.000000
   64        1.578344   1.000000
   65        1.578344   1.000000
   66        1.578344   1.000000
   67        1.578344   1.000000
   68        1.578344   1.000000
   69        1.578344   1.000000
   70        2.337908   1.000000
   71        2.337908   1.000000
   72        2.337908   1.000000
   73        2.337908   1.000000
   74        2.337908   1.000000
   75        2.337908   1.000000
   76        2.337908   1.000000
   77        2.337908   1.000000
   78        2.337908   1.000000
   79        2.337908   1.000000
   80        2.337908   1.000000
   81        2.337908   1.000000
   82        3.666988   1.000000
   83        3.666988   1.000000
   84        3.666988   1.000000
   85        3.666988   1.000000
   86        3.666988   1.000000
   87        3.666988   1.000000
   88        5.566870   1.000000
   89        5.566870   1.000000
   90        5.566870   1.000000
   91        5.566870   1.000000
   92        5.566870   1.000000
   93        5.566870   1.000000
   94        5.891830   1.000000
   95        5.891830   1.000000
   96        5.891830   1.000000
   97        5.891830   1.000000
   98        5.891830   1.000000
   99        5.891830   1.000000
  100        5.891830   1.000000
  101        5.891830   1.000000
  102        5.891830   1.000000
  103        5.891830   1.000000
  104        5.891830   1.000000
  105        5.891830   1.000000
  106        7.039123   1.000000
  107        7.039123   1.000000
  108        7.039123   1.000000
  109        7.039123   1.000000
  110        7.039123   1.000000
  111        7.039123   1.000000
  112        7.039123   1.000000
  113        7.039123   1.000000
  114        7.039123   1.000000
  115        7.039123   1.000000
  116        7.039123   1.000000
  117        7.039123   1.000000
  118        7.256087   1.000000
  119        7.256087   1.000000
  120        7.256087   1.000000
  121        7.256087   1.000000
  122        7.256087   1.000000
  123        7.256087   1.000000
  124        7.256087   1.000000
  125        7.256087   1.000000
  126       10.133948   1.000000
  127       10.133948   1.000000
  128       10.133948   1.000000
  129       14.623752   0.000000
  130       14.623752   0.000000
  131       14.623752   0.000000
  132       14.623752   0.000000
  133       14.623752   0.000000
  134       14.623752   0.000000
  135       14.925599   0.000000
  136       14.925599   0.000000
  137       14.925599   0.000000
  138       14.925599   0.000000
  139       14.925599   0.000000
  140       14.925599   0.000000
  141       15.789507   0.000000
  142       15.789507   0.000000
  143       15.789507   0.000000
  144       18.180911   0.000000
  145       18.180911   0.000000
  146       18.180911   0.000000
  147       18.180911   0.000000
  148       18.180911   0.000000
  149       18.180911   0.000000
  150       18.180911   0.000000
  151       18.180911   0.000000
  152       18.180911   0.000000
  153       18.180911   0.000000
  154       18.180911   0.000000
  155       18.180911   0.000000
  156       18.683823   0.000000
  157       18.683823   0.000000
  158       18.683823   0.000000
  159       18.683823   0.000000
  160       18.683823   0.000000
  161       18.683823   0.000000
  162       18.683823   0.000000
  163       18.683823   0.000000
  164       19.291668   0.000000
  165       19.291668   0.000000
  166       19.291668   0.000000
  167       19.291668   0.000000
  168       20.323892   0.000000
  169       20.323892   0.000000
  170       20.323892   0.000000
  171       20.323892   0.000000
  172       20.323892   0.000000
  173       20.323892   0.000000
  174       20.323892   0.000000
  175       20.323892   0.000000
  176       20.323892   0.000000
  177       20.323892   0.000000
  178       20.323892   0.000000
  179       20.323892   0.000000
  180       20.527637   0.000000
  181       20.527638   0.000000
  182       20.527638   0.000000
  183       20.527645   0.000000
  184       20.527660   0.000000
  185       20.527679   0.000000
  186       20.864593   0.000000
  187       20.864593   0.000000
  188       20.864593   0.000000
  189       20.864593   0.000000
  190       20.864593   0.000000
  191       20.864593   0.000000
  192       20.864593   0.000000
 
  0.1250000E+00  0.0000000E+00  0.0000000E+00  0.1171875E-01
    1      -11.658662   1.000000
    2       -9.911566   1.000000
    3       -9.336199   1.000000
    4       -9.336199   1.000000
    5       -9.336199   1.000000
    6       -9.336199   1.000000
    7       -8.763935   1.000000
    8       -7.657404   1.000000
    9       -7.657404   1.000000
   10       -7.657404   1.000000
   11       -7.657404   1.000000
   12       -7.114249   1.000000
   13       -7.114249   1.000000
   14       -7.114249   1.000000
   15       -7.114249   1.000000
   16       -6.577293   1.000000
   17       -6.577293   1.000000
   18       -6.577293   1.000000
   19       -6.577293   1.000000
   20       -5.881434   1.000000
   21       -5.881434   1.000000
   22       -5.881434   1.000000
   23       -5.881434   1.000000
   24       -3.827333   1.000000
   25       -3.366039   1.000000
   26       -3.366039   1.000000
   27       -3.366039   1.000000
   28       -3.366039   1.000000
   29       -2.802467   1.000000
   30       -2.802467   1.000000
   31       -2.802467   1.000000
   32       -2.802467   1.000000
   33       -2.550269   1.000000
   34       -2.550269   1.000000
   35       -2.550269   1.000000
   36       -2.550269   1.000000
   37       -2.039560   1.000000
   38       -2.039560   1.000000
   39       -2.039560   1.000000
   40       -2.039560   1.000000
   41       -1.790002   1.000000
   42       -1.535499   1.000000
   43       -1.535499   1.000000
   44       -1.535499   1.000000
   45       -1.535499   1.000000
   46        0.759632   1.000000
   47        0.759632   1.000000
   48        0.759632   1.000000
   49        0.759632   1.000000
   50        0.805767   1.000000
   51        0.805767   1.000000
   52        0.805767   1.000000
   53        0.805767   1.000000
   54        1.188563   1.000000
   55        1.188563   1.000000
   56        1.188563   1.000000
   57        1.188563   1.000000
   58        1.663247   1.000000
   59        1.663247   1.000000
   60        1.663247   1.000000
   61        1.663247   1.000000
   62        1.809091   1.000000
   63        1.809091   1.000000
   64        1.809091   1.000000
   65        1.809091   1.000000
   66        1.901680   1.000000
   67        1.901680   1.000000
   68        1.901680   1.000000
   69        1.901680   1.000000
   70        2.155403   1.000000
   71        2.155403   1.000000
   72        2.155403   1.000000
   73        2.155403   1.000000
   74        2.828476   1.000000
   75        2.828476   1.000000
   76        2.828476   1.000000
   77        2.828476   1.000000
   78        2.882777   1.000000
   79        2.882777   1.000000
   80        2.882777   1.000000
   81        2.882777   1.000000
   82        3.585792   1.000000
   83        3.585792   1.000000
   84        3.585792   1.000000
   85        3.585792   1.000000
   86        3.703109   1.000000
   87        3.703109   1.000000
   88        4.587759   1.000000
   89        5.196445   1.000000
   90        5.196445   1.000000
   91        5.196445   1.000000
   92        5.196445   1.000000
   93        5.385968   1.000000
   94        5.385968   1.000000
   95        5.779912   1.000000
   96        5.779912   1.000000
   97        5.779912   1.000000
   98        5.779912   1.000000
   99        6.211745   1.000000
  100        6.211745   1.000000
  101        6.211745   1.000000
  102        6.211745   1.000000
  103        6.451210   1.000000
  104        6.451210   1.000000
  105        6.489378   1.000000
  106        6.611749   1.000000
  107        6.611749   1.000000
  108        6.611749   1.000000
  109        6.611749   1.000000
  110        7.046896   1.000000
  111        7.046896   1.000000
  112        7.046896   1.000000
  113        7.046896   1.000000
  114        7.126365   1.000000
  115        7.126365   1.000000
  116        7.126365   1.000000
  117        7.126365   1.000000
  118        7.247441   1.000000
  119        7.247441   1.000000
  120        7.247441   1.000000
  121        7.247441   1.000000
  122        7.288651   1.000000
  123        7.288651   1.000000
  124        7.288651   1.000000
  125        7.288651   1.000000
  126        9.977005   1.000000
  127        9.977005   1.000000
  128       10.044624   1.000000
  129       14.479947   0.000000
  130       14.658640   0.000000
  131       14.786078   0.000000
  132       14.786078   0.000000
  133       14.786078   0.000000
  134       14.786078   0.000000
  135       14.795904   0.000000
  136       15.078454   0.000000
  137       15.078454   0.000000
  138       15.078454   0.000000
  139       15.078454   0.000000
  140       15.281779   0.000000
  141       15.760229   0.000000
  142       15.979142   0.000000
  143       15.979142   0.000000
  144       17.991551   0.000000
  145       17.991551   0.000000
  146       17.991551   0.000000
  147       17.991551   0.000000
  148       18.198872   0.000000
  149       18.198872   0.000000
  150       18.198872   0.000000
  151       18.198872   0.000000
  152       18.557081   0.000000
  153       18.557081   0.000000
  154       18.557081   0.000000
  155       18.557081   0.000000
  156       18.691412   0.000000
  157       18.691412   0.000000
  158       18.691412   0.000000
  159       18.691412   0.000000
  160       18.738717   0.000000
  161       18.738717   0.000000
  162       18.738717   0.000000
  163       18.738717   0.000000
  164       19.370270   0.000000
  165       19.370270   0.000000
  166       19.370270   0.000000
  167       19.370270   0.000000
  168       19.492341   0.000000
  169       19.640180   0.000000
  170       19.640180   0.000000
  171       19.640180   0.000000
  172       19.640180   0.000000
  173       20.247706   0.000000
  174       20.247706   0.000000
  175       20.247706   0.000000
  176       20.247706   0.000000
  177       20.259806   0.000000
  178       20.259806   0.000000
  179       20.259806   0.000000
  180       20.259806   0.000000
  181       20.338096   0.000000
  182       20.338096   0.000000
  183       20.338096   0.000000
  184       20.338096   0.000000
  185       20.634341   0.000000
  186       20.634341   0.000000
  187       20.634373   0.000000
  188       20.634403   0.000000
  189       20.703745   0.000000
  190       20.703745   0.000000
  191       20.703750   0.000000
  192       20.703803   0.000000
 
  0.2500000E+00  0.0000000E+00  0.0000000E+00  0.1171875E-01
    1      -11.548649   1.000000
    2      -10.381876   1.000000
    3       -9.229614   1.000000
    4       -9.229614   1.000000
    5       -9.229614   1.000000
    6       -9.229614   1.000000
    7       -8.105994   1.000000
    8       -8.105994   1.000000
    9       -8.105994   1.000000
   10       -8.105994   1.000000
   11       -8.089903   1.000000
   12       -7.018469   1.000000
   13       -7.018469   1.000000
   14       -7.018469   1.000000
   15       -7.018469   1.000000
   16       -6.119450   1.000000
   17       -6.119450   1.000000
   18       -6.119450   1.000000
   19       -6.119450   1.000000
   20       -5.955749   1.000000
   21       -5.955749   1.000000
   22       -5.955749   1.000000
   23       -5.955749   1.000000
   24       -4.786018   1.000000
   25       -3.190916   1.000000
   26       -3.190916   1.000000
   27       -3.190916   1.000000
   28       -3.190916   1.000000
   29       -2.934956   1.000000
   30       -2.934956   1.000000
   31       -2.934956   1.000000
   32       -2.934956   1.000000
   33       -2.731702   1.000000
   34       -2.731702   1.000000
   35       -2.731702   1.000000
   36       -2.731702   1.000000
   37       -2.156176   1.000000
   38       -2.156176   1.000000
   39       -2.156176   1.000000
   40       -2.156176   1.000000
   41       -1.145528   1.000000
   42       -1.145528   1.000000
   43       -1.145528   1.000000
   44       -1.145528   1.000000
   45       -0.728342   1.000000
   46       -0.060478   1.000000
   47       -0.060478   1.000000
   48       -0.060478   1.000000
   49       -0.060478   1.000000
   50        0.358826   1.000000
   51        0.358826   1.000000
   52        0.358826   1.000000
   53        0.358826   1.000000
   54        0.986059   1.000000
   55        0.986059   1.000000
   56        0.986059   1.000000
   57        0.986059   1.000000
   58        1.532598   1.000000
   59        1.532598   1.000000
   60        1.532598   1.000000
   61        1.532598   1.000000
   62        1.895924   1.000000
   63        1.895924   1.000000
   64        1.895924   1.000000
   65        1.895924   1.000000
   66        2.357405   1.000000
   67        2.357405   1.000000
   68        2.357405   1.000000
   69        2.357405   1.000000
   70        2.875340   1.000000
   71        2.875340   1.000000
   72        2.875340   1.000000
   73        2.875340   1.000000
   74        3.353103   1.000000
   75        3.353103   1.000000
   76        3.353103   1.000000
   77        3.353103   1.000000
   78        3.362225   1.000000
   79        3.362225   1.000000
   80        3.362225   1.000000
   81        3.362225   1.000000
   82        3.565616   1.000000
   83        3.744972   1.000000
   84        3.744972   1.000000
   85        3.744972   1.000000
   86        3.744972   1.000000
   87        3.809449   1.000000
   88        3.809449   1.000000
   89        4.663078   1.000000
   90        4.663078   1.000000
   91        4.663078   1.000000
   92        4.663078   1.000000
   93        4.939061   1.000000
   94        4.939061   1.000000
   95        5.468214   1.000000
   96        5.468214   1.000000
   97        5.468214   1.000000
   98        5.468214   1.000000
   99        6.025318   1.000000
  100        6.025318   1.000000
  101        6.025318   1.000000
  102        6.025318   1.000000
  103        6.595158   1.000000
  104        6.595158   1.000000
  105        6.595158   1.000000
  106        6.595158   1.000000
  107        6.751415   1.000000
  108        6.751415   1.000000
  109        6.751415   1.000000
  110        6.751415   1.000000
  111        7.056048   1.000000
  112        7.056048   1.000000
  113        7.067650   1.000000
  114        7.067650   1.000000
  115        7.067650   1.000000
  116        7.067650   1.000000
  117        7.223041   1.000000
  118        7.223041   1.000000
  119        7.223041   1.000000
  120        7.223041   1.000000
  121        7.343100   1.000000
  122        7.378315   1.000000
  123        7.378315   1.000000
  124        7.378315   1.000000
  125        7.378315   1.000000
  126        9.561171   1.000000
  127        9.561171   1.000000
  128        9.782408   1.000000
  129       14.374486   0.000000
  130       14.469576   0.000000
  131       14.986095   0.000000
  132       15.247018   0.000000
  133       15.247018   0.000000
  134       15.247018   0.000000
  135       15.247018   0.000000
  136       15.519564   0.000000
  137       15.519564   0.000000
  138       15.519564   0.000000
  139       15.519564   0.000000
  140       15.675390   0.000000
  141       15.725331   0.000000
  142       16.492699   0.000000
  143       16.492699   0.000000
  144       18.008642   0.000000
  145       18.008642   0.000000
  146       18.008642   0.000000
  147       18.008642   0.000000
  148       18.254666   0.000000
  149       18.254666   0.000000
  150       18.254666   0.000000
  151       18.254666   0.000000
  152       18.532546   0.000000
  153       18.656465   0.000000
  154       18.656465   0.000000
  155       18.656465   0.000000
  156       18.656465   0.000000
  157       18.741017   0.000000
  158       18.741017   0.000000
  159       18.741017   0.000000
  160       18.741017   0.000000
  161       18.894370   0.000000
  162       18.894370   0.000000
  163       18.894370   0.000000
  164       18.894370   0.000000
  165       19.082155   0.000000
  166       19.082155   0.000000
  167       19.082155   0.000000
  168       19.082155   0.000000
  169       19.193160   0.000000
  170       19.193160   0.000000
  171       19.193160   0.000000
  172       19.193160   0.000000
  173       19.626942   0.000000
  174       19.626942   0.000000
  175       19.626942   0.000000
  176       19.626942   0.000000
  177       19.711552   0.000000
  178       19.711552   0.000000
  179       19.711552   0.000000
  180       19.711552   0.000000
  181       19.979305   0.000000
  182       19.979305   0.000000
  183       20.035175   0.000000
  184       20.035175   0.000000
  185       20.035175   0.000000
  186       20.035175   0.000000
  187       20.899897   0.000000
  188       20.899926   0.000000
  189       20.900414   0.000000
  190       20.901580   0.000000
  191       20.935715   0.000000
  192       20.937570   0.000000
 
  0.3750000E+00  0.0000000E+00  0.0000000E+00  0.1171875E-01
    1      -11.365527   1.000000
    2      -10.781524   1.000000
    3       -9.052405   1.000000
    4       -9.052405   1.000000
    5       -9.052405   1.000000
    6       -9.052405   1.000000
    7       -8.489314   1.000000
    8       -8.489314   1.000000
    9       -8.489314   1.000000
   10       -8.489314   1.000000
   11       -7.351982   1.000000
   12       -6.861681   1.000000
   13       -6.861681   1.000000
   14       -6.861681   1.000000
   15       -6.861681   1.000000
   16       -6.393900   1.000000
   17       -6.393900   1.000000
   18       -6.393900   1.000000
   19       -6.393900   1.000000
   20       -5.696205   1.000000
   21       -5.290162   1.000000
   22       -5.290162   1.000000
   23       -5.290162   1.000000
   24       -5.290162   1.000000
   25       -3.884026   1.000000
   26       -3.884026   1.000000
   27       -3.884026   1.000000
   28       -3.884026   1.000000
   29       -2.619383   1.000000
   30       -2.619383   1.000000
   31       -2.619383   1.000000
   32       -2.619383   1.000000
   33       -2.341731   1.000000
   34       -2.341731   1.000000
   35       -2.341731   1.000000
   36       -2.341731   1.000000
   37       -2.312033   1.000000
   38       -2.312033   1.000000
   39       -2.312033   1.000000
   40       -2.312033   1.000000
   41       -0.876451   1.000000
   42       -0.876451   1.000000
   43       -0.876451   1.000000
   44       -0.876451   1.000000
   45       -0.787588   1.000000
   46       -0.787588   1.000000
   47       -0.787588   1.000000
   48       -0.787588   1.000000
   49       -0.051060   1.000000
   50       -0.051060   1.000000
   51       -0.051060   1.000000
   52       -0.051060   1.000000
   53        0.349670   1.000000
   54        0.946733   1.000000
   55        0.946733   1.000000
   56        0.946733   1.000000
   57        0.946733   1.000000
   58        1.240995   1.000000
   59        1.240995   1.000000
   60        1.240995   1.000000
   61        1.240995   1.000000
   62        2.233487   1.000000
   63        2.233487   1.000000
   64        2.233487   1.000000
   65        2.233487   1.000000
   66        2.508919   1.000000
   67        2.928499   1.000000
   68        2.928499   1.000000
   69        2.928499   1.000000
   70        2.928499   1.000000
   71        3.015160   1.000000
   72        3.015160   1.000000
   73        3.015160   1.000000
   74        3.015160   1.000000
   75        3.680131   1.000000
   76        3.680131   1.000000
   77        3.680131   1.000000
   78        3.680131   1.000000
   79        3.922606   1.000000
   80        3.922606   1.000000
   81        3.922606   1.000000
   82        3.922606   1.000000
   83        3.989817   1.000000
   84        3.989817   1.000000
   85        4.095154   1.000000
   86        4.095154   1.000000
   87        4.095154   1.000000
   88        4.095154   1.000000
   89        4.555624   1.000000
   90        4.555624   1.000000
   91        4.619074   1.000000
   92        4.619074   1.000000
   93        4.619074   1.000000
   94        4.619074   1.000000
   95        5.017161   1.000000
   96        5.017161   1.000000
   97        5.017161   1.000000
   98        5.017161   1.000000
   99        5.309168   1.000000
  100        5.309168   1.000000
  101        5.309168   1.000000
  102        5.309168   1.000000
  103        6.170717   1.000000
  104        6.170717   1.000000
  105        6.170717   1.000000
  106        6.170717   1.000000
  107        6.922765   1.000000
  108        6.922765   1.000000
  109        6.922765   1.000000
  110        6.922765   1.000000
  111        7.100553   1.000000
  112        7.100553   1.000000
  113        7.100553   1.000000
  114        7.100553   1.000000
  115        7.186324   1.000000
  116        7.186324   1.000000
  117        7.186324   1.000000
  118        7.186324   1.000000
  119        7.330893   1.000000
  120        7.330893   1.000000
  121        7.330893   1.000000
  122        7.330893   1.000000
  123        7.698466   1.000000
  124        7.698466   1.000000
  125        8.119782   1.000000
  126        8.991445   1.000000
  127        8.991445   1.000000
  128        9.355372   1.000000
  129       14.312612   0.000000
  130       14.353896   0.000000
  131       15.182880   0.000000
  132       15.543731   0.000000
  133       15.943080   0.000000
  134       15.943080   0.000000
  135       15.943080   0.000000
  136       15.943080   0.000000
  137       16.205201   0.000000
  138       16.205201   0.000000
  139       16.205201   0.000000
  140       16.205201   0.000000
  141       16.268210   0.000000
  142       17.224501   0.000000
  143       17.224501   0.000000
  144       17.670541   0.000000
  145       17.758912   0.000000
  146       17.758912   0.000000
  147       17.758912   0.000000
  148       17.758912   0.000000
  149       18.099128   0.000000
  150       18.099128   0.000000
  151       18.099128   0.000000
  152       18.099128   0.000000
  153       18.220126   0.000000
  154       18.220126   0.000000
  155       18.220126   0.000000
  156       18.220126   0.000000
  157       18.346724   0.000000
  158       18.346724   0.000000
  159       18.346724   0.000000
  160       18.346724   0.000000
  161       18.567411   0.000000
  162       18.567411   0.000000
  163       18.567411   0.000000
  164       18.567411   0.000000
  165       19.008557   0.000000
  166       19.008557   0.000000
  167       19.110662   0.000000
  168       19.110662   0.000000
  169       19.110662   0.000000
  170       19.110662   0.000000
  171       19.136045   0.000000
  172       19.136045   0.000000
  173       19.136045   0.000000
  174       19.136045   0.000000
  175       19.704362   0.000000
  176       19.704362   0.000000
  177       19.704362   0.000000
  178       19.704362   0.000000
  179       19.747457   0.000000
  180       19.747457   0.000000
  181       19.747457   0.000000
  182       19.747457   0.000000
  183       20.051485   0.000000
  184       20.051485   0.000000
  185       20.051485   0.000000
  186       20.051485   0.000000
  187       20.949461   0.000000
  188       20.951106   0.000000
  189       20.954198   0.000000
  190       21.003970   0.000000
  191       21.015815   0.000000
  192       21.016819   0.000000
 
  0.5000000E+00  0.0000000E+00  0.0000000E+00  0.5859375E-02
    1      -11.109645   1.000000
    2      -11.109645   1.000000
    3       -8.805275   1.000000
    4       -8.805275   1.000000
    5       -8.805275   1.000000
    6       -8.805275   1.000000
    7       -8.805275   1.000000
    8       -8.805275   1.000000
    9       -8.805275   1.000000
   10       -8.805275   1.000000
   11       -6.649631   1.000000
   12       -6.649631   1.000000
   13       -6.649631   1.000000
   14       -6.649631   1.000000
   15       -6.649631   1.000000
   16       -6.649631   1.000000
   17       -6.649631   1.000000
   18       -6.649631   1.000000
   19       -6.552940   1.000000
   20       -6.552940   1.000000
   21       -4.593286   1.000000
   22       -4.593286   1.000000
   23       -4.593286   1.000000
   24       -4.593286   1.000000
   25       -4.593286   1.000000
   26       -4.593286   1.000000
   27       -4.593286   1.000000
   28       -4.593286   1.000000
   29       -2.474389   1.000000
   30       -2.474389   1.000000
   31       -2.474389   1.000000
   32       -2.474389   1.000000
   33       -2.474389   1.000000
   34       -2.474389   1.000000
   35       -2.474389   1.000000
   36       -2.474389   1.000000
   37       -1.645074   1.000000
   38       -1.645074   1.000000
   39       -1.645074   1.000000
   40       -1.645074   1.000000
   41       -1.645074   1.000000
   42       -1.645074   1.000000
   43       -1.645074   1.000000
   44       -1.645074   1.000000
   45       -0.429392   1.000000
   46       -0.429392   1.000000
   47       -0.429392   1.000000
   48       -0.429392   1.000000
   49       -0.429392   1.000000
   50       -0.429392   1.000000
   51       -0.429392   1.000000
   52       -0.429392   1.000000
   53        1.039999   1.000000
   54        1.039999   1.000000
   55        1.039999   1.000000
   56        1.039999   1.000000
   57        1.039999   1.000000
   58        1.039999   1.000000
   59        1.039999   1.000000
   60        1.039999   1.000000
   61        1.432764   1.000000
   62        1.432764   1.000000
   63        2.624019   1.000000
   64        2.624019   1.000000
   65        2.624019   1.000000
   66        2.624019   1.000000
   67        2.624019   1.000000
   68        2.624019   1.000000
   69        2.624019   1.000000
   70        2.624019   1.000000
   71        3.512284   1.000000
   72        3.512284   1.000000
   73        3.512284   1.000000
   74        3.512284   1.000000
   75        3.512284   1.000000
   76        3.512284   1.000000
   77        3.512284   1.000000
   78        3.512284   1.000000
   79        4.238477   1.000000
   80        4.238477   1.000000
   81        4.238477   1.000000
   82        4.238477   1.000000
   83        4.486435   1.000000
   84        4.486435   1.000000
   85        4.486435   1.000000
   86        4.486435   1.000000
   87        4.486435   1.000000
   88        4.486435   1.000000
   89        4.486435   1.000000
   90        4.486435   1.000000
   91        4.510429   1.000000
   92        4.510429   1.000000
   93        4.510429   1.000000
   94        4.510429   1.000000
   95        4.510429   1.000000
   96        4.510429   1.000000
   97        4.510429   1.000000
   98        4.510429   1.000000
   99        5.443649   1.000000
  100        5.443649   1.000000
  101        5.443649   1.000000
  102        5.443649   1.000000
  103        5.443649   1.000000
  104        5.443649   1.000000
  105        5.443649   1.000000
  106        5.443649   1.000000
  107        7.142207   1.000000
  108        7.142207   1.000000
  109        7.142207   1.000000
  110        7.142207   1.000000
  111        7.142207   1.000000
  112        7.142207   1.000000
  113        7.142207   1.000000
  114        7.142207   1.000000
  115        7.174433   1.000000
  116        7.174433   1.000000
  117        7.174433   1.000000
  118        7.174433   1.000000
  119        7.174433   1.000000
  120        7.174433   1.000000
  121        7.174433   1.000000
  122        7.174433   1.000000
  123        8.354263   1.000000
  124        8.354263   1.000000
  125        8.354263   1.000000