mesh: [    48,    48,    48 ]
nqpoint: 2600   
reciprocal_lattice:
- [   0.28266218,   0.00000000,   0.00000000 ] # a*
- [   0.00000000,   0.28266218,   0.00000000 ] # b*
- [   0.00000000,   0.00000000,   0.28266218 ] # c*
natom:   8      
lattice:
- [     3.537792000000000,     0.000000000000000,     0.000000000000000 ] # a
- [     0.000000000000000,     3.537792000000000,     0.000000000000000 ] # b
- [     0.000000000000000,     0.000000000000000,     3.537792000000000 ] # c
points:
- symbol: C  # 1
  coordinates: [  0.250000000000000,  0.750000000000000,  0.250000000000000 ]
  mass: 12.010700
- symbol: C  # 2
  coordinates: [  0.000000000000000,  0.000000000000000,  0.500000000000000 ]
  mass: 12.010700
- symbol: C  # 3
  coordinates: [  0.250000000000000,  0.250000000000000,  0.750000000000000 ]
  mass: 12.010700
- symbol: C  # 4
  coordinates: [  0.000000000000000,  0.500000000000000,  0.000000000000000 ]
  mass: 12.010700
- symbol: C  # 5
  coordinates: [  0.750000000000000,  0.750000000000000,  0.750000000000000 ]
  mass: 12.010700
- symbol: C  # 6
  coordinates: [  0.500000000000000,  0.000000000000000,  0.000000000000000 ]
  mass: 12.010700
- symbol: C  # 7
  coordinates: [  0.750000000000000,  0.250000000000000,  0.250000000000000 ]
  mass: 12.010700
- symbol: C  # 8
  coordinates: [  0.500000000000000,  0.500000000000000,  0.500000000000000 ]
  mass: 12.010700

phonon:
- q-position: [    0.0104167,    0.0104167,    0.0104167 ]
  distance_from_gamma:  0.005099846
  weight: 8    
  band:
  - # 1
    frequency:     0.6020671877
  - # 2
    frequency:     0.6020671877
  - # 3
    frequency:     0.9485686923
  - # 4
    frequency:    23.5244603607
  - # 5
    frequency:    23.5244603607
  - # 6
    frequency:    23.5244603607
  - # 7
    frequency:    23.5387944317
  - # 8
    frequency:    23.5387944317
  - # 9
    frequency:    23.5387944317
  - # 10
    frequency:    33.2284439744
  - # 11
    frequency:    33.2284439744
  - # 12
    frequency:    33.2284439744
  - # 13
    frequency:    33.2353053157
  - # 14
    frequency:    33.2353053157
  - # 15
    frequency:    33.2353053157
  - # 16
    frequency:    36.5201810341
  - # 17
    frequency:    36.5201810341
  - # 18
    frequency:    36.5201810341
  - # 19
    frequency:    36.8640477102
  - # 20
    frequency:    36.8640477102
  - # 21
    frequency:    36.8640477102
  - # 22
    frequency:    39.9438009958
  - # 23
    frequency:    39.9438009958
  - # 24
    frequency:    39.9474946880

- q-position: [    0.0312500,    0.0104167,    0.0104167 ]
  distance_from_gamma:  0.009765462
  weight: 24   
  band:
  - # 1
    frequency:     1.1713414907
  - # 2
    frequency:     1.2022447948
  - # 3
    frequency:     1.7708535458
  - # 4
    frequency:    23.4937214855
  - # 5
    frequency:    23.5080558900
  - # 6
    frequency:    23.5348653974
  - # 7
    frequency:    23.5348653974
  - # 8
    frequency:    23.5777936610
  - # 9
    frequency:    23.5777936610
  - # 10
    frequency:    33.2110607144
  - # 11
    frequency:    33.2110607144
  - # 12
    frequency:    33.2316479949
  - # 13
    frequency:    33.2316479949
  - # 14
    frequency:    33.2482788116
  - # 15
    frequency:    33.2554789744
  - # 16
    frequency:    36.1585480092
  - # 17
    frequency:    36.5116995024
  - # 18
    frequency:    36.5116995024
  - # 19
    frequency:    36.8545833942
  - # 20
    frequency:    36.8545833942
  - # 21
    frequency:    37.1897496594
  - # 22
    frequency:    39.9322726262
  - # 23
    frequency:    39.9330611243
  - # 24
    frequency:    39.9510127937

- q-position: [    0.0520833,    0.0104167,    0.0104167 ]
  distance_from_gamma:  0.015299539
  weight: 24   
  band:
  - # 1
    frequency:     1.8746403787
  - # 2
    frequency:     1.8992642802
  - # 3
    frequency:     2.7337114162
  - # 4
    frequency:    23.4324679161
  - # 5
    frequency:    23.4468022563
  - # 6
    frequency:    23.5698746256
  - # 7
    frequency:    23.5698746256
  - # 8
    frequency:    23.6411781546
  - # 9
    frequency:    23.6411781546
  - # 10
    frequency:    33.1830200315
  - # 11
    frequency:    33.1830200315
  - # 12
    frequency:    33.2173759868
  - # 13
    frequency:    33.2173759868
  - # 14
    frequency:    33.2875862124
  - # 15
    frequency:    33.2955477990
  - # 16
    frequency:    35.7787450692
  - # 17
    frequency:    36.4949597514
  - # 18
    frequency:    36.4949597514
  - # 19
    frequency:    36.8358677619
  - # 20
    frequency:    36.8358677619
  - # 21
    frequency:    37.4978045876
  - # 22
    frequency:    39.9092426814
  - # 23
    frequency:    39.9101239131
  - # 24
    frequency:    39.9594707145

- q-position: [    0.0729167,    0.0104167,    0.0104167 ]
  distance_from_gamma:  0.021027206
  weight: 24   
  band:
  - # 1
    frequency:     2.5969192854
  - # 2
    frequency:     2.6153258170
  - # 3
    frequency:     3.7326957261
  - # 4
    frequency:    23.3411319601
  - # 5
    frequency:    23.3554644240
  - # 6
    frequency:    23.6291460094
  - # 7
    frequency:    23.6291460094
  - # 8
    frequency:    23.7284656105
  - # 9
    frequency:    23.7284656105
  - # 10
    frequency:    33.1440878820
  - # 11
    frequency:    33.1440878820
  - # 12
    frequency:    33.1922705282
  - # 13
    frequency:    33.1922705282
  - # 14
    frequency:    33.3455958270
  - # 15
    frequency:    33.3549717163
  - # 16
    frequency:    35.3808903388
  - # 17
    frequency:    36.4704026445
  - # 18
    frequency:    36.4704026445
  - # 19
    frequency:    36.8083230574
  - # 20
    frequency:    36.8083230574
  - # 21
    frequency:    37.7883855687
  - # 22
    frequency:    39.8747648340
  - # 23
    frequency:    39.8756720890
  - # 24
    frequency:    39.9721148682

- q-position: [    0.0937500,    0.0104167,    0.0104167 ]
  distance_from_gamma:  0.026824740
  weight: 24   
  band:
  - # 1
    frequency:     3.3225327894
  - # 2
    frequency:     3.3364068271
  - # 3
    frequency:     4.7436227229
  - # 4
    frequency:    23.2203245516
  - # 5
    frequency:    23.2346513216
  - # 6
    frequency:    23.7121335085
  - # 7
    frequency:    23.7121335085
  - # 8
    frequency:    23.8389782876
  - # 9
    frequency:    23.8389782876
  - # 10
    frequency:    33.0939369947
  - # 11
    frequency:    33.0939369947
  - # 12
    frequency:    33.1560063775
  - # 13
    frequency:    33.1560063775
  - # 14
    frequency:    33.4209277369
  - # 15
    frequency:    33.4329802693
  - # 16
    frequency:    34.9654468528
  - # 17
    frequency:    36.4386746357
  - # 18
    frequency:    36.4386746357
  - # 19
    frequency:    36.7725727972
  - # 20
    frequency:    36.7725727972
  - # 21
    frequency:    38.0617309269
  - # 22
    frequency:    39.8289198001
  - # 23
    frequency:    39.8298381621
  - # 24
    frequency:    39.9887081057

- q-position: [    0.1145833,    0.0104167,    0.0104167 ]
  distance_from_gamma:  0.032654950
  weight: 24   
  band:
  - # 1
    frequency:     4.0473738805
  - # 2
    frequency:     4.0578777857
  - # 3
    frequency:     5.7577589152
  - # 4
    frequency:    23.0707968181
  - # 5
    frequency:    23.0851116015
  - # 6
    frequency:    23.8180925397
  - # 7
    frequency:    23.8180925397
  - # 8
    frequency:    23.9718514758
  - # 9
    frequency:    23.9718514758
  - # 10
    frequency:    33.0321682564
  - # 11
    frequency:    33.0321682564
  - # 12
    frequency:    33.1081652553
  - # 13
    frequency:    33.1081652553
  - # 14
    frequency:    33.5106000143
  - # 15
    frequency:    33.5286135426
  - # 16
    frequency:    34.5342973516
  - # 17
    frequency:    36.4006088728
  - # 18
    frequency:    36.4006088728
  - # 19
    frequency:    36.7294287431
  - # 20
    frequency:    36.7294287431
  - # 21
    frequency:    38.3181034268
  - # 22
    frequency:    39.7718155824
  - # 23
    frequency:    39.7727399546
  - # 24
    frequency:    40.0089961191

- q-position: [    0.1354167,    0.0104167,    0.0104167 ]
  distance_from_gamma:  0.038502996
  weight: 24   
  band:
  - # 1
    frequency:     4.7696165923
  - # 2
    frequency:     4.7774961465
  - # 3
    frequency:     6.7708996813
  - # 4
    frequency:    22.8933979966
  - # 5
    frequency:    22.9076916972
  - # 6
    frequency:    23.9460867790
  - # 7
    frequency:    23.9460867790
  - # 8
    frequency:    24.1260430601
  - # 9
    frequency:    24.1260430601
  - # 10
    frequency:    32.9583392558
  - # 11
    frequency:    32.9583392558
  - # 12
    frequency:    33.0482577633
  - # 13
    frequency:    33.0482577633
  - # 14
    frequency:    33.6017729626
  - # 15
    frequency:    33.6407674764
  - # 16
    frequency:    34.0990505458
  - # 17
    frequency:    36.3571986002
  - # 18
    frequency:    36.3571986002
  - # 19
    frequency:    36.6798717816
  - # 20
    frequency:    36.6798717816
  - # 21
    frequency:    38.5577859083
  - # 22
    frequency:    39.7035877852
  - # 23
    frequency:    39.7045159747
  - # 24
    frequency:    40.0326745944

- q-position: [    0.1562500,    0.0104167,    0.0104167 ]
  distance_from_gamma:  0.044361825
  weight: 24   
  band:
  - # 1
    frequency:     5.4880997387
  - # 2
    frequency:     5.4938472827
  - # 3
    frequency:     7.7805331225
  - # 4
    frequency:    22.6890346140
  - # 5
    frequency:    22.7032951478
  - # 6
    frequency:    24.0949953967
  - # 7
    frequency:    24.0949953967
  - # 8
    frequency:    24.3003432176
  - # 9
    frequency:    24.3003432176
  - # 10
    frequency:    32.8720015873
  - # 11
    frequency:    32.8720015873
  - # 12
    frequency:    32.9757543958
  - # 13
    frequency:    32.9757543958
  - # 14
    frequency:    33.5148090103
  - # 15
    frequency:    33.7682385797
  - # 16
    frequency:    33.8380281559
  - # 17
    frequency:    36.3095624701
  - # 18
    frequency:    36.3095624701
  - # 19
    frequency:    36.6250257653
  - # 20
    frequency:    36.6250257653
  - # 21
    frequency:    38.7810800950
  - # 22
    frequency:    39.6243999933
  - # 23
    frequency:    39.6253309090
  - # 24
    frequency:    40.0593867879

- q-position: [    0.1770833,    0.0104167,    0.0104167 ]
  distance_from_gamma:  0.050227662
  weight: 24   
  band:
  - # 1
    frequency:     6.2019117898
  - # 2
    frequency:     6.2058661421
  - # 3
    frequency:     8.7848972128
  - # 4
    frequency:    22.4586346596
  - # 5
    frequency:    22.4728469074
  - # 6
    frequency:    24.2635195338
  - # 7
    frequency:    24.2635195338
  - # 8
    frequency:    24.4933830765
  - # 9
    frequency:    24.4933830765
  - # 10
    frequency:    32.7727473401
  - # 11
    frequency:    32.7727473401
  - # 12
    frequency:    32.8901265276
  - # 13
    frequency:    32.8901265276
  - # 14
    frequency:    33.0689665151
  - # 15
    frequency:    33.9097642250
  - # 16
    frequency:    33.9306129137
  - # 17
    frequency:    36.2589022003
  - # 18
    frequency:    36.2589022003
  - # 19
    frequency:    36.5661238484
  - # 20
    frequency:    36.5661238484
  - # 21
    frequency:    38.9883063036
  - # 22
    frequency:    39.5344442055
  - # 23
    frequency:    39.5353772567
  - # 24
    frequency:    40.0887254457

- q-position: [    0.1979167,    0.0104167,    0.0104167 ]
  distance_from_gamma:  0.056098311
  weight: 24   
  band:
  - # 1
    frequency:     6.9102535067
  - # 2
    frequency:     6.9126573877
  - # 3
    frequency:     9.7826089245
  - # 4
    frequency:    22.2031189469
  - # 5
    frequency:    22.2172648259
  - # 6
    frequency:    24.4501865068
  - # 7
    frequency:    24.4501865068
  - # 8
    frequency:    24.7036409019
  - # 9
    frequency:    24.7036409019
  - # 10
    frequency:    32.5640440968
  - # 11
    frequency:    32.6602643362
  - # 12
    frequency:    32.6602643362
  - # 13
    frequency:    32.7908975454
  - # 14
    frequency:    32.7908975454
  - # 15
    frequency:    34.0640562321
  - # 16
    frequency:    34.0756390925
  - # 17
    frequency:    36.2064542574
  - # 18
    frequency:    36.2064542574
  - # 19
    frequency:    36.5044677707
  - # 20
    frequency:    36.5044677707
  - # 21
    frequency:    39.1798035573
  - # 22
    frequency:    39.4339413119
  - # 23
    frequency:    39.4348761827
  - # 24
    frequency:    40.1202359274

- q-position: [    0.2187500,    0.0104167,    0.0104167 ]
  distance_from_gamma:  0.061972403
  weight: 24   
  band:
  - # 1
    frequency:     7.6123838940
  - # 2
    frequency:     7.6134176150
  - # 3
    frequency:    10.7724995220
  - # 4
    frequency:    21.9233804083
  - # 5
    frequency:    21.9374390419
  - # 6
    frequency:    24.6533498126
  - # 7
    frequency:    24.6533498126
  - # 8
    frequency:    24.9294439817
  - # 9
    frequency:    24.9294439817
  - # 10
    frequency:    32.0341371111
  - # 11
    frequency:    32.5343988434
  - # 12
    frequency:    32.5343988434
  - # 13
    frequency:    32.6777033024
  - # 14
    frequency:    32.6777033024
  - # 15
    frequency:    34.2298268911
  - # 16
    frequency:    34.2376632710
  - # 17
    frequency:    36.1534386543
  - # 18
    frequency:    36.1534386543
  - # 19
    frequency:    36.4413818245
  - # 20
    frequency:    36.4413818245
  - # 21
    frequency:    39.3231416028
  - # 22
    frequency:    39.3240781709
  - # 23
    frequency:    39.3559299131
  - # 24
    frequency:    40.1534198820

- q-position: [    0.2395833,    0.0104167,    0.0104167 ]
  distance_from_gamma:  0.067849044
  weight: 24   
  band:
  - # 1
    frequency:     8.3073981431
  - # 2
    frequency:     8.3075961827
  - # 3
    frequency:    11.7535345260
  - # 4
    frequency:    21.6202709465
  - # 5
    frequency:    21.6342189056
  - # 6
    frequency:    24.8711823915
  - # 7
    frequency:    24.8711823915
  - # 8
    frequency:    25.1689638049
  - # 9
    frequency:    25.1689638049
  - # 10
    frequency:    31.4829918225
  - # 11
    frequency:    32.3952240808
  - # 12
    frequency:    32.3952240808
  - # 13
    frequency:    32.5503602028
  - # 14
    frequency:    32.5503602028
  - # 15
    frequency:    34.4058076972
  - # 16
    frequency:    34.4116301106
  - # 17
    frequency:    36.1010091476
  - # 18
    frequency:    36.1010091476
  - # 19
    frequency:    36.3781646435
  - # 20
    frequency:    36.3781646435
  - # 21
    frequency:    39.2023252962
  - # 22
    frequency:    39.2032636190
  - # 23
    frequency:    39.5170629051
  - # 24
    frequency:    40.1877392593

- q-position: [    0.2604167,    0.0104167,    0.0104167 ]
  distance_from_gamma:  0.073727625
  weight: 24   
  band:
  - # 1
    frequency:     8.9938858411
  - # 2
    frequency:     8.9952062086
  - # 3
    frequency:    12.7247721088
  - # 4
    frequency:    21.2945947686
  - # 5
    frequency:    21.3084063616
  - # 6
    frequency:    25.1016596716
  - # 7
    frequency:    25.1016596716
  - # 8
    frequency:    25.4202011657
  - # 9
    frequency:    25.4202011657
  - # 10
    frequency:    30.9115610683
  - # 11
    frequency:    32.2431134187
  - # 12
    frequency:    32.2431134187
  - # 13
    frequency:    32.4089390435
  - # 14
    frequency:    32.4089390435
  - # 15
    frequency:    34.5907617630
  - # 16
    frequency:    34.5953303478
  - # 17
    frequency:    36.0502096367
  - # 18
    frequency:    36.0502096367
  - # 19
    frequency:    36.3160430774
  - # 20
    frequency:    36.3160430774
  - # 21
    frequency:    39.0718030697
  - # 22
    frequency:    39.0727434078
  - # 23
    frequency:    39.6636000390
  - # 24
    frequency:    40.2226205492

- q-position: [    0.2812500,    0.0104167,    0.0104167 ]
  distance_from_gamma:  0.079607715
  weight: 24   
  band:
  - # 1
    frequency:     9.6721927007
  - # 2
    frequency:     9.6745464661
  - # 3
    frequency:    13.6853403508
  - # 4
    frequency:    20.9471068176
  - # 5
    frequency:    20.9607544058
  - # 6
    frequency:    25.3425274399
  - # 7
    frequency:    25.3425274399
  - # 8
    frequency:    25.6809562672
  - # 9
    frequency:    25.6809562672
  - # 10
    frequency:    30.3202068801
  - # 11
    frequency:    32.0788192826
  - # 12
    frequency:    32.0788192826
  - # 13
    frequency:    32.2538439221
  - # 14
    frequency:    32.2538439221
  - # 15
    frequency:    34.7834911940
  - # 16
    frequency:    34.7872068274
  - # 17
    frequency:    36.0019410946
  - # 18
    frequency:    36.0019410946
  - # 19
    frequency:    36.2561328265
  - # 20
    frequency:    36.2561328265
  - # 21
    frequency:    38.9319165833
  - # 22
    frequency:    38.9328594495
  - # 23
    frequency:    39.7959592919
  - # 24
    frequency:    40.2574591664

- q-position: [    0.3020833,    0.0104167,    0.0104167 ]
  distance_from_gamma:  0.085489004
  weight: 24   
  band:
  - # 1
    frequency:    10.3416499471
  - # 2
    frequency:    10.3449629735
  - # 3
    frequency:    14.6344243437
  - # 4
    frequency:    20.5785148874
  - # 5
    frequency:    20.5919692072
  - # 6
    frequency:    25.5912472728
  - # 7
    frequency:    25.5912472728
  - # 8
    frequency:    25.9487763063
  - # 9
    frequency:    25.9487763063
  - # 10
    frequency:    29.7091184623
  - # 11
    frequency:    31.9035627349
  - # 12
    frequency:    31.9035627349
  - # 13
    frequency:    32.0858987131
  - # 14
    frequency:    32.0858987131
  - # 15
    frequency:    34.9828407432
  - # 16
    frequency:    34.9859414900
  - # 17
    frequency:    35.9569418903
  - # 18
    frequency:    35.9569418903
  - # 19
    frequency:    36.1994099089
  - # 20
    frequency:    36.1994099090
  - # 21
    frequency:    38.7830389786
  - # 22
    frequency:    38.7839852068
  - # 23
    frequency:    39.9145795768
  - # 24
    frequency:    40.2916239120

- q-position: [    0.3229167,    0.0104167,    0.0104167 ]
  distance_from_gamma:  0.091371260
  weight: 24   
  band:
  - # 1
    frequency:    11.0016046364
  - # 2
    frequency:    11.0058136204
  - # 3
    frequency:    15.5712586863
  - # 4
    frequency:    20.1894841533
  - # 5
    frequency:    20.2027146288
  - # 6
    frequency:    25.8449086879
  - # 7
    frequency:    25.8449086879
  - # 8
    frequency:    26.2208687850
  - # 9
    frequency:    26.2208687850
  - # 10
    frequency:    29.0784314422
  - # 11
    frequency:    31.7191446629
  - # 12
    frequency:    31.7191446629
  - # 13
    frequency:    31.9064493034
  - # 14
    frequency:    31.9064493034
  - # 15
    frequency:    35.1876989272
  - # 16
    frequency:    35.1903385686
  - # 17
    frequency:    35.9157822779
  - # 18
    frequency:    35.9157822779
  - # 19
    frequency:    36.1466954601
  - # 20
    frequency:    36.1466954601
  - # 21
    frequency:    38.6255753414
  - # 22
    frequency:    38.6265261736
  - # 23
    frequency:    40.0199211382
  - # 24
    frequency:    40.3244614490

- q-position: [    0.3437500,    0.0104167,    0.0104167 ]
  distance_from_gamma:  0.097254308
  weight: 24   
  band:
  - # 1
    frequency:    11.6514176657
  - # 2
    frequency:    11.6564673227
  - # 3
    frequency:    16.4951230413
  - # 4
    frequency:    19.7806430801
  - # 5
    frequency:    19.7936181133
  - # 6
    frequency:    26.1000920016
  - # 7
    frequency:    26.1000920016
  - # 8
    frequency:    26.4939620389
  - # 9
    frequency:    26.4939620389
  - # 10
    frequency:    28.4282714457
  - # 11
    frequency:    31.5280972375
  - # 12
    frequency:    31.5280972375
  - # 13
    frequency:    31.7174983888
  - # 14
    frequency:    31.7174983888
  - # 15
    frequency:    35.3969975636
  - # 16
    frequency:    35.3992818885
  - # 17
    frequency:    35.8788717374
  - # 18
    frequency:    35.8788717374
  - # 19
    frequency:    36.0986541971
  - # 20
    frequency:    36.0986541971
  - # 21
    frequency:    38.4599631161
  - # 22
    frequency:    38.4609203067
  - # 23
    frequency:    40.1124658480
  - # 24
    frequency:    40.3553007346

- q-position: [    0.3645833,    0.0104167,    0.0104167 ]
  distance_from_gamma:  0.103138011
  weight: 24   
  band:
  - # 1
    frequency:    12.2904626032
  - # 2
    frequency:    12.2963036230
  - # 3
    frequency:    17.4053394699
  - # 4
    frequency:    19.3525899157
  - # 5
    frequency:    19.3652771458
  - # 6
    frequency:    26.3526593400
  - # 7
    frequency:    26.3526593400
  - # 8
    frequency:    26.7640844368
  - # 9
    frequency:    26.7640844368
  - # 10
    frequency:    27.7587731286
  - # 11
    frequency:    31.3339027883
  - # 12
    frequency:    31.3339027883
  - # 13
    frequency:    31.5219015314
  - # 14
    frequency:    31.5219015314
  - # 15
    frequency:    35.6097104554
  - # 16
    frequency:    35.6117158489
  - # 17
    frequency:    35.8464763357
  - # 18
    frequency:    35.8464763357
  - # 19
    frequency:    36.0558047239
  - # 20
    frequency:    36.0558047239
  - # 21
    frequency:    38.2866724610
  - # 22
    frequency:    38.2876383987
  - # 23
    frequency:    40.1927173694
  - # 24
    frequency:    40.3834573557

- q-position: [    0.3854167,    0.0104167,    0.0104167 ]
  distance_from_gamma:  0.109022265
  weight: 24   
  band:
  - # 1
    frequency:    12.9181249874
  - # 2
    frequency:    12.9247125209
  - # 3
    frequency:    18.3012708082
  - # 4
    frequency:    18.9058992066
  - # 5
    frequency:    18.9182657308
  - # 6
    frequency:    26.5974463651
  - # 7
    frequency:    26.5974463651
  - # 8
    frequency:    27.0262215016
  - # 9
    frequency:    27.0262215016
  - # 10
    frequency:    27.0700897840
  - # 11
    frequency:    31.1413118896
  - # 12
    frequency:    31.1413118896
  - # 13
    frequency:    31.3236679578
  - # 14
    frequency:    31.3236679578
  - # 15
    frequency:    35.8187426382
  - # 16
    frequency:    35.8187426382
  - # 17
    frequency:    35.8248517309
  - # 18
    frequency:    35.8266354602
  - # 19
    frequency:    36.0185382437
  - # 20
    frequency:    36.0185382437
  - # 21
    frequency:    38.1062065375
  - # 22
    frequency:    38.1071843872
  - # 23
    frequency:    40.2612011646
  - # 24
    frequency:    40.4082377202

- q-position: [    0.4062500,    0.0104167,    0.0104167 ]
  distance_from_gamma:  0.114906983
  weight: 24   
  band:
  - # 1
    frequency:    13.5338018750
  - # 2
    frequency:    13.5410943956
  - # 3
    frequency:    18.4411279636
  - # 4
    frequency:    18.4531405143
  - # 5
    frequency:    19.1823196458
  - # 6
    frequency:    26.3623988429
  - # 7
    frequency:    26.8278359042
  - # 8
    frequency:    26.8278359042
  - # 9
    frequency:    27.2738054509
  - # 10
    frequency:    27.2738054509
  - # 11
    frequency:    30.9567766027
  - # 12
    frequency:    30.9567766027
  - # 13
    frequency:    31.1284221776
  - # 14
    frequency:    31.1284221776
  - # 15
    frequency:    35.7957249015
  - # 16
    frequency:    35.7957249015
  - # 17
    frequency:    35.9871414947
  - # 18
    frequency:    35.9871414947
  - # 19
    frequency:    36.0414741689
  - # 20
    frequency:    36.0430804304
  - # 21
    frequency:    37.9191017302
  - # 22
    frequency:    37.9200955952
  - # 23
    frequency:    40.3184643159
  - # 24
    frequency:    40.4289430627

- q-position: [    0.4270833,    0.0104167,    0.0104167 ]
  distance_from_gamma:  0.120792099
  weight: 24   
  band:
  - # 1
    frequency:    14.1369014853
  - # 2
    frequency:    14.1448599223
  - # 3
    frequency:    17.9588212529
  - # 4
    frequency:    17.9704463284
  - # 5
    frequency:    20.0479276387
  - # 6
    frequency:    25.6359053905
  - # 7
    frequency:    27.0352520212
  - # 8
    frequency:    27.0352520212
  - # 9
    frequency:    27.4980324354
  - # 10
    frequency:    27.4980324354
  - # 11
    frequency:    30.7889271872
  - # 12
    frequency:    30.7889271872
  - # 13
    frequency:    30.9440712090
  - # 14
    frequency:    30.9440712090
  - # 15
    frequency:    35.7774129813
  - # 16
    frequency:    35.7774129813
  - # 17
    frequency:    35.9618198488
  - # 18
    frequency:    35.9618198488
  - # 19
    frequency:    36.2586677001
  - # 20
    frequency:    36.2601313578
  - # 21
    frequency:    37.7259277967
  - # 22
    frequency:    37.7269429068
  - # 23
    frequency:    40.3650751378
  - # 24
    frequency:    40.4448732283

- q-position: [    0.4479167,    0.0104167,    0.0104167 ]
  distance_from_gamma:  0.126677557
  weight: 24   
  band:
  - # 1
    frequency:    14.7268428298
  - # 2
    frequency:    14.7354299027
  - # 3
    frequency:    17.4595171017
  - # 4
    frequency:    17.4707210476
  - # 5
    frequency:    20.8975749865
  - # 6
    frequency:    24.8908446288
  - # 7
    frequency:    27.2087971577
  - # 8
    frequency:    27.2087971577
  - # 9
    frequency:    27.6871976869
  - # 10
    frequency:    27.6871976869
  - # 11
    frequency:    30.6487364695
  - # 12
    frequency:    30.6487364695
  - # 13
    frequency:    30.7816257086
  - # 14
    frequency:    30.7816257086
  - # 15
    frequency:    35.7637591568
  - # 16
    frequency:    35.7637591568
  - # 17
    frequency:    35.9427173463
  - # 18
    frequency:    35.9427173463
  - # 19
    frequency:    36.4755581786
  - # 20
    frequency:    36.4769071760
  - # 21
    frequency:    37.5272879555
  - # 22
    frequency:    37.5283308848
  - # 23
    frequency:    40.4016225562
  - # 24
    frequency:    40.4553302063

- q-position: [    0.4687500,    0.0104167,    0.0104167 ]
  distance_from_gamma:  0.132563312
  weight: 24   
  band:
  - # 1
    frequency:    15.3030552334
  - # 2
    frequency:    15.3122349394
  - # 3
    frequency:    16.9437506817
  - # 4
    frequency:    16.9544997207
  - # 5
    frequency:    21.7307799624
  - # 6
    frequency:    24.1274837240
  - # 7
    frequency:    27.3356471818
  - # 8
    frequency:    27.3356471818
  - # 9
    frequency:    27.8267720444
  - # 10
    frequency:    27.8267720444
  - # 11
    frequency:    30.5483635229
  - # 12
    frequency:    30.5483635229
  - # 13
    frequency:    30.6558485974
  - # 14
    frequency:    30.6558485974
  - # 15
    frequency:    35.7547025255
  - # 16
    frequency:    35.7547025255
  - # 17
    frequency:    35.9299317461
  - # 18
    frequency:    35.9299317461
  - # 19
    frequency:    36.6913064454
  - # 20
    frequency:    36.6925634254
  - # 21
    frequency:    37.3238189227
  - # 22
    frequency:    37.3248978456
  - # 23
    frequency:    40.4287152335
  - # 24
    frequency:    40.4596213873

- q-position: [    0.4895833,    0.0104167,    0.0104167 ]
  distance_from_gamma:  0.138449325
  weight: 24   
  band:
  - # 1
    frequency:    15.8649776637
  - # 2
    frequency:    15.8747148847
  - # 3
    frequency:    16.4120577881
  - # 4
    frequency:    16.4223179954
  - # 5
    frequency:    22.5470984253
  - # 6
    frequency:    23.3461232619
  - # 7
    frequency:    27.4031920628
  - # 8
    frequency:    27.4031920628
  - # 9
    frequency:    27.9016863376
  - # 10
    frequency:    27.9016863376
  - # 11
    frequency:    30.4971141807
  - # 12
    frequency:    30.4971141807
  - # 13
    frequency:    30.5848414903
  - # 14
    frequency:    30.5848414903
  - # 15
    frequency:    35.7501896179
  - # 16
    frequency:    35.7501896179
  - # 17
    frequency:    35.9235241655
  - # 18
    frequency:    35.9235241655
  - # 19
    frequency:    36.9051076685
  - # 20
    frequency:    36.9062911014
  - # 21
    frequency:    37.1161909181
  - # 22
    frequency:    37.1173159153
  - # 23
    frequency:    40.4469804220
  - # 24
    frequency:    40.4570625298

- q-position: [    0.0312500,    0.0312500,    0.0104167 ]
  distance_from_gamma:  0.012834332
  weight: 24   
  band:
  - # 1
    frequency:     1.4745071394
  - # 2
    frequency:     1.5838839844
  - # 3
    frequency:     2.3641789919
  - # 4
    frequency:    23.5040606986
  - # 5
    frequency:    23.5040606986
  - # 6
    frequency:    23.5165591643
  - # 7
    frequency:    23.5470127565
  - # 8
    frequency:    23.5470127565
  - # 9
    frequency:    23.6451061270
  - # 10
    frequency:    33.1804827544
  - # 11
    frequency:    33.2295636974
  - # 12
    frequency:    33.2295636974
  - # 13
    frequency:    33.2417291300
  - # 14
    frequency:    33.2518939990
  - # 15
    frequency:    33.2518939990
  - # 16
    frequency:    36.1540939877
  - # 17
    frequency:    36.1540939877
  - # 18
    frequency:    36.4965742275
  - # 19
    frequency:    36.8512979423
  - # 20
    frequency:    37.1777167589
  - # 21
    frequency:    37.1777167589
  - # 22
    frequency:    39.9210921485
  - # 23
    frequency:    39.9267355610
  - # 24
    frequency:    39.9498091171

- q-position: [    0.0520833,    0.0312500,    0.0104167 ]
  distance_from_gamma:  0.017419292
  weight: 48   
  band:
  - # 1
    frequency:     2.0310431963
  - # 2
    frequency:     2.1613193319
  - # 3
    frequency:     3.1776714072
  - # 4
    frequency:    23.4426785200
  - # 5
    frequency:    23.4856764497
  - # 6
    frequency:    23.5228910348
  - # 7
    frequency:    23.5389094570
  - # 8
    frequency:    23.6103398926
  - # 9
    frequency:    23.7363794462
  - # 10
    frequency:    33.1398206214
  - # 11
    frequency:    33.1984257539
  - # 12
    frequency:    33.2382512121
  - # 13
    frequency:    33.2411367644
  - # 14
    frequency:    33.2658966250
  - # 15
    frequency:    33.2920917838
  - # 16
    frequency:    35.7792285852
  - # 17
    frequency:    36.1453692946
  - # 18
    frequency:    36.4673192555
  - # 19
    frequency:    36.8441961115
  - # 20
    frequency:    37.1538538480
  - # 21
    frequency:    37.4840742893
  - # 22
    frequency:    39.8982634315
  - # 23
    frequency:    39.9063469766
  - # 24
    frequency:    39.9555979045

- q-position: [    0.0729167,    0.0312500,    0.0104167 ]
  distance_from_gamma:  0.022616348
  weight: 48   
  band: