       N       E                     dE             d eps       ncg     rms          rms(c)
DAV:   1     0.511100359106E+03    0.51110E+03   -0.11415E+05 13440   0.106E+03
DAV:   2    -0.562545180614E+03   -0.10736E+04   -0.10241E+04 17824   0.233E+02
DAV:   3    -0.602960386263E+03   -0.40415E+02   -0.40180E+02 17792   0.423E+01
DAV:   4    -0.603376463080E+03   -0.41608E+00   -0.41518E+00 17600   0.476E+00
DAV:   5    -0.603385493485E+03   -0.90304E-02   -0.90266E-02 16768   0.642E-01    0.277E+01
DAV:   6    -0.587018745669E+03    0.16367E+02   -0.10748E+01 15872   0.666E+00    0.151E+01
DAV:   7    -0.581496253358E+03    0.55225E+01   -0.12170E+01 16352   0.730E+00    0.198E+00
DAV:   8    -0.581559755816E+03   -0.63502E-01   -0.27014E-01 16672   0.105E+00    0.220E-01
DAV:   9    -0.581561852284E+03   -0.20965E-02   -0.35983E-03 17408   0.145E-01    0.814E-02
DAV:  10    -0.581562295637E+03   -0.44335E-03   -0.38212E-04 16256   0.524E-02    0.804E-03
DAV:  11    -0.581562301211E+03   -0.55743E-05   -0.10733E-05 17408   0.777E-03    0.199E-03
DAV:  12    -0.581562301112E+03    0.99337E-07   -0.33617E-07 17120   0.146E-03    0.220E-04
DAV:  13    -0.581562301170E+03   -0.58915E-07   -0.51878E-09 12896   0.189E-04    0.388E-05
DAV:  14    -0.581562301194E+03   -0.23076E-07   -0.68188E-10 11296   0.660E-05    0.200E-05
DAV:  15    -0.581562301194E+03    0.40018E-10   -0.13095E-10 10272   0.278E-05
   1 F= -.58156230E+03 E0= -.58156230E+03  d E =-.802711E-12
 Linear response reoptimize wavefunctions
DAV:   1    -0.581562301193E+03    0.50113E-09   -0.22309E-11 10080   0.125E-05
DAV:   2    -0.581562301193E+03    0.21737E-09   -0.26352E-12 10080   0.634E-06
DAV:   3    -0.581562301193E+03   -0.20918E-09    0.30640E-12 10080   0.318E-06
 Linear response DOF=           1
 Linear response progress:
  Degree of freedom:   1/  1
       N       E                     dE             d eps       ncg     rms          rms(c)
RMM:   1    -0.148056389718E+00   -0.14806E+00    0.33736E-03113760   0.743E-01
RMM:   2    -0.125219129355E+00    0.22837E-01   -0.71812E-03 68166   0.190E-01    0.189E-01
RMM:   3    -0.125027614549E+00    0.19151E-03   -0.10227E-03 71717   0.534E-02    0.949E-02
RMM:   4    -0.125322105755E+00   -0.29449E-03   -0.28821E-04 71964   0.294E-02    0.283E-02
RMM:   5    -0.125415229538E+00   -0.93124E-04   -0.20638E-05 73161   0.813E-03    0.674E-03
RMM:   6    -0.125400047395E+00    0.15182E-04   -0.88160E-06 74160   0.201E-03    0.140E-03
RMM:   7    -0.125391303892E+00    0.87435E-05   -0.70731E-06 75351   0.633E-04    0.395E-04
RMM:   8    -0.125390498429E+00    0.80546E-06   -0.41370E-06 76902   0.278E-04    0.853E-05
RMM:   9    -0.125390433724E+00    0.64705E-07   -0.60183E-06 78463   0.173E-04    0.371E-05
RMM:  10    -0.125390349344E+00    0.84380E-07   -0.46015E-06 79817   0.165E-04    0.106E-05
RMM:  11    -0.125390486973E+00   -0.13763E-06   -0.59388E-06 80056   0.162E-04    0.413E-06
 Linear response finished
