# Thermal properties / unit cell (natom)

unit:
  temperature:   K
  free_energy:   kJ/mol
  entropy:       J/K/mol
  heat_capacity: J/K/mol

natom: 8    
cutoff_frequency:    0.000
num_modes: 2654208
num_integrated_modes: 2654208

zero_point_energy:     142.3878232
high_T_entropy:        428.1238084

thermal_properties:
- temperature:         0.0000000
  free_energy:       142.3878232
  entropy:             0.0000000
  heat_capacity:       0.0000000
  energy:            142.3878232

- temperature:         2.0000000
  free_energy:       142.3878232
  entropy:             0.0000000
  heat_capacity:       0.0000000
  energy:            142.3878232

- temperature:         4.0000000
  free_energy:       142.3878232
  entropy:             0.0000073
  heat_capacity:       0.0000472
  energy:            142.3878232

- temperature:         6.0000000
  free_energy:       142.3878231
  entropy:             0.0000629
  heat_capacity:       0.0002755
  energy:            142.3878235

- temperature:         8.0000000
  free_energy:       142.3878229
  entropy:             0.0001967
  heat_capacity:       0.0007142
  energy:            142.3878245

- temperature:        10.0000000
  free_energy:       142.3878223
  entropy:             0.0004261
  heat_capacity:       0.0014177
  energy:            142.3878265

- temperature:        12.0000000
  free_energy:       142.3878211
  entropy:             0.0007710
  heat_capacity:       0.0024594
  energy:            142.3878303

- temperature:        14.0000000
  free_energy:       142.3878191
  entropy:             0.0012535
  heat_capacity:       0.0039122
  energy:            142.3878366

- temperature:        16.0000000
  free_energy:       142.3878160
  entropy:             0.0018965
  heat_capacity:       0.0058482
  energy:            142.3878463

- temperature:        18.0000000
  free_energy:       142.3878114
  entropy:             0.0027233
  heat_capacity:       0.0083395
  energy:            142.3878604

- temperature:        20.0000000
  free_energy:       142.3878049
  entropy:             0.0037576
  heat_capacity:       0.0114590
  energy:            142.3878801

- temperature:        22.0000000
  free_energy:       142.3877962
  entropy:             0.0050231
  heat_capacity:       0.0152804
  energy:            142.3879067

- temperature:        24.0000000
  free_energy:       142.3877847
  entropy:             0.0065439
  heat_capacity:       0.0198790
  energy:            142.3879417

- temperature:        26.0000000
  free_energy:       142.3877698
  entropy:             0.0083445
  heat_capacity:       0.0253316
  energy:            142.3879868

- temperature:        28.0000000
  free_energy:       142.3877511
  entropy:             0.0104494
  heat_capacity:       0.0317167
  energy:            142.3880437

- temperature:        30.0000000
  free_energy:       142.3877278
  entropy:             0.0128838
  heat_capacity:       0.0391147
  energy:            142.3881143

- temperature:        32.0000000
  free_energy:       142.3876993
  entropy:             0.0156733
  heat_capacity:       0.0476087
  energy:            142.3882009

- temperature:        34.0000000
  free_energy:       142.3876649
  entropy:             0.0188436
  heat_capacity:       0.0572838
  energy:            142.3883056

- temperature:        36.0000000
  free_energy:       142.3876237
  entropy:             0.0224215
  heat_capacity:       0.0682287
  energy:            142.3884309

- temperature:        38.0000000
  free_energy:       142.3875749
  entropy:             0.0264337
  heat_capacity:       0.0805351
  energy:            142.3885794

- temperature:        40.0000000
  free_energy:       142.3875176
  entropy:             0.0309082
  heat_capacity:       0.0942989
  energy:            142.3887540

- temperature:        42.0000000
  free_energy:       142.3874509
  entropy:             0.0358732
  heat_capacity:       0.1096205
  energy:            142.3889576

- temperature:        44.0000000
  free_energy:       142.3873738
  entropy:             0.0413581
  heat_capacity:       0.1266059
  energy:            142.3891936

- temperature:        46.0000000
  free_energy:       142.3872851
  entropy:             0.0473931
  heat_capacity:       0.1453668
  energy:            142.3894652

- temperature:        48.0000000
  free_energy:       142.3871838
  entropy:             0.0540093
  heat_capacity:       0.1660220
  energy:            142.3897763

- temperature:        50.0000000
  free_energy:       142.3870687
  entropy:             0.0612393
  heat_capacity:       0.1886980
  energy:            142.3901307

- temperature:        52.0000000
  free_energy:       142.3869385
  entropy:             0.0691166
  heat_capacity:       0.2135295
  energy:            142.3905325

- temperature:        54.0000000
  free_energy:       142.3867918
  entropy:             0.0776766
  heat_capacity:       0.2406604
  energy:            142.3909863

- temperature:        56.0000000
  free_energy:       142.3866273
  entropy:             0.0869558
  heat_capacity:       0.2702438
  energy:            142.3914968

- temperature:        58.0000000
  free_energy:       142.3864434
  entropy:             0.0969928
  heat_capacity:       0.3024427
  energy:            142.3920690

- temperature:        60.0000000
  free_energy:       142.3862388
  entropy:             0.1078277
  heat_capacity:       0.3374297
  energy:            142.3927084

- temperature:        62.0000000
  free_energy:       142.3860116
  entropy:             0.1195025
  heat_capacity:       0.3753872
  energy:            142.3934207

- temperature:        64.0000000
  free_energy:       142.3857602
  entropy:             0.1320612
  heat_capacity:       0.4165065
  energy:            142.3942121

- temperature:        66.0000000
  free_energy:       142.3854827
  entropy:             0.1455498
  heat_capacity:       0.4609878
  energy:            142.3950890

- temperature:        68.0000000
  free_energy:       142.3851773
  entropy:             0.1600161
  heat_capacity:       0.5090386
  energy:            142.3960584

- temperature:        70.0000000
  free_energy:       142.3848420
  entropy:             0.1755102
  heat_capacity:       0.5608735
  energy:            142.3971277

- temperature:        72.0000000
  free_energy:       142.3844746
  entropy:             0.1920836
  heat_capacity:       0.6167123
  energy:            142.3983046

- temperature:        74.0000000
  free_energy:       142.3840729
  entropy:             0.2097901
  heat_capacity:       0.6767791
  energy:            142.3995973

- temperature:        76.0000000
  free_energy:       142.3836346
  entropy:             0.2286850
  heat_capacity:       0.7413008
  energy:            142.4010147

- temperature:        78.0000000
  free_energy:       142.3831573
  entropy:             0.2488252
  heat_capacity:       0.8105059
  energy:            142.4025657

- temperature:        80.0000000
  free_energy:       142.3826384
  entropy:             0.2702691
  heat_capacity:       0.8846226
  energy:            142.4042600

- temperature:        82.0000000
  free_energy:       142.3820753
  entropy:             0.2930764
  heat_capacity:       0.9638777
  energy:            142.4061076

- temperature:        84.0000000
  free_energy:       142.3814652
  entropy:             0.3173079
  heat_capacity:       1.0484952
  energy:            142.4081190

- temperature:        86.0000000
  free_energy:       142.3808051
  entropy:             0.3430255
  heat_capacity:       1.1386951
  energy:            142.4103053

- temperature:        88.0000000
  free_energy:       142.3800920
  entropy:             0.3702914
  heat_capacity:       1.2346917
  energy:            142.4126777

- temperature:        90.0000000
  free_energy:       142.3793229
  entropy:             0.3991689
  heat_capacity:       1.3366931
  energy:            142.4152481

- temperature:        92.0000000
  free_energy:       142.3784943
  entropy:             0.4297212
  heat_capacity:       1.4448997
  energy:            142.4180286

- temperature:        94.0000000
  free_energy:       142.3776028
  entropy:             0.4620118
  heat_capacity:       1.5595037
  energy:            142.4210319

- temperature:        96.0000000
  free_energy:       142.3766450
  entropy:             0.4961042
  heat_capacity:       1.6806881
  energy:            142.4242710

- temperature:        98.0000000
  free_energy:       142.3756172
  entropy:             0.5320615
  heat_capacity:       1.8086263
  energy:            142.4277592

- temperature:       100.0000000
  free_energy:       142.3745155
  entropy:             0.5699465
  heat_capacity:       1.9434814
  energy:            142.4315101

- temperature:       102.0000000
  free_energy:       142.3733360
  entropy:             0.6098213
  heat_capacity:       2.0854058
  energy:            142.4355378

- temperature:       104.0000000
  free_energy:       142.3720748
  entropy:             0.6517474
  heat_capacity:       2.2345413
  energy:            142.4398565

- temperature:       106.0000000
  free_energy:       142.3707276
  entropy:             0.6957852
  heat_capacity:       2.3910186
  energy:            142.4444809

- temperature:       108.0000000
  free_energy:       142.3692902
  entropy:             0.7419941
  heat_capacity:       2.5549574
  energy:            142.4494256

- temperature:       110.0000000
  free_energy:       142.3677582
  entropy:             0.7904325
  heat_capacity:       2.7264665
  energy:            142.4547058

- temperature:       112.0000000
  free_energy:       142.3661270
  entropy:             0.8411571
  heat_capacity:       2.9056437
  energy:            142.4603366

- temperature:       114.0000000
  free_energy:       142.3643920
  entropy:             0.8942237
  heat_capacity:       3.0925763
  energy:            142.4663335

- temperature:       116.0000000
  free_energy:       142.3625485
  entropy:             0.9496864
  heat_capacity:       3.2873411
  energy:            142.4727121

- temperature:       118.0000000
  free_energy:       142.3605916
  entropy:             1.0075976
  heat_capacity:       3.4900047
  energy:            142.4794881

- temperature:       120.0000000
  free_energy:       142.3585164
  entropy:             1.0680083
  heat_capacity:       3.7006241
  energy:            142.4866774

- temperature:       122.0000000
  free_energy:       142.3563179
  entropy:             1.1309679
  heat_capacity:       3.9192467
  energy:            142.4942960

- temperature:       124.0000000
  free_energy:       142.3539908
  entropy:             1.1965238
  heat_capacity:       4.1459110
  energy:            142.5023598

- temperature:       126.0000000
  free_energy:       142.3515300
  entropy:             1.2647219
  heat_capacity:       4.3806467
  energy:            142.5108850

- temperature:       128.0000000
  free_energy:       142.3489301
  entropy:             1.3356063
  heat_capacity:       4.6234756
  energy:            142.5198878

- temperature:       130.0000000
  free_energy:       142.3461858
  entropy:             1.4092193
  heat_capacity:       4.8744113
  energy:            142.5293843

- temperature:       132.0000000
  free_energy:       142.3432914
  entropy:             1.4856014
  heat_capacity:       5.1334603
  energy:            142.5393908

- temperature:       134.0000000
  free_energy:       142.3402415
  entropy:             1.5647913
  heat_capacity:       5.4006219
  energy:            142.5499235

- temperature:       136.0000000
  free_energy:       142.3370304
  entropy:             1.6468260
  heat_capacity:       5.6758889
  energy:            142.5609987

- temperature:       138.0000000
  free_energy:       142.3336523
  entropy:             1.7317407
  heat_capacity:       5.9592477
  energy:            142.5726325

- temperature:       140.0000000
  free_energy:       142.3301015
  entropy:             1.8195687
  heat_capacity:       6.2506790
  energy:            142.5848411

- temperature:       142.0000000
  free_energy:       142.3263720
  entropy:             1.9103418
  heat_capacity:       6.5501579
  energy:            142.5976406

- temperature:       144.0000000
  free_energy:       142.3224581
  entropy:             2.0040899
  heat_capacity:       6.8576543
  energy:            142.6110471

- temperature:       146.0000000
  free_energy:       142.3183537
  entropy:             2.1008413
  heat_capacity:       7.1731331
  energy:            142.6250765

- temperature:       148.0000000
  free_energy:       142.3140527
  entropy:             2.2006227
  heat_capacity:       7.4965548
  energy:            142.6397449

- temperature:       150.0000000
  free_energy:       142.3095491
  entropy:             2.3034590
  heat_capacity:       7.8278752
  energy:            142.6550680

- temperature:       152.0000000
  free_energy:       142.3048368
  entropy:             2.4093736
  heat_capacity:       8.1670464
  energy:            142.6710616

- temperature:       154.0000000
  free_energy:       142.2999096
  entropy:             2.5183883
  heat_capacity:       8.5140162
  energy:            142.6877414

- temperature:       156.0000000
  free_energy:       142.2947612
  entropy:             2.6305233
  heat_capacity:       8.8687291
  energy:            142.7051228

- temperature:       158.0000000
  free_energy:       142.2893854
  entropy:             2.7457976
  heat_capacity:       9.2311259
  energy:            142.7232214

- temperature:       160.0000000
  free_energy:       142.2837759
  entropy:             2.8642283
  heat_capacity:       9.6011442
  energy:            142.7420524

- temperature:       162.0000000
  free_energy:       142.2779264
  entropy:             2.9858312
  heat_capacity:       9.9787184
  energy:            142.7616310

- temperature:       164.0000000
  free_energy:       142.2718305
  entropy:             3.1106210
  heat_capacity:      10.3637800
  energy:            142.7819723

- temperature:       166.0000000
  free_energy:       142.2654818
  entropy:             3.2386105
  heat_capacity:      10.7562576
  energy:            142.8030911

- temperature:       168.0000000
  free_energy:       142.2588739
  entropy:             3.3698116
  heat_capacity:      11.1560771
  energy:            142.8250022

- temperature:       170.0000000
  free_energy:       142.2520004
  entropy:             3.5042346
  heat_capacity:      11.5631618
  energy:            142.8477202

- temperature:       172.0000000
  free_energy:       142.2448548
  entropy:             3.6418888
  heat_capacity:      11.9774325
  energy:            142.8712597

- temperature:       174.0000000
  free_energy:       142.2374306
  entropy:             3.7827820
  heat_capacity:      12.3988076
  energy:            142.8956347

- temperature:       176.0000000
  free_energy:       142.2297215
  entropy:             3.9269209
  heat_capacity:      12.8272033
  energy:            142.9208596

- temperature:       178.0000000
  free_energy:       142.2217208
  entropy:             4.0743110
  heat_capacity:      13.2625333
  energy:            142.9469482

- temperature:       180.0000000
  free_energy:       142.2134221
  entropy:             4.2249566
  heat_capacity:      13.7047096
  energy:            142.9739143

- temperature:       182.0000000
  free_energy:       142.2048188
  entropy:             4.3788610
  heat_capacity:      14.1536419
  energy:            143.0017715

- temperature:       184.0000000
  free_energy:       142.1959045
  entropy:             4.5360262
  heat_capacity:      14.6092378
  energy:            143.0305333

- temperature:       186.0000000
  free_energy:       142.1866725
  entropy:             4.6964533
  heat_capacity:      15.0714033
  energy:            143.0602128

- temperature:       188.0000000
  free_energy:       142.1771165
  entropy:             4.8601422
  heat_capacity:      15.5400425
  energy:            143.0908232

- temperature:       190.0000000
  free_energy:       142.1672298
  entropy:             5.0270920
  heat_capacity:      16.0150575
  energy:            143.1223772

- temperature:       192.0000000
  free_energy:       142.1570059
  entropy:             5.1973005
  heat_capacity:      16.4963491
  energy:            143.1548876

- temperature:       194.0000000
  free_energy:       142.1464384
  entropy:             5.3707647
  heat_capacity:      16.9838161
  energy:            143.1883668

- temperature:       196.0000000
  free_energy:       142.1355207
  entropy:             5.5474808
  heat_capacity:      17.4773560
  energy:            143.2228269

- temperature:       198.0000000
  free_energy:       142.1242463
  entropy:             5.7274437
  heat_capacity:      17.9768648
  energy:            143.2582802

- temperature:       200.0000000
  free_energy:       142.1126088
  entropy:             5.9106477
  heat_capacity:      18.4822371
  energy:            143.2947383

- temperature:       202.0000000
  free_energy:       142.1006016
  entropy:             6.0970860
  heat_capacity:      18.9933659
  energy:            143.3322129

- temperature:       204.0000000
  free_energy:       142.0882183
  entropy:             6.2867513
  heat_capacity:      19.5101434
  energy:            143.3707155

- temperature:       206.0000000
  free_energy:       142.0754524
  entropy:             6.4796349
  heat_capacity:      20.0324601
  energy:            143.4102572

- temperature:       208.0000000
  free_energy:       142.0622976
  entropy:             6.6757279
  heat_capacity:      20.5602057
  energy:            143.4508490

- temperature:       210.0000000
  free_energy:       142.0487474
  entropy:             6.8750200
  heat_capacity:      21.0932688
  energy:            143.4925016

- temperature:       212.0000000
  free_energy:       142.0347954
  entropy:             7.0775007
  heat_capacity:      21.6315370
  energy:            143.5352255

- temperature:       214.0000000
  free_energy:       142.0204353
  entropy:             7.2831583
  heat_capacity:      22.1748968
  energy:            143.5790311

- temperature:       216.0000000
  free_energy:       142.0056606
  entropy:             7.4919805
  heat_capacity:      22.7232343
  energy:            143.6239284

- temperature:       218.0000000
  free_energy:       141.9904652
  entropy:             7.7039545
  heat_capacity:      23.2764343
  energy:            143.6699273

- temperature:       220.0000000
  free_energy:       141.9748427
  entropy:             7.9190664
  heat_capacity:      23.8343814
  energy:            143.7170373

- temperature:       222.0000000
  free_energy:       141.9587869
  entropy:             8.1373020
  heat_capacity:      24.3969594
  energy:            143.7652679

- temperature:       224.0000000
  free_energy:       141.9422915
  entropy:             8.3586461
  heat_capacity:      24.9640515
  energy:            143.8146282

- temperature:       226.0000000
  free_energy:       141.9253502
  entropy:             8.5830833
  heat_capacity:      25.5355405
  energy:            143.8651271

- temperature:       228.0000000
  free_energy:       141.9079571
  entropy:             8.8105971
  heat_capacity:      26.1113089
  energy:            143.9167732

- temperature:       230.0000000
  free_energy:       141.8901058
  entropy:             9.0411707
  heat_capacity:      26.6912389
  energy:            143.9695751

- temperature:       232.0000000
  free_energy:       141.8717904
  entropy:             9.2747866
  heat_capacity:      27.2752122
  energy:            144.0235409

- temperature:       234.0000000
  free_energy:       141.8530046
  entropy:             9.5114269
  heat_capacity:      27.8631109
  energy:            144.0786785

- temperature:       236.0000000
  free_energy:       141.8337426
  entropy:             9.7510728
  heat_capacity:      28.4548164
  energy:            144.1349958

- temperature:       238.0000000
  free_energy:       141.8139984
  entropy:             9.9937054
  heat_capacity:      29.0502106
  energy:            144.1925003

- temperature:       240.0000000
  free_energy:       141.7937658
  entropy:            10.2393050
  heat_capacity:      29.6491751
  energy:            144.2511991

- temperature:       242.0000000
  free_energy:       141.7730392
  entropy:            10.4878516
  heat_capacity:      30.2515921
  energy:            144.3110993

- temperature:       244.0000000
  free_energy:       141.7518125
  entropy:            10.7393244
  heat_capacity:      30.8573434
  energy:            144.3722076

- temperature:       246.0000000
  free_energy:       141.7300799
  entropy:            10.9937026
  heat_capacity:      31.4663117
  energy:            144.4345308

- temperature:       248.0000000
  free_energy:       141.7078358
  entropy:            11.2509645
  heat_capacity:      32.0783797
  energy:            144.4980750

- temperature:       250.0000000
  free_energy:       141.6850742
  entropy:            11.5110884
  heat_capacity:      32.6934305
  energy:            144.5628463

- temperature:       252.0000000
  free_energy:       141.6617895
  entropy:            11.7740519
  heat_capacity:      33.3113479
  energy:            144.6288506

- temperature:       254.0000000
  free_energy:       141.6379761
  entropy:            12.0398324
  heat_capacity:      33.9320160
  energy:            144.6960935

- temperature:       256.0000000
  free_energy:       141.6136283
  entropy:            12.3084066
  heat_capacity:      34.5553199
  energy:            144.7645804

- temperature:       258.0000000
  free_energy:       141.5887406
  entropy:            12.5797514
  heat_capacity:      35.1811449
  energy:            144.8343165

- temperature:       260.0000000
  free_energy:       141.5633075
  entropy:            12.8538428
  heat_capacity:      35.8093773
  energy:            144.9053066

- temperature:       262.0000000
  free_energy:       141.5373234
  entropy:            13.1306568
  heat_capacity:      36.4399041
  energy:            144.9775555

- temperature:       264.0000000
  free_energy:       141.5107831
  entropy:            13.4101690
  heat_capacity:      37.0726133
  energy:            145.0510677

- temperature:       266.0000000
  free_energy:       141.4836810
  entropy:            13.6923548
  heat_capacity:      37.7073936
  energy:            145.1258473

- temperature:       268.0000000
  free_energy:       141.4560119
  entropy:            13.9771891
  heat_capacity:      38.3441347
  energy:            145.2018986

- temperature:       270.0000000
  free_energy:       141.4277705
  entropy:            14.2646468
  heat_capacity:      38.9827272
  energy:            145.2792251

- temperature:       272.0000000
  free_energy:       141.3989515
  entropy:            14.5547025
  heat_capacity:      39.6230630
  energy:            145.3578306

- temperature:       274.0000000
  free_energy:       141.3695499
  entropy:            14.8473303
  heat_capacity:      40.2650348
  energy:            145.4377185

- temperature:       276.0000000
  free_energy:       141.3395605
  entropy:            15.1425045
  heat_capacity:      40.9085365
  energy:            145.5188918

- temperature:       278.0000000
  free_energy:       141.3089782
  entropy:            15.4401990
  heat_capacity:      41.5534633
  energy:            145.6013536

- temperature:       280.0000000
  free_energy:       141.2777981
  entropy:            15.7403873
  heat_capacity:      42.1997114
  energy:            145.6851065

- temperature:       282.0000000
  free_energy:       141.2460150
  entropy:            16.0430431
  heat_capacity:      42.8471784
  energy:            145.7701532

- temperature:       284.0000000
  free_energy:       141.2136243
  entropy:            16.3481398
  heat_capacity:      43.4957630
  energy:            145.8564960

- temperature:       286.0000000
  free_energy:       141.1806209
  entropy:            16.6556506
  heat_capacity:      44.1453652
  energy:            145.9441369

- temperature:       288.0000000
  free_energy:       141.1470001
  entropy:            16.9655485
  heat_capacity:      44.7958866
  energy:            146.0330780

- temperature:       290.0000000
  free_energy:       141.1127571
  entropy:            17.2778066
  heat_capacity:      45.4472298
  energy:            146.1233210

- temperature:       292.0000000
  free_energy:       141.0778873
  entropy:            17.5923978
  heat_capacity:      46.0992990
  energy:            146.2148675

- temperature:       294.0000000
  free_energy:       141.0423860
  entropy:            17.9092948
  heat_capacity:      46.7519997
  energy:            146.3077187

- temperature:       296.0000000
  free_energy:       141.0062486
  entropy:            18.2284703
  heat_capacity:      47.4052389
  energy:            146.4018758

- temperature:       298.0000000
  free_energy:       140.9694706
  entropy:            18.5498970
  heat_capacity:      48.0589249
  energy:            146.4973399

- temperature:       300.0000000
  free_energy:       140.9320475
  entropy:            18.8735474
  heat_capacity:      48.7129675
  energy:            146.5941117

- temperature:       302.0000000
  free_energy:       140.8939749
  entropy:            19.1993941
  heat_capacity:      49.3672781
  energy:            146.6921920

- temperature:       304.0000000
  free_energy:       140.8552485
  entropy:            19.5274095
  heat_capacity:      50.0217695
  energy:            146.7915810

- temperature:       306.0000000
  free_energy:       140.8158639
  entropy:            19.8575661
  heat_capacity:      50.6763560
  energy:            146.8922791

- temperature:       308.0000000
  free_energy:       140.7758168
  entropy:            20.1898363
  heat_capacity:      51.3309533
  energy:            146.9942864

- temperature:       310.0000000
  free_energy:       140.7351031
  entropy:            20.5241926
  heat_capacity:      51.9854788
  energy:            147.0976029

- temperature:       312.0000000
  free_energy:       140.6937187
  entropy:            20.8606075
  heat_capacity:      52.6398513
  energy:            147.2022282

- temperature:       314.0000000
  free_energy:       140.6516594
  entropy:            21.1990533
  heat_capacity:      53.2939912
  energy:            147.3081621

- temperature:       316.0000000
  free_energy:       140.6089211
  entropy:            21.5395027
  heat_capacity:      53.9478203
  energy:            147.4154040

- temperature:       318.0000000
  free_energy:       140.5655000
  entropy:            21.8819280
  heat_capacity:      54.6012621
  energy:            147.5239531

- temperature:       320.0000000
  free_energy:       140.5213921
  entropy:            22.2263019
  heat_capacity:      55.2542416
  energy:            147.6338087

- temperature:       322.0000000
  free_energy:       140.4765935
  entropy:            22.5725969
  heat_capacity:      55.9066852
  energy:            147.7449697

- temperature:       324.0000000
  free_energy:       140.4311005
  entropy:            22.9207857
  heat_capacity:      56.5585209
  energy:            147.8574351

- temperature:       326.0000000
  free_energy:       140.3849092
  entropy:            23.2708411
  heat_capacity:      57.2096784
  energy:            147.9712034

- temperature:       328.0000000
  free_energy:       140.3380159
  entropy:            23.6227359
  heat_capacity:      57.8600886
  energy:            148.0862733

- temperature:       330.0000000
  free_energy:       140.2904170
  entropy:            23.9764430
  heat_capacity:      58.5096843
  energy:            148.2026432

- temperature:       332.0000000
  free_energy:       140.2421089
  entropy:            24.3319352
  heat_capacity:      59.1583995
  energy:            148.3203114

- temperature:       334.0000000
  free_energy:       140.1930881
  entropy:            24.6891858
  heat_capacity:      59.8061698
  energy:            148.4392762

- temperature:       336.0000000
  free_energy:       140.1433510
  entropy:            25.0481679
  heat_capacity:      60.4529325
  energy:            148.5595354

- temperature:       338.0000000
  free_energy:       140.0928943
  entropy:            25.4088547
  heat_capacity:      61.0986260
  energy:            148.6810872

- temperature:       340.0000000
  free_energy:       140.0417145
  entropy:            25.7712197
  heat_capacity:      61.7431906
  energy:            148.8039292

- temperature:       342.0000000
  free_energy:       139.9898083
  entropy:            26.1352364
  heat_capacity:      62.3865677
  energy:            148.9280591

- temperature:       344.0000000
  free_energy:       139.9371725
  entropy:            26.5008784
  heat_capacity:      63.0287005
  energy:            149.0534746

- temperature:       346.0000000
  free_energy:       139.8838037
  entropy:            26.8681195
  heat_capacity:      63.6695334
  energy:            149.1801731

- temperature:       348.0000000
  free_energy:       139.8296989
  entropy:            27.2369337
  heat_capacity:      64.3090123
  energy:            149.3081519

- temperature:       350.0000000
  free_energy:       139.7748550
  entropy:            27.6072949
  heat_capacity:      64.9470846
  energy:            149.4374082

- temperature:       352.0000000
  free_energy:       139.7192687
  entropy:            27.9791775
  heat_capacity:      65.5836990
  energy:            149.5679392

- temperature:       354.0000000
  free_energy:       139.6629373
  entropy:            28.3525557
  heat_capacity:      66.2188057
  energy:            149.6997420

- temperature:       356.0000000
  free_energy:       139.6058575
  entropy:            28.7274041