<?xml version="1.0" encoding="ISO-8859-1"?>
<modeling>
 <generator>
  <i name="program" type="string">vasp </i>
  <i name="version" type="string">5.4.4.18Apr17-6-g9f103f2a35  </i>
  <i name="subversion" type="string">(build Mar 12 2022 03:36:41) complex            parallel </i>
  <i name="platform" type="string">IFC19.0.3.199_CrayMPICH7.7.19 </i>
  <i name="date" type="string">2022 12 01 </i>
  <i name="time" type="string">05:51:41 </i>
 </generator>
 <incar>
  <i type="string" name="PREC">accurate</i>
  <i type="int" name="IALGO">    38</i>
  <i type="logical" name="ADDGRID"> T  </i>
  <i type="int" name="IBRION">     8</i>
  <i name="EDIFF">      0.00000001</i>
  <i type="logical" name="LREAL"> F  </i>
  <i type="int" name="ISMEAR">     0</i>
  <i name="SIGMA">      0.06000000</i>
  <i type="logical" name="LWAVE"> F  </i>
  <i type="logical" name="LCHARG"> F  </i>
  <v type="int" name="KPOINT_BSE">    -1     0     0     0</v>
 </incar>
 <structure name="primitive_cell" >
  <crystal>
   <varray name="basis" >
    <v>       1.76889600       1.76889600      -0.00000000 </v>
    <v>       1.76889600       0.00000000      -1.76889600 </v>
    <v>       0.00000000       1.76889600      -1.76889600 </v>
   </varray>
   <i name="volume">     11.06972661 </i>
   <varray name="rec_basis" >
    <v>       0.28266218       0.28266218       0.28266218 </v>
    <v>       0.28266218      -0.28266218      -0.28266218 </v>
    <v>      -0.28266218       0.28266218      -0.28266218 </v>
   </varray>
  </crystal>
  <varray name="positions" >
   <v>       0.25000000       0.25000000       0.25000000 </v>
   <v>      -0.50000000      -0.50000000      -0.50000000 </v>
  </varray>
 </structure>
 <varray name="primitive_index" >
  <v type="int" >        1 </v>
  <v type="int" >       11 </v>
 </varray>
 <kpoints>
  <generation param="Gamma">
   <v type="int" name="divisions">       8        8        8 </v>
   <v name="usershift">      0.00000000       0.00000000       0.00000000 </v>
   <v name="genvec1">      0.12500000       0.00000000       0.00000000 </v>
   <v name="genvec2">      0.00000000       0.12500000       0.00000000 </v>
   <v name="genvec3">      0.00000000       0.00000000       0.12500000 </v>
   <v name="shift">      0.00000000       0.00000000       0.00000000 </v>
  </generation>
  <varray name="kpointlist" >
   <v>       0.00000000       0.00000000       0.00000000 </v>
   <v>       0.12500000       0.00000000       0.00000000 </v>
   <v>       0.25000000       0.00000000       0.00000000 </v>
   <v>       0.37500000       0.00000000       0.00000000 </v>
   <v>       0.50000000       0.00000000       0.00000000 </v>
   <v>       0.12500000       0.12500000       0.00000000 </v>
   <v>       0.25000000       0.12500000       0.00000000 </v>
   <v>       0.37500000       0.12500000       0.00000000 </v>
   <v>       0.50000000       0.12500000       0.00000000 </v>
   <v>       0.25000000       0.25000000       0.00000000 </v>
   <v>       0.37500000       0.25000000       0.00000000 </v>
   <v>       0.50000000       0.25000000       0.00000000 </v>
   <v>       0.37500000       0.37500000       0.00000000 </v>
   <v>       0.50000000       0.37500000       0.00000000 </v>
   <v>       0.50000000       0.50000000       0.00000000 </v>
   <v>       0.12500000       0.12500000       0.12500000 </v>
   <v>       0.25000000       0.12500000       0.12500000 </v>
   <v>       0.37500000       0.12500000       0.12500000 </v>
   <v>       0.50000000       0.12500000       0.12500000 </v>
   <v>       0.25000000       0.25000000       0.12500000 </v>
   <v>       0.37500000       0.25000000       0.12500000 </v>
   <v>       0.50000000       0.25000000       0.12500000 </v>
   <v>       0.37500000       0.37500000       0.12500000 </v>
   <v>       0.50000000       0.37500000       0.12500000 </v>
   <v>       0.50000000       0.50000000       0.12500000 </v>
   <v>       0.25000000       0.25000000       0.25000000 </v>
   <v>       0.37500000       0.25000000       0.25000000 </v>
   <v>       0.50000000       0.25000000       0.25000000 </v>
   <v>       0.37500000       0.37500000       0.25000000 </v>
   <v>       0.50000000       0.37500000       0.25000000 </v>
   <v>       0.50000000       0.50000000       0.25000000 </v>
   <v>       0.37500000       0.37500000       0.37500000 </v>
   <v>       0.50000000       0.37500000       0.37500000 </v>
   <v>       0.50000000       0.50000000       0.37500000 </v>
   <v>       0.50000000       0.50000000       0.50000000 </v>
  </varray>
  <varray name="weights" >
   <v>       0.00195312 </v>
   <v>       0.01171875 </v>
   <v>       0.01171875 </v>
   <v>       0.01171875 </v>
   <v>       0.00585938 </v>
   <v>       0.02343750 </v>
   <v>       0.04687500 </v>
   <v>       0.04687500 </v>
   <v>       0.02343750 </v>
   <v>       0.02343750 </v>
   <v>       0.04687500 </v>
   <v>       0.02343750 </v>
   <v>       0.02343750 </v>
   <v>       0.02343750 </v>
   <v>       0.00585938 </v>
   <v>       0.01562500 </v>
   <v>       0.04687500 </v>
   <v>       0.04687500 </v>
   <v>       0.02343750 </v>
   <v>       0.04687500 </v>
   <v>       0.09375000 </v>
   <v>       0.04687500 </v>
   <v>       0.04687500 </v>
   <v>       0.04687500 </v>
   <v>       0.01171875 </v>
   <v>       0.01562500 </v>
   <v>       0.04687500 </v>
   <v>       0.02343750 </v>
   <v>       0.04687500 </v>
   <v>       0.04687500 </v>
   <v>       0.01171875 </v>
   <v>       0.01562500 </v>
   <v>       0.02343750 </v>
   <v>       0.01171875 </v>
   <v>       0.00195312 </v>
  </varray>
 </kpoints>
 <parameters>
  <separator name="general" >
   <i type="string" name="SYSTEM">unknown system</i>
   <i type="logical" name="LCOMPAT"> F  </i>
  </separator>
  <separator name="electronic" >
   <i type="string" name="PREC">accura</i>
   <i name="ENMAX">    400.00000000</i>
   <i name="ENAUG">    644.87300000</i>
   <i name="EDIFF">      0.00000001</i>
   <i type="int" name="IALGO">    38</i>
   <i type="int" name="IWAVPR">    11</i>
   <i type="int" name="NBANDS">   192</i>
   <i name="NELECT">    256.00000000</i>
   <i type="int" name="TURBO">     0</i>
   <i type="int" name="IRESTART">     0</i>
   <i type="int" name="NREBOOT">     0</i>
   <i type="int" name="NMIN">     0</i>
   <i name="EREF">      0.00000000</i>
   <separator name="electronic smearing" >
    <i type="int" name="ISMEAR">     0</i>
    <i name="SIGMA">      0.06000000</i>
    <i name="KSPACING">      0.50000000</i>
    <i type="logical" name="KGAMMA"> T  </i>
   </separator>
   <separator name="electronic projectors" >
    <i type="logical" name="LREAL"> F  </i>
    <v name="ROPT">      0.00000000</v>
    <i type="int" name="LMAXPAW">  -100</i>
    <i type="int" name="LMAXMIX">     2</i>
    <i type="logical" name="NLSPLINE"> F  </i>
   </separator>
   <separator name="electronic startup" >
    <i type="int" name="ISTART">     0</i>
    <i type="int" name="ICHARG">     2</i>
    <i type="int" name="INIWAV">     1</i>
   </separator>
   <separator name="electronic spin" >
    <i type="int" name="ISPIN">     1</i>
    <i type="logical" name="LNONCOLLINEAR"> F  </i>
    <v name="MAGMOM">      1.00000000      1.00000000      1.00000000      1.00000000      1.00000000      1.00000000      1.00000000      1.00000000      1.00000000      1.00000000      1.00000000      1.00000000      1.00000000      1.00000000      1.00000000      1.00000000      1.00000000      1.00000000      1.00000000      1.00000000
      1.00000000      1.00000000      1.00000000      1.00000000      1.00000000      1.00000000      1.00000000      1.00000000      1.00000000      1.00000000      1.00000000      1.00000000      1.00000000      1.00000000      1.00000000      1.00000000      1.00000000      1.00000000      1.00000000      1.00000000
      1.00000000      1.00000000      1.00000000      1.00000000      1.00000000      1.00000000      1.00000000      1.00000000      1.00000000      1.00000000      1.00000000      1.00000000      1.00000000      1.00000000      1.00000000      1.00000000      1.00000000      1.00000000      1.00000000      1.00000000
      1.00000000      1.00000000      1.00000000      1.00000000</v>
    <i name="NUPDOWN">     -1.00000000</i>
    <i type="logical" name="LSORBIT"> F  </i>
    <v name="SAXIS">      0.00000000      0.00000000      1.00000000</v>
    <i type="logical" name="LSPIRAL"> F  </i>
    <v name="QSPIRAL">      0.00000000      0.00000000      0.00000000</v>
    <i type="logical" name="LZEROZ"> F  </i>
   </separator>
   <separator name="electronic exchange-correlation" >
    <i type="logical" name="LASPH"> F  </i>
    <i type="logical" name="LMETAGGA"> F  </i>
   </separator>
   <separator name="electronic convergence" >
    <i type="int" name="NELM">    60</i>
    <i type="int" name="NELMDL">    -5</i>
    <i type="int" name="NELMIN">     2</i>
    <i name="ENINI">    400.00000000</i>
    <separator name="electronic convergence detail" >
     <i type="logical" name="LDIAG"> T  </i>
     <i type="logical" name="LSUBROT"> F  </i>
     <i name="WEIMIN">      0.00100000</i>
     <i name="EBREAK">      0.00000000</i>
     <i name="DEPER">      0.30000000</i>
     <i type="int" name="NRMM">     4</i>
     <i name="TIME">      0.40000000</i>
    </separator>
   </separator>
   <separator name="electronic mixer" >
    <i name="AMIX">      0.40000000</i>
    <i name="BMIX">      1.00000000</i>
    <i name="AMIN">      0.10000000</i>
    <i name="AMIX_MAG">      1.60000000</i>
    <i name="BMIX_MAG">      1.00000000</i>
    <separator name="electronic mixer details" >
     <i type="int" name="IMIX">     4</i>
     <i type="logical" name="MIXFIRST"> F  </i>
     <i type="int" name="MAXMIX">   -45</i>
     <i name="WC">    100.00000000</i>
     <i type="int" name="INIMIX">     1</i>
     <i type="int" name="MIXPRE">     1</i>
     <i type="int" name="MREMOVE">     5</i>
    </separator>
   </separator>
   <separator name="electronic dipolcorrection" >
    <i type="logical" name="LDIPOL"> F  </i>
    <i type="logical" name="LMONO"> F  </i>
    <i type="int" name="IDIPOL">     0</i>
    <i name="EPSILON">      1.00000000</i>
    <v name="DIPOL">   -100.00000000   -100.00000000   -100.00000000</v>
    <i name="EFIELD">      0.00000000</i>
   </separator>
  </separator>
  <separator name="grids" >
   <i type="int" name="NGX">    48</i>
   <i type="int" name="NGY">    48</i>
   <i type="int" name="NGZ">    48</i>
   <i type="int" name="NGXF">    96</i>
   <i type="int" name="NGYF">    96</i>
   <i type="int" name="NGZF">    96</i>
   <i type="logical" name="ADDGRID"> T  </i>
  </separator>
  <separator name="ionic" >
   <i type="int" name="NSW">     1</i>
   <i type="int" name="IBRION">     8</i>
   <i type="int" name="MDALGO">     0</i>
   <i type="int" name="ISIF">     2</i>
   <i name="PSTRESS">      0.00000000</i>
   <i name="EDIFFG">      0.00000010</i>
   <i type="int" name="NFREE">     0</i>
   <i name="POTIM">      0.50000000</i>
   <i name="SMASS">     -3.00000000</i>
   <i name="SCALEE">      1.00000000</i>
  </separator>
  <separator name="ionic md" >
   <i name="TEBEG">      0.00010000</i>
   <i name="TEEND">      0.00010000</i>
   <i type="int" name="NBLOCK">     1</i>
   <i type="int" name="KBLOCK">     1</i>
   <i type="int" name="NPACO">   256</i>
   <i name="APACO">     16.00000000</i>
  </separator>
  <separator name="symmetry" >
   <i type="int" name="ISYM">     2</i>
   <i name="SYMPREC">      0.00001000</i>
  </separator>
  <separator name="dos" >
   <i type="int" name="LORBIT">     0</i>
   <v name="RWIGS">     -1.00000000</v>
   <i type="int" name="NEDOS">   301</i>
   <i name="EMIN">     10.00000000</i>
   <i name="EMAX">    -10.00000000</i>
   <i name="EFERMI">      0.00000000</i>
  </separator>
  <separator name="writing" >
   <i type="int" name="NWRITE">     2</i>
   <i type="logical" name="LWAVE"> F  </i>
   <i type="logical" name="LDOWNSAMPLE"> F  </i>
   <i type="logical" name="LCHARG"> F  </i>
   <i type="logical" name="LPARD"> F  </i>
   <i type="logical" name="LVTOT"> F  </i>
   <i type="logical" name="LVHAR"> F  </i>
   <i type="logical" name="LELF"> F  </i>
   <i type="logical" name="LOPTICS"> F  </i>
   <v name="STM">      0.00000000      0.00000000      0.00000000      0.00000000      0.00000000      0.00000000      0.00000000</v>
  </separator>
  <separator name="performance" >
   <i type="int" name="NPAR">    32</i>
   <i type="int" name="NSIM">     4</i>
   <i type="int" name="NBLK">    -1</i>
   <i type="logical" name="LPLANE"> T  </i>
   <i type="logical" name="LSCALAPACK"> T  </i>
   <i type="logical" name="LSCAAWARE"> F  </i>
   <i type="logical" name="LSCALU"> F  </i>
   <i type="logical" name="LASYNC"> F  </i>
   <i type="logical" name="LORBITALREAL"> F  </i>
  </separator>
  <separator name="miscellaneous" >
   <i type="int" name="IDIOT">     3</i>
   <i type="int" name="ISPECIAL">     0</i>
   <i type="logical" name="LMUSIC"> F  </i>
   <v name="POMASS">     12.01100000</v>
   <v name="DARWINR">      0.00000000</v>
   <v name="DARWINV">      1.00000000</v>
   <i type="logical" name="LCORR"> T  </i>
  </separator>
  <i type="logical" name="GGA_COMPAT"> T  </i>
  <i type="logical" name="LBERRY"> F  </i>
  <i type="int" name="ICORELEVEL">     0</i>
  <i type="logical" name="LDAU"> F  </i>
  <i type="int" name="I_CONSTRAINED_M">     0</i>
  <separator name="electronic exchange-correlation" >
   <i type="string" name="GGA">--</i>
   <i type="int" name="VOSKOWN">     0</i>
   <i type="logical" name="LHFCALC"> F  </i>
   <i type="string" name="PRECFOCK"></i>
   <i type="logical" name="LSYMGRAD"> F  </i>
   <i type="logical" name="LHFONE"> F  </i>
   <i type="logical" name="LRHFCALC"> F  </i>
   <i type="logical" name="LTHOMAS"> F  </i>
   <i type="logical" name="LMODELHF"> F  </i>
   <i name="ENCUT4O">     -1.00000000</i>
   <i type="int" name="EXXOEP">     0</i>
   <i type="int" name="FOURORBIT">     0</i>
   <i name="AEXX">      0.00000000</i>
   <i name="HFALPHA">      0.00000000</i>
   <i name="MCALPHA">      0.00000000</i>
   <i name="ALDAX">      1.00000000</i>
   <i name="AGGAX">      1.00000000</i>
   <i name="ALDAC">      1.00000000</i>
   <i name="AGGAC">      1.00000000</i>
   <i type="int" name="NKREDX">     1</i>
   <i type="int" name="NKREDY">     1</i>
   <i type="int" name="NKREDZ">     1</i>
   <i type="logical" name="SHIFTRED"> F  </i>
   <i type="logical" name="ODDONLY"> F  </i>
   <i type="logical" name="EVENONLY"> F  </i>
   <i type="int" name="LMAXFOCK">     0</i>
   <i type="int" name="NMAXFOCKAE">     0</i>
   <i type="logical" name="LFOCKAEDFT"> F  </i>
   <i name="HFSCREEN">      0.00000000</i>
   <i name="HFSCREENC">      0.00000000</i>
   <i type="int" name="NBANDSGWLOW">     0</i>
  </separator>
  <separator name="vdW DFT" >
   <i type="logical" name="LUSE_VDW"> F  </i>
   <i name="Zab_VDW">     -0.84910000</i>
   <i name="PARAM1">      0.12340000</i>
   <i name="PARAM2">      1.00000000</i>
   <i name="PARAM3">      0.00000000</i>
  </separator>
  <separator name="model GW" >
   <i type="int" name="MODEL_GW">     0</i>
   <i name="MODEL_EPS0">      3.32091798</i>
   <i name="MODEL_ALPHA">      1.00000000</i>
  </separator>
  <separator name="linear response parameters" >
   <i type="logical" name="LEPSILON"> F  </i>
   <i type="logical" name="LRPA"> F  </i>
   <i type="logical" name="LNABLA"> F  </i>
   <i type="logical" name="LVEL"> F  </i>
   <i type="int" name="KINTER">     0</i>
   <i name="CSHIFT">      0.10000000</i>
   <i name="OMEGAMAX">     -1.00000000</i>
   <i name="DEG_THRESHOLD">      0.00200000</i>
   <i name="RTIME">     -0.10000000</i>
   <i name="WPLASMAI">      0.00000000</i>
   <v name="DFIELD">      0.00000000      0.00000000      0.00000000</v>
   <v name="WPLASMA">      0.00000000      0.00000000      0.00000000      0.00000000      0.00000000      0.00000000      0.00000000      0.00000000      0.00000000</v>
  </separator>
  <separator name="orbital magnetization" >
   <i type="logical" name="NUCIND"> F  </i>
   <v name="MAGPOS">      0.00000000      0.00000000      0.00000000</v>
   <i type="logical" name="LNICSALL"> T  </i>
   <i type="logical" name="ORBITALMAG"> F  </i>
   <i type="logical" name="LMAGBLOCH"> F  </i>
   <i type="logical" name="LCHIMAG"> F  </i>
   <i type="logical" name="LGAUGE"> T  </i>
   <i type="int" name="MAGATOM">     0</i>
   <v name="MAGDIPOL">      0.00000000      0.00000000      0.00000000</v>
   <v name="AVECCONST">      0.00000000      0.00000000      0.00000000</v>
  </separator>
  <separator name="response functions" >
   <i type="logical" name="LADDER"> F  </i>
   <i type="logical" name="LRPAFORCE"> F  </i>
   <i type="logical" name="LFXC"> F  </i>
   <i type="logical" name="LHARTREE"> T  </i>
   <i type="int" name="IBSE">     0</i>
   <v type="int" name="KPOINT">    -1     0     0     0</v>
   <i type="logical" name="LTCTE"> F  </i>
   <i type="logical" name="LTETE"> F  </i>
   <i type="logical" name="LTRIPLET"> F  </i>
   <i type="logical" name="LFXCEPS"> F  </i>
   <i type="logical" name="LFXHEG"> F  </i>
   <i type="int" name="NATURALO">     2</i>
   <i type="logical" name="L2ORDER"> F  </i>
   <i type="logical" name="LMP2LT"> F  </i>
   <i type="logical" name="LUSEW"> F  </i>
   <i name="ENCUTGW">     -2.00000000</i>
   <i name="ENCUTGWSOFT">     -2.00000000</i>
   <i name="ENCUTLF">     -1.00000000</i>
   <i type="int" name="LMAXMP2">    -1</i>
   <i name="SCISSOR">      0.00000000</i>
   <i type="int" name="NOMEGA">     0</i>
   <i type="int" name="NOMEGAR">     0</i>
   <i type="int" name="NBANDSGW">    -1</i>
   <i type="int" name="NBANDSO">    -1</i>
   <i type="int" name="NBANDSV">    -1</i>
   <i type="int" name="NELM">     1</i>
   <i type="int" name="NELMHF">     1</i>
   <i type="int" name="DIM">     3</i>
   <i type="int" name="ANTIRES">     0</i>
   <i name="OMEGAMAX">    -30.00000000</i>
   <i name="OMEGAMIN">    -30.00000000</i>
   <i name="OMEGATL">   -200.00000000</i>
   <i type="int" name="OMEGAGRID">   140</i>
   <i name="CSHIFT">     -0.10000000</i>
   <i type="logical" name="SELFENERGY"> F  </i>
   <i type="logical" name="LSPECTRAL"> F  </i>
   <i type="logical" name="LSPECTRALGW"> F  </i>
   <i type="logical" name="LSINGLES"> F  </i>
   <i type="logical" name="LFERMIGW"> F  </i>
   <i type="logical" name="ODDONLYGW"> F  </i>
   <i type="logical" name="EVENONLYGW"> F  </i>
   <i type="int" name="NKREDLFX">     1</i>
   <i type="int" name="NKREDLFY">     1</i>
   <i type="int" name="NKREDLFZ">     1</i>
   <i type="int" name="MAXMEM">  2800</i>
   <i type="int" name="TELESCOPE">     0</i>
   <i type="int" name="TAUPAR">     1</i>
   <i type="int" name="OMEGAPAR">    -1</i>
   <i name="LAMBDA">      1.00000000</i>
  </separator>
  <separator name="External order field" >
   <i name="OFIELD_KAPPA">      0.00000000</i>
   <v name="OFIELD_K">      0.00000000      0.00000000      0.00000000</v>
   <i name="OFIELD_Q6_NEAR">      0.00000000</i>
   <i name="OFIELD_Q6_FAR">      0.00000000</i>
   <i name="OFIELD_A">      0.00000000</i>
  </separator>
 </parameters>
 <atominfo>
  <atoms>      64 </atoms>
  <types>       1 </types>
  <array name="atoms" >
   <dimension dim="1">ion</dimension>
   <field type="string">element</field>
   <field type="int">atomtype</field>
   <set>
    <rc><c>C </c><c>   1</c></rc>
    <rc><c>C </c><c>   1</c></rc>
    <rc><c>C </c><c>   1</c></rc>
    <rc><c>C </c><c>   1</c></rc>
    <rc><c>C </c><c>   1</c></rc>
    <rc><c>C </c><c>   1</c></rc>
    <rc><c>C </c><c>   1</c></rc>
    <rc><c>C </c><c>   1</c></rc>
    <rc><c>C </c><c>   1</c></rc>
    <rc><c>C </c><c>   1</c></rc>
    <rc><c>C </c><c>   1</c></rc>
    <rc><c>C </c><c>   1</c></rc>
    <rc><c>C </c><c>   1</c></rc>
    <rc><c>C </c><c>   1</c></rc>
    <rc><c>C </c><c>   1</c></rc>
    <rc><c>C </c><c>   1</c></rc>
    <rc><c>C </c><c>   1</c></rc>
    <rc><c>C </c><c>   1</c></rc>
    <rc><c>C </c><c>   1</c></rc>
    <rc><c>C </c><c>   1</c></rc>
    <rc><c>C </c><c>   1</c></rc>
    <rc><c>C </c><c>   1</c></rc>
    <rc><c>C </c><c>   1</c></rc>
    <rc><c>C </c><c>   1</c></rc>
    <rc><c>C </c><c>   1</c></rc>
    <rc><c>C </c><c>   1</c></rc>
    <rc><c>C </c><c>   1</c></rc>
    <rc><c>C </c><c>   1</c></rc>
    <rc><c>C </c><c>   1</c></rc>
    <rc><c>C </c><c>   1</c></rc>
    <rc><c>C </c><c>   1</c></rc>
    <rc><c>C </c><c>   1</c></rc>
    <rc><c>C </c><c>   1</c></rc>
    <rc><c>C </c><c>   1</c></rc>
    <rc><c>C </c><c>   1</c></rc>
    <rc><c>C </c><c>   1</c></rc>
    <rc><c>C </c><c>   1</c></rc>
    <rc><c>C </c><c>   1</c></rc>
    <rc><c>C </c><c>   1</c></rc>
    <rc><c>C </c><c>   1</c></rc>
    <rc><c>C </c><c>   1</c></rc>
    <rc><c>C </c><c>   1</c></rc>
    <rc><c>C </c><c>   1</c></rc>
    <rc><c>C </c><c>   1</c></rc>
    <rc><c>C </c><c>   1</c></rc>
    <rc><c>C </c><c>   1</c></rc>
    <rc><c>C </c><c>   1</c></rc>
    <rc><c>C </c><c>   1</c></rc>
    <rc><c>C </c><c>   1</c></rc>
    <rc><c>C </c><c>   1</c></rc>
    <rc><c>C </c><c>   1</c></rc>
    <rc><c>C </c><c>   1</c></rc>
    <rc><c>C </c><c>   1</c></rc>
    <rc><c>C </c><c>   1</c></rc>
    <rc><c>C </c><c>   1</c></rc>
    <rc><c>C </c><c>   1</c></rc>
    <rc><c>C </c><c>   1</c></rc>
    <rc><c>C </c><c>   1</c></rc>
    <rc><c>C </c><c>   1</c></rc>
    <rc><c>C </c><c>   1</c></rc>
    <rc><c>C </c><c>   1</c></rc>
    <rc><c>C </c><c>   1</c></rc>
    <rc><c>C </c><c>   1</c></rc>
    <rc><c>C </c><c>   1</c></rc>
   </set>
  </array>
  <array name="atomtypes" >
   <dimension dim="1">type</dimension>
   <field type="int">atomspertype</field>
   <field type="string">element</field>
   <field>mass</field>
   <field>valence</field>
   <field type="string">pseudopotential</field>
   <set>
    <rc><c>  64</c><c>C </c><c>     12.01100000</c><c>      4.00000000</c><c> PAW_PBE C 08Apr2002                    </c></rc>
   </set>
  </array>
 </atominfo>
 <structure name="initialpos" >
  <crystal>
   <varray name="basis" >
    <v>       7.07558400       0.00000000       0.00000000 </v>
    <v>       0.00000000       7.07558400       0.00000000 </v>
    <v>       0.00000000       0.00000000       7.07558400 </v>
   </varray>
   <i name="volume">    354.23125157 </i>
   <varray name="rec_basis" >
    <v>       0.14133109       0.00000000       0.00000000 </v>
    <v>       0.00000000       0.14133109       0.00000000 </v>
    <v>       0.00000000       0.00000000       0.14133109 </v>
   </varray>
  </crystal>
  <varray name="positions" >
   <v>       0.12500000       0.37500000       0.12500000 </v>
   <v>       0.62500000       0.37500000       0.12500000 </v>
   <v>       0.12500000       0.87500000       0.12500000 </v>
   <v>       0.62500000       0.87500000       0.12500000 </v>
   <v>       0.12500000       0.37500000       0.62500000 </v>
   <v>       0.62500000       0.37500000       0.62500000 </v>
   <v>       0.12500000       0.87500000       0.62500000 </v>
   <v>       0.62500000       0.87500000       0.62500000 </v>
   <v>       0.00000000       0.00000000       0.25000000 </v>
   <v>       0.50000000       0.00000000       0.25000000 </v>
   <v>       0.00000000       0.50000000       0.25000000 </v>
   <v>       0.50000000       0.50000000       0.25000000 </v>
   <v>       0.00000000       0.00000000       0.75000000 </v>
   <v>       0.50000000       0.00000000       0.75000000 </v>
   <v>       0.00000000       0.50000000       0.75000000 </v>
   <v>       0.50000000       0.50000000       0.75000000 </v>
   <v>       0.12500000       0.12500000       0.37500000 </v>
   <v>       0.62500000       0.12500000       0.37500000 </v>
   <v>       0.12500000       0.62500000       0.37500000 </v>
   <v>       0.62500000       0.62500000       0.37500000 </v>
   <v>       0.12500000       0.12500000       0.87500000 </v>
   <v>       0.62500000       0.12500000       0.87500000 </v>
   <v>       0.12500000       0.62500000       0.87500000 </v>
   <v>       0.62500000       0.62500000       0.87500000 </v>
   <v>       0.00000000       0.25000000       0.00000000 </v>
   <v>       0.50000000       0.25000000       0.00000000 </v>
   <v>       0.00000000       0.75000000       0.00000000 </v>
   <v>       0.50000000       0.75000000       0.00000000 </v>
   <v>       0.00000000       0.25000000       0.50000000 </v>
   <v>       0.50000000       0.25000000       0.50000000 </v>
   <v>       0.00000000       0.75000000       0.50000000 </v>
   <v>       0.50000000       0.75000000       0.50000000 </v>
   <v>       0.37500000       0.37500000       0.37500000 </v>
   <v>       0.87500000       0.37500000       0.37500000 </v>
   <v>       0.37500000       0.87500000       0.37500000 </v>
   <v>       0.87500000       0.87500000       0.37500000 </v>
   <v>       0.37500000       0.37500000       0.87500000 </v>
   <v>       0.87500000       0.37500000       0.87500000 </v>
   <v>       0.37500000       0.87500000       0.87500000 </v>
   <v>       0.87500000       0.87500000       0.87500000 </v>
   <v>       0.25000000       0.00000000       0.00000000 </v>
   <v>       0.75000000       0.00000000       0.00000000 </v>
   <v>       0.25000000       0.50000000       0.00000000 </v>
   <v>       0.75000000       0.50000000       0.00000000 </v>
   <v>       0.25000000       0.00000000       0.50000000 </v>
   <v>       0.75000000       0.00000000       0.50000000 </v>
   <v>       0.25000000       0.50000000       0.50000000 </v>
   <v>       0.75000000       0.50000000       0.50000000 </v>
   <v>       0.37500000       0.12500000       0.12500000 </v>
   <v>       0.87500000       0.12500000       0.12500000 </v>
   <v>       0.37500000       0.62500000       0.12500000 </v>
   <v>       0.87500000       0.62500000       0.12500000 </v>
   <v>       0.37500000       0.12500000       0.62500000 </v>
   <v>       0.87500000       0.12500000       0.62500000 </v>
   <v>       0.37500000       0.62500000       0.62500000 </v>
   <v>       0.87500000       0.62500000       0.62500000 </v>
   <v>       0.25000000       0.25000000       0.25000000 </v>
   <v>       0.75000000       0.25000000       0.25000000 </v>
   <v>       0.25000000       0.75000000       0.25000000 </v>
   <v>       0.75000000       0.75000000       0.25000000 </v>
   <v>       0.25000000       0.25000000       0.75000000 </v>
   <v>       0.75000000       0.25000000       0.75000000 </v>
   <v>       0.25000000       0.75000000       0.75000000 </v>
   <v>       0.75000000       0.75000000       0.75000000 </v>
  </varray>
 </structure>
 <calculation>
  <scstep>
   <time name="dav">   22.66   22.67</time>
   <time name="total">   22.78   22.90</time>
   <energy>
    <i name="alphaZ">    942.16066557 </i>
    <i name="ewald"> -11225.98634365 </i>
    <i name="hartreedc">   -546.60590395 </i>
    <i name="XCdc">    920.09833541 </i>
    <i name="pawpsdc">   2421.21235816 </i>
    <i name="pawaedc">  -2494.84305711 </i>
    <i name="eentropy">     -0.00646514 </i>
    <i name="bandstr">   1078.92844204 </i>
    <i name="atom">   9416.14232778 </i>
    <i name="e_fr_energy">    511.10035911 </i>
    <i name="e_wo_entrp">    511.10682424 </i>
    <i name="e_0_energy">    511.10359168 </i>
   </energy>
  </scstep>
  <scstep>
   <time name="dav">   28.32   28.32</time>
   <time name="total">   28.32   28.32</time>
   <energy>
    <i name="e_fr_energy">   -562.54518061 </i>
    <i name="e_wo_entrp">   -562.54518061 </i>
    <i name="e_0_energy">   -562.54518061 </i>
   </energy>
  </scstep>
  <scstep>
   <time name="dav">   28.45   28.45</time>
   <time name="total">   28.45   28.45</time>
   <energy>
    <i name="e_fr_energy">   -602.96038626 </i>
    <i name="e_wo_entrp">   -602.96038626 </i>
    <i name="e_0_energy">   -602.96038626 </i>
   </energy>
  </scstep>
  <scstep>
   <time name="dav">   28.54   28.54</time>
   <time name="total">   28.55   28.55</time>
   <energy>
    <i name="e_fr_energy">   -603.37646308 </i>
    <i name="e_wo_entrp">   -603.37646308 </i>
    <i name="e_0_energy">   -603.37646308 </i>
   </energy>
  </scstep>
  <scstep>
   <time name="dav">   27.04   27.04</time>
   <time name="total">   27.77   27.77</time>
   <energy>
    <i name="e_fr_energy">   -603.38549349 </i>
    <i name="e_wo_entrp">   -603.38549349 </i>
    <i name="e_0_energy">   -603.38549349 </i>
   </energy>
  </scstep>
  <scstep>
   <time name="dav">   26.29   26.29</time>
   <time name="total">   27.12   27.12</time>
   <energy>
    <i name="e_fr_energy">   -587.01874567 </i>
    <i name="e_wo_entrp">   -587.01874567 </i>
    <i name="e_0_energy">   -587.01874567 </i>
   </energy>
  </scstep>
  <scstep>
   <time name="dav">   27.06   27.06</time>
   <time name="total">   27.89   27.90</time>
   <energy>
    <i name="e_fr_energy">   -581.49625336 </i>
    <i name="e_wo_entrp">   -581.49625336 </i>
    <i name="e_0_energy">   -581.49625336 </i>
   </energy>
  </scstep>
  <scstep>
   <time name="dav">   27.33   27.34</time>
   <time name="total">   28.16   28.17</time>
   <energy>
    <i name="e_fr_energy">   -581.55975582 </i>
    <i name="e_wo_entrp">   -581.55975582 </i>
    <i name="e_0_energy">   -581.55975582 </i>
   </energy>
  </scstep>
  <scstep>
   <time name="dav">   28.56   28.56</time>
   <time name="total">   29.39   29.39</time>
   <energy>
    <i name="e_fr_energy">   -581.56185228 </i>
    <i name="e_wo_entrp">   -581.56185228 </i>
    <i name="e_0_energy">   -581.56185228 </i>
   </energy>
  </scstep>
  <scstep>
   <time name="dav">   26.74   26.74</time>
   <time name="total">   27.57   27.58</time>
   <energy>
    <i name="e_fr_energy">   -581.56229564 </i>
    <i name="e_wo_entrp">   -581.56229564 </i>
    <i name="e_0_energy">   -581.56229564 </i>
   </energy>
  </scstep>
  <scstep>
   <time name="dav">   28.66   28.67</time>
   <time name="total">   29.49   29.50</time>
   <energy>
    <i name="e_fr_energy">   -581.56230121 </i>
    <i name="e_wo_entrp">   -581.56230121 </i>
    <i name="e_0_energy">   -581.56230121 </i>
   </energy>
  </scstep>
  <scstep>
   <time name="dav">   27.87   27.87</time>
   <time name="total">   28.70   28.70</time>
   <energy>
    <i name="e_fr_energy">   -581.56230111 </i>
    <i name="e_wo_entrp">   -581.56230111 </i>
    <i name="e_0_energy">   -581.56230111 </i>
   </energy>
  </scstep>
  <scstep>
   <time name="dav">   23.84   23.84</time>
   <time name="total">   24.67   24.67</time>
   <energy>
    <i name="e_fr_energy">   -581.56230117 </i>
    <i name="e_wo_entrp">   -581.56230117 </i>
    <i name="e_0_energy">   -581.56230117 </i>
   </energy>
  </scstep>
  <scstep>
   <time name="dav">   21.79   21.80</time>
   <time name="total">   22.63   22.63</time>
   <energy>
    <i name="e_fr_energy">   -581.56230119 </i>
    <i name="e_wo_entrp">   -581.56230119 </i>
    <i name="e_0_energy">   -581.56230119 </i>
   </energy>
  </scstep>
  <scstep>
   <time name="dav">   20.49   20.49</time>
   <time name="total">   20.60   20.60</time>
   <energy>
    <i name="alphaZ">    942.16066557 </i>
    <i name="ewald"> -11225.98634365 </i>
    <i name="hartreedc">   -832.88791981 </i>
    <i name="XCdc">    947.16755015 </i>
    <i name="pawpsdc">   4319.68546536 </i>
    <i name="pawaedc">  -4401.16544028 </i>
    <i name="eentropy">     -0.00000000 </i>
    <i name="bandstr">    253.32139368 </i>
    <i name="atom">   9416.14232778 </i>
    <i name="e_fr_energy">   -581.56230119 </i>
    <i name="e_wo_entrp">   -581.56230119 </i>
    <i name="e_0_energy">   -581.56230119 </i>
   </energy>
  </scstep>
  <structure>
   <crystal>
    <varray name="basis" >
     <v>       7.07558400       0.00000000       0.00000000 </v>
     <v>       0.00000000       7.07558400       0.00000000 </v>
     <v>       0.00000000       0.00000000       7.07558400 </v>
    </varray>
    <i name="volume">    354.23125157 </i>
    <varray name="rec_basis" >
     <v>       0.14133109       0.00000000       0.00000000 </v>
     <v>       0.00000000       0.14133109       0.00000000 </v>
     <v>       0.00000000       0.00000000       0.14133109 </v>
    </varray>
   </crystal>
   <varray name="positions" >
    <v>       0.12500000       0.37500000       0.12500000 </v>
    <v>       0.62500000       0.37500000       0.12500000 </v>
    <v>       0.12500000       0.87500000       0.12500000 </v>
    <v>       0.62500000       0.87500000       0.12500000 </v>
    <v>       0.12500000       0.37500000       0.62500000 </v>
    <v>       0.62500000       0.37500000       0.62500000 </v>
    <v>       0.12500000       0.87500000       0.62500000 </v>
    <v>       0.62500000       0.87500000       0.62500000 </v>
    <v>       0.00000000       0.00000000       0.25000000 </v>
    <v>       0.50000000       0.00000000       0.25000000 </v>
    <v>       0.00000000       0.50000000       0.25000000 </v>
    <v>       0.50000000       0.50000000       0.25000000 </v>
    <v>       0.00000000       0.00000000       0.75000000 </v>
    <v>       0.50000000       0.00000000       0.75000000 </v>
    <v>       0.00000000       0.50000000       0.75000000 </v>
    <v>       0.50000000       0.50000000       0.75000000 </v>
    <v>       0.12500000       0.12500000       0.37500000 </v>
    <v>       0.62500000       0.12500000       0.37500000 </v>
    <v>       0.12500000       0.62500000       0.37500000 </v>
    <v>       0.62500000       0.62500000       0.37500000 </v>
    <v>       0.12500000       0.12500000       0.87500000 </v>
    <v>       0.62500000       0.12500000       0.87500000 </v>
    <v>       0.12500000       0.62500000       0.87500000 </v>
    <v>       0.62500000       0.62500000       0.87500000 </v>
    <v>       0.00000000       0.25000000       0.00000000 </v>
    <v>       0.50000000       0.25000000       0.00000000 </v>
    <v>       0.00000000       0.75000000       0.00000000 </v>
    <v>       0.50000000       0.75000000       0.00000000 </v>
    <v>       0.00000000       0.25000000       0.50000000 </v>
    <v>       0.50000000       0.25000000       0.50000000 </v>
    <v>       0.00000000       0.75000000       0.50000000 </v>
    <v>       0.50000000       0.75000000       0.50000000 </v>
    <v>       0.37500000       0.37500000       0.37500000 </v>
    <v>       0.87500000       0.37500000       0.37500000 </v>
    <v>       0.37500000       0.87500000       0.37500000 </v>
    <v>       0.87500000       0.87500000       0.37500000 </v>
    <v>       0.37500000       0.37500000       0.87500000 </v>
    <v>       0.87500000       0.37500000       0.87500000 </v>
    <v>       0.37500000       0.87500000       0.87500000 </v>
    <v>       0.87500000       0.87500000       0.87500000 </v>
    <v>       0.25000000       0.00000000       0.00000000 </v>
    <v>       0.75000000       0.00000000       0.00000000 </v>
    <v>       0.25000000       0.50000000       0.00000000 </v>
    <v>       0.75000000       0.50000000       0.00000000 </v>
    <v>       0.25000000       0.00000000       0.50000000 </v>
    <v>       0.75000000       0.00000000       0.50000000 </v>
    <v>       0.25000000       0.50000000       0.50000000 </v>
    <v>       0.75000000       0.50000000       0.50000000 </v>
    <v>       0.37500000       0.12500000       0.12500000 </v>
    <v>       0.87500000       0.12500000       0.12500000 </v>
    <v>       0.37500000       0.62500000       0.12500000 </v>
    <v>       0.87500000       0.62500000       0.12500000 </v>
    <v>       0.37500000       0.12500000       0.62500000 </v>
    <v>       0.87500000       0.12500000       0.62500000 </v>
    <v>       0.37500000       0.62500000       0.62500000 </v>
    <v>       0.87500000       0.62500000       0.62500000 </v>
    <v>       0.25000000       0.25000000       0.25000000 </v>
    <v>       0.75000000       0.25000000       0.25000000 </v>
    <v>       0.25000000       0.75000000       0.25000000 </v>
    <v>       0.75000000       0.75000000       0.25000000 </v>
    <v>       0.25000000       0.25000000       0.75000000 </v>
    <v>       0.75000000       0.25000000       0.75000000 </v>
    <v>       0.25000000       0.75000000       0.75000000 </v>
    <v>       0.75000000       0.75000000       0.75000000 </v>
   </varray>
  </structure>
  <varray name="forces" >
   <v>       0.00000000       0.00000000      -0.00000000 </v>
   <v>       0.00000000       0.00000000      -0.00000000 </v>
   <v>       0.00000000      -0.00000000       0.00000000 </v>
   <v>       0.00000000       0.00000000      -0.00000000 </v>
   <v>       0.00000000       0.00000000       0.00000000 </v>
   <v>       0.00000000       0.00000000       0.00000000 </v>
   <v>       0.00000000       0.00000000       0.00000000 </v>
   <v>       0.00000000       0.00000000       0.00000000 </v>
   <v>      -0.00000000       0.00000000      -0.00000000 </v>
   <v>      -0.00000000      -0.00000000       0.00000000 </v>
   <v>      -0.00000000       0.00000000       0.00000000 </v>
   <v>      -0.00000000      -0.00000000      -0.00000000 </v>
   <v>      -0.00000000      -0.00000000      -0.00000000 </v>
   <v>      -0.00000000      -0.00000000       0.00000000 </v>
   <v>      -0.00000000      -0.00000000      -0.00000000 </v>
   <v>      -0.00000000       0.00000000       0.00000000 </v>
   <v>       0.00000000      -0.00000000       0.00000000 </v>
   <v>       0.00000000      -0.00000000      -0.00000000 </v>
   <v>       0.00000000       0.00000000      -0.00000000 </v>
   <v>       0.00000000       0.00000000       0.00000000 </v>
   <v>       0.00000000      -0.00000000      -0.00000000 </v>
   <v>      -0.00000000       0.00000000       0.00000000 </v>
   <v>       0.00000000       0.00000000       0.00000000 </v>
   <v>       0.00000000       0.00000000      -0.00000000 </v>
   <v>      -0.00000000      -0.00000000       0.00000000 </v>
   <v>      -0.00000000      -0.00000000      -0.00000000 </v>
   <v>      -0.00000000      -0.00000000      -0.00000000 </v>
   <v>      -0.00000000      -0.00000000       0.00000000 </v>
   <v>       0.00000000       0.00000000       0.00000000 </v>
   <v>      -0.00000000      -0.00000000       0.00000000 </v>
   <v>      -0.00000000      -0.00000000       0.00000000 </v>
   <v>      -0.00000000       0.00000000      -0.00000000 </v>
   <v>       0.00000000      -0.00000000       0.00000000 </v>
   <v>       0.00000000      -0.00000000      -0.00000000 </v>
   <v>       0.00000000       0.00000000      -0.00000000 </v>
   <v>       0.00000000      -0.00000000       0.00000000 </v>
   <v>       0.00000000      -0.00000000      -0.00000000 </v>
   <v>       0.00000000       0.00000000      -0.00000000 </v>
   <v>       0.00000000      -0.00000000       0.00000000 </v>
   <v>       0.00000000      -0.00000000      -0.00000000 </v>
   <v>      -0.00000000      -0.00000000      -0.00000000 </v>
   <v>      -0.00000000      -0.00000000       0.00000000 </v>
   <v>      -0.00000000      -0.00000000       0.00000000 </v>
   <v>      -0.00000000      -0.00000000      -0.00000000 </v>
   <v>      -0.00000000       0.00000000       0.00000000 </v>
   <v>      -0.00000000       0.00000000       0.00000000 </v>
   <v>      -0.00000000       0.00000000       0.00000000 </v>
   <v>      -0.00000000      -0.00000000       0.00000000 </v>
   <v>       0.00000000       0.00000000       0.00000000 </v>
   <v>       0.00000000       0.00000000      -0.00000000 </v>
   <v>       0.00000000       0.00000000      -0.00000000 </v>
   <v>       0.00000000       0.00000000       0.00000000 </v>
   <v>       0.00000000      -0.00000000      -0.00000000 </v>
   <v>       0.00000000       0.00000000       0.00000000 </v>
   <v>       0.00000000       0.00000000       0.00000000 </v>
   <v>       0.00000000       0.00000000       0.00000000 </v>
   <v>      -0.00000000      -0.00000000      -0.00000000 </v>
   <v>      -0.00000000       0.00000000       0.00000000 </v>
   <v>      -0.00000000      -0.00000000       0.00000000 </v>
   <v>      -0.00000000       0.00000000       0.00000000 </v>
   <v>      -0.00000000       0.00000000      -0.00000000 </v>
   <v>       0.00000000      -0.00000000      -0.00000000 </v>
   <v>      -0.00000000      -0.00000000      -0.00000000 </v>
   <v>      -0.00000000      -0.00000000       0.00000000 </v>
  </varray>
  <varray name="stress" >
   <v>      95.71943725       0.00000000      -0.00000000 </v>
   <v>       0.00000000      95.71943725      -0.00000000 </v>
   <v>       0.00000000       0.00000000      95.71943725 </v>
  </varray>
  <energy>
   <i name="e_fr_energy">   -581.56230119 </i>
   <i name="e_wo_entrp">   -581.56230119 </i>
   <i name="e_0_energy">     -0.00000000 </i>
  </energy>
  <kpoints>
   <generation param="Gamma">
    <v type="int" name="divisions">       8        8        8 </v>
    <v name="usershift">      0.00000000       0.00000000       0.00000000 </v>
    <v name="genvec1">      0.12500000       0.00000000       0.00000000 </v>
    <v name="genvec2">      0.00000000       0.12500000       0.00000000 </v>
    <v name="genvec3">      0.00000000       0.00000000       0.12500000 </v>
    <v name="shift">      0.00000000       0.00000000       0.00000000 </v>
   </generation>
   <varray name="kpointlist" >
    <v>       0.00000000       0.00000000       0.00000000 </v>
    <v>       0.12500000       0.00000000       0.00000000 </v>
    <v>       0.25000000       0.00000000       0.00000000 </v>
    <v>       0.37500000       0.00000000       0.00000000 </v>
    <v>       0.50000000       0.00000000       0.00000000 </v>
    <v>       0.00000000       0.12500000       0.00000000 </v>
    <v>       0.12500000       0.12500000       0.00000000 </v>
    <v>       0.25000000       0.12500000       0.00000000 </v>
    <v>       0.37500000       0.12500000       0.00000000 </v>
    <v>       0.50000000       0.12500000       0.00000000 </v>
    <v>       0.00000000       0.25000000       0.00000000 </v>
    <v>       0.12500000       0.25000000       0.00000000 </v>
    <v>       0.25000000       0.25000000       0.00000000 </v>
    <v>       0.37500000       0.25000000       0.00000000 </v>
    <v>       0.50000000       0.25000000       0.00000000 </v>
    <v>       0.00000000       0.37500000       0.00000000 </v>
    <v>       0.12500000       0.37500000       0.00000000 </v>
    <v>       0.25000000       0.37500000       0.00000000 </v>
    <v>       0.37500000       0.37500000       0.00000000 </v>
    <v>       0.50000000       0.37500000       0.00000000 </v>
    <v>       0.00000000       0.50000000       0.00000000 </v>
    <v>       0.12500000       0.50000000       0.00000000 </v>
    <v>       0.25000000       0.50000000       0.00000000 </v>
    <v>       0.37500000       0.50000000       0.00000000 </v>
    <v>       0.50000000       0.50000000       0.00000000 </v>
    <v>       0.00000000       0.12500000       0.12500000 </v>
    <v>       0.12500000       0.12500000       0.12500000 </v>
    <v>       0.25000000       0.12500000       0.12500000 </v>
    <v>       0.37500000       0.12500000       0.12500000 </v>
    <v>       0.50000000       0.12500000       0.12500000 </v>
    <v>       0.00000000       0.25000000       0.12500000 </v>
    <v>       0.12500000       0.25000000       0.12500000 </v>
    <v>       0.25000000       0.25000000       0.12500000 </v>
    <v>       0.37500000       0.25000000       0.12500000 </v>
    <v>       0.50000000       0.25000000       0.12500000 </v>
    <v>       0.00000000       0.37500000       0.12500000 </v>
    <v>       0.12500000       0.37500000       0.12500000 </v>
    <v>       0.25000000       0.37500000       0.12500000 </v>
    <v>       0.37500000       0.37500000       0.12500000 </v>
    <v>       0.50000000       0.37500000       0.12500000 </v>
    <v>       0.00000000       0.50000000       0.12500000 </v>
    <v>       0.12500000       0.50000000       0.12500000 </v>
    <v>       0.25000000       0.50000000       0.12500000 </v>
    <v>       0.37500000       0.50000000       0.12500000 </v>
    <v>       0.50000000       0.50000000       0.12500000 </v>
    <v>       0.00000000      -0.37500000       0.12500000 </v>
    <v>       0.12500000      -0.37500000       0.12500000 </v>
    <v>       0.25000000      -0.37500000       0.12500000 </v>
    <v>       0.37500000      -0.37500000       0.12500000 </v>
    <v>       0.50000000      -0.37500000       0.12500000 </v>
    <v>       0.00000000      -0.25000000       0.12500000 </v>
    <v>       0.12500000      -0.25000000       0.12500000 </v>
    <v>       0.25000000      -0.25000000       0.12500000 </v>
    <v>       0.37500000      -0.25000000       0.12500000 </v>
    <v>       0.50000000      -0.25000000       0.12500000 </v>
    <v>       0.00000000      -0.12500000       0.12500000 </v>
    <v>       0.12500000      -0.12500000       0.12500000 </v>
    <v>       0.25000000      -0.12500000       0.12500000 </v>
    <v>       0.37500000      -0.12500000       0.12500000 </v>
    <v>       0.50000000      -0.12500000       0.12500000 </v>
    <v>       0.00000000       0.25000000       0.25000000 </v>
    <v>       0.12500000       0.25000000       0.25000000 </v>
    <v>       0.25000000       0.25000000       0.25000000 </v>
    <v>       0.37500000       0.25000000       0.25000000 </v>
    <v>       0.50000000       0.25000000       0.25000000 </v>
    <v>       0.00000000       0.37500000       0.25000000 </v>
    <v>       0.12500000       0.37500000       0.25000000 </v>
    <v>       0.25000000       0.37500000       0.25000000 </v>
    <v>       0.37500000       0.37500000       0.25000000 </v>
    <v>       0.50000000       0.37500000       0.25000000 </v>
    <v>       0.00000000       0.50000000       0.25000000 </v>
    <v>       0.12500000       0.50000000       0.25000000 </v>
    <v>       0.25000000       0.50000000       0.25000000 </v>
    <v>       0.37500000       0.50000000       0.25000000 </v>
    <v>       0.50000000       0.50000000       0.25000000 </v>
    <v>       0.00000000      -0.37500000       0.25000000 </v>
    <v>       0.12500000      -0.37500000       0.25000000 </v>
    <v>       0.25000000      -0.37500000       0.25000000 </v>
    <v>       0.37500000      -0.37500000       0.25000000 </v>
    <v>       0.50000000      -0.37500000       0.25000000 </v>
    <v>       0.00000000      -0.25000000       0.25000000 </v>
    <v>       0.12500000      -0.25000000       0.25000000 </v>
    <v>       0.25000000      -0.25000000       0.25000000 </v>
    <v>       0.37500000      -0.25000000       0.25000000 </v>
    <v>       0.50000000      -0.25000000       0.25000000 </v>
    <v>       0.00000000       0.37500000       0.37500000 </v>
    <v>       0.12500000       0.37500000       0.37500000 </v>
    <v>       0.25000000       0.37500000       0.37500000 </v>
    <v>       0.37500000       0.37500000       0.37500000 </v>
    <v>       0.50000000       0.37500000       0.37500000 </v>
    <v>       0.00000000       0.50000000       0.37500000 </v>
    <v>       0.12500000       0.50000000       0.37500000 </v>
    <v>       0.25000000       0.50000000       0.37500000 </v>
    <v>       0.37500000       0.50000000       0.37500000 </v>
    <v>       0.50000000       0.50000000       0.37500000 </v>
    <v>       0.00000000      -0.37500000       0.37500000 </v>
    <v>       0.12500000      -0.37500000       0.37500000 </v>
    <v>       0.25000000      -0.37500000       0.37500000 </v>
    <v>       0.37500000      -0.37500000       0.37500000 </v>
    <v>       0.50000000      -0.37500000       0.37500000 </v>
    <v>       0.00000000       0.50000000       0.50000000 </v>
    <v>       0.12500000       0.50000000       0.50000000 </v>
    <v>       0.25000000       0.50000000       0.50000000 </v>
    <v>       0.37500000       0.50000000       0.50000000 </v>
    <v>       0.50000000       0.50000000       0.50000000 </v>
   </varray>
   <varray name="weights" >
    <v>       0.00195312 </v>
    <v>       0.00390625 </v>
    <v>       0.00390625 </v>
    <v>       0.00390625 </v>
    <v>       0.00195312 </v>
    <v>       0.00781250 </v>
    <v>       0.01562500 </v>
    <v>       0.01562500 </v>
    <v>       0.01562500 </v>
    <v>       0.00781250 </v>
    <v>       0.00781250 </v>
    <v>       0.01562500 </v>
    <v>       0.01562500 </v>
    <v>       0.01562500 </v>
    <v>       0.00781250 </v>
    <v>       0.00781250 </v>
    <v>       0.01562500 </v>
    <v>       0.01562500 </v>
    <v>       0.01562500 </v>
    <v>       0.00781250 </v>
    <v>       0.00390625 </v>
    <v>       0.00781250 </v>
    <v>       0.00781250 </v>
    <v>       0.00781250 </v>
    <v>       0.00390625 </v>
    <v>       0.00390625 </v>
    <v>       0.00781250 </v>
    <v>       0.00781250 </v>
    <v>       0.00781250 </v>
    <v>       0.00390625 </v>
    <v>       0.00781250 </v>
    <v>       0.01562500 </v>
    <v>       0.01562500 </v>
    <v>       0.01562500 </v>
    <v>       0.00781250 </v>
    <v>       0.00781250 </v>
    <v>       0.01562500 </v>
    <v>       0.01562500 </v>
    <v>       0.01562500 </v>
    <v>       0.00781250 </v>
    <v>       0.00781250 </v>
    <v>       0.01562500 </v>
    <v>       0.01562500 </v>
    <v>       0.01562500 </v>
    <v>       0.00781250 </v>
    <v>       0.00781250 </v>
    <v>       0.01562500 </v>
    <v>       0.01562500 </v>
    <v>       0.01562500 </v>
    <v>       0.00781250 </v>
    <v>       0.00781250 </v>
    <v>       0.01562500 </v>
    <v>       0.01562500 </v>
    <v>       0.01562500 </v>
    <v>       0.00781250 </v>
    <v>       0.00390625 </v>
    <v>       0.00781250 </v>
    <v>       0.00781250 </v>
    <v>       0.00781250 </v>
    <v>       0.00390625 </v>
    <v>       0.00390625 </v>
    <v>       0.00781250 </v>
    <v>       0.00781250 </v>
    <v>       0.00781250 </v>
    <v>       0.00390625 </v>
    <v>       0.00781250 </v>
    <v>       0.01562500 </v>
    <v>       0.01562500 </v>
    <v>       0.01562500 </v>
    <v>       0.00781250 </v>
    <v>       0.00781250 </v>
    <v>       0.01562500 </v>
    <v>       0.01562500 </v>
    <v>       0.01562500 </v>
    <v>       0.00781250 </v>
    <v>       0.00781250 </v>
    <v>       0.01562500 </v>
    <v>       0.01562500 </v>
    <v>       0.01562500 </v>
    <v>       0.00781250 </v>
    <v>       0.00390625 </v>
    <v>       0.00781250 </v>
    <v>       0.00781250 </v>
    <v>       0.00781250 </v>
    <v>       0.00390625 </v>
    <v>       0.00390625 </v>
    <v>       0.00781250 </v>
    <v>       0.00781250 </v>
    <v>       0.00781250 </v>
    <v>       0.00390625 </v>
    <v>       0.00781250 </v>
    <v>       0.01562500 </v>
    <v>       0.01562500 </v>
    <v>       0.01562500 </v>
    <v>       0.00781250 </v>
    <v>       0.00390625 </v>
    <v>       0.00781250 </v>
    <v>       0.00781250 </v>
    <v>       0.00781250 </v>
    <v>       0.00390625 </v>
    <v>       0.00195312 </v>
    <v>       0.00390625 </v>
    <v>       0.00390625 </v>
    <v>       0.00390625 </v>
    <v>       0.00195312 </v>
   </varray>
  </kpoints>
  <scstep>
   <time name="total">   85.48   85.49</time>
   <energy>
    <i name="e_fr_energy">   -370.14097429 </i>
    <i name="e_wo_entrp">   -370.14097429 </i>
    <i name="e_0_energy">   -370.14097429 </i>
   </energy>
  </scstep>
  <scstep>
   <time name="total">   63.49   63.50</time>
   <energy>
    <i name="e_fr_energy">   -313.04782339 </i>
    <i name="e_wo_entrp">   -313.04782339 </i>
    <i name="e_0_energy">   -313.04782339 </i>
   </energy>
  </scstep>
  <scstep>
   <time name="total">   64.50   64.50</time>
   <energy>
    <i name="e_fr_energy">   -312.56903637 </i>
    <i name="e_wo_entrp">   -312.56903637 </i>
    <i name="e_0_energy">   -312.56903637 </i>
   </energy>
  </scstep>
  <scstep>
   <time name="total">   64.89   64.90</time>
   <energy>
    <i name="e_fr_energy">   -313.30526439 </i>
    <i name="e_wo_entrp">   -313.30526439 </i>
    <i name="e_0_energy">   -313.30526439 </i>
   </energy>
  </scstep>
  <scstep>
   <time name="total">   65.37   65.37</time>
   <energy>
    <i name="e_fr_energy">   -313.53807384 </i>
    <i name="e_wo_entrp">   -313.53807384 </i>
    <i name="e_0_energy">   -313.53807384 </i>
   </energy>
  </scstep>
  <scstep>
   <time name="total">   65.96   65.97</time>
   <energy>
    <i name="e_fr_energy">   -313.50011849 </i>
    <i name="e_wo_entrp">   -313.50011849 </i>
    <i name="e_0_energy">   -313.50011849 </i>
   </energy>
  </scstep>
  <scstep>
   <time name="total">   66.59   66.60</time>
   <energy>
    <i name="e_fr_energy">   -313.47825973 </i>
    <i name="e_wo_entrp">   -313.47825973 </i>
    <i name="e_0_energy">   -313.47825973 </i>
   </energy>
  </scstep>
  <scstep>
   <time name="total">   67.56   67.57</time>
   <energy>
    <i name="e_fr_energy">   -313.47624607 </i>
    <i name="e_wo_entrp">   -313.47624607 </i>
    <i name="e_0_energy">   -313.47624607 </i>
   </energy>
  </scstep>
  <scstep>
   <time name="total">   68.21   68.22</time>
   <energy>
    <i name="e_fr_energy">   -313.47608431 </i>
    <i name="e_wo_entrp">   -313.47608431 </i>
    <i name="e_0_energy">   -313.47608431 </i>
   </energy>
  </scstep>
  <scstep>
   <time name="total">   69.64   69.65</time>
   <energy>
    <i name="e_fr_energy">   -313.47587336 </i>
    <i name="e_wo_entrp">   -313.47587336 </i>
    <i name="e_0_energy">   -313.47587336 </i>
   </energy>
  </scstep>
  <scstep>
   <time name="total">   69.43   69.44</time>
   <energy>
    <i name="e_fr_energy">   -313.47621743 </i>
    <i name="e_wo_entrp">   -313.47621743 </i>
    <i name="e_0_energy">   -313.47621743 </i>
   </energy>
  </scstep>
  <kpoints>
   <generation param="Gamma">
    <v type="int" name="divisions">       8        8        8 </v>
    <v name="usershift">      0.00000000       0.00000000       0.00000000 </v>
    <v name="genvec1">      0.12500000       0.00000000       0.00000000 </v>
    <v name="genvec2">      0.00000000       0.12500000       0.00000000 </v>
    <v name="genvec3">      0.00000000       0.00000000       0.12500000 </v>
    <v name="shift">      0.00000000       0.00000000       0.00000000 </v>
   </generation>
   <varray name="kpointlist" >
    <v>       0.00000000       0.00000000       0.00000000 </v>
    <v>       0.12500000       0.00000000       0.00000000 </v>
    <v>       0.25000000       0.00000000       0.00000000 </v>
    <v>       0.37500000       0.00000000       0.00000000 </v>
    <v>       0.50000000       0.00000000       0.00000000 </v>
    <v>       0.12500000       0.12500000       0.00000000 </v>
    <v>       0.25000000       0.12500000       0.00000000 </v>
    <v>       0.37500000       0.12500000       0.00000000 </v>
    <v>       0.50000000       0.12500000       0.00000000 </v>
    <v>       0.25000000       0.25000000       0.00000000 </v>
    <v>       0.37500000       0.25000000       0.00000000 </v>
    <v>       0.50000000       0.25000000       0.00000000 </v>
    <v>       0.37500000       0.37500000       0.00000000 </v>
    <v>       0.50000000       0.37500000       0.00000000 </v>
    <v>       0.50000000       0.50000000       0.00000000 </v>
    <v>       0.12500000       0.12500000       0.12500000 </v>
    <v>       0.25000000       0.12500000       0.12500000 </v>
    <v>       0.37500000       0.12500000       0.12500000 </v>
    <v>       0.50000000       0.12500000       0.12500000 </v>
    <v>       0.25000000       0.25000000       0.12500000 </v>
    <v>       0.37500000       0.25000000       0.12500000 </v>
    <v>       0.50000000       0.25000000       0.12500000 </v>
    <v>       0.37500000       0.37500000       0.12500000 </v>
    <v>       0.50000000       0.37500000       0.12500000 </v>
    <v>       0.50000000       0.50000000       0.12500000 </v>
    <v>       0.25000000       0.25000000       0.25000000 </v>
    <v>       0.37500000       0.25000000       0.25000000 </v>
    <v>       0.50000000       0.25000000       0.25000000 </v>
    <v>       0.37500000       0.37500000       0.25000000 </v>
    <v>       0.50000000       0.37500000       0.25000000 </v>
    <v>       0.50000000       0.50000000       0.25000000 </v>
    <v>       0.37500000       0.37500000       0.37500000 </v>
    <v>       0.50000000       0.37500000       0.37500000 </v>
    <v>       0.50000000       0.50000000       0.37500000 </v>
    <v>       0.50000000       0.50000000       0.50000000 </v>
   </varray>
   <varray name="weights" >
    <v>       0.00195312 </v>
    <v>       0.01171875 </v>
    <v>       0.01171875 </v>
    <v>       0.01171875 </v>
    <v>       0.00585938 </v>
    <v>       0.02343750 </v>
    <v>       0.04687500 </v>
    <v>       0.04687500 </v>
    <v>       0.02343750 </v>
    <v>       0.02343750 </v>
    <v>       0.04687500 </v>
    <v>       0.02343750 </v>
    <v>       0.02343750 </v>
    <v>       0.02343750 </v>
    <v>       0.00585938 </v>
    <v>       0.01562500 </v>
    <v>       0.04687500 </v>
    <v>       0.04687500 </v>
    <v>       0.02343750 </v>
    <v>       0.04687500 </v>
    <v>       0.09375000 </v>
    <v>       0.04687500 </v>
    <v>       0.04687500 </v>
    <v>       0.04687500 </v>
    <v>       0.01171875 </v>
    <v>       0.01562500 </v>
    <v>       0.04687500 </v>
    <v>       0.02343750 </v>
    <v>       0.04687500 </v>
    <v>       0.04687500 </v>
    <v>       0.01171875 </v>
    <v>       0.01562500 </v>
    <v>       0.02343750 </v>
    <v>       0.01171875 </v>
    <v>       0.00195312 </v>
   </varray>
  </kpoints>
  <dynmat>
   <varray name="hessian" >
    <v>      -3.89730995       0.00000000      -0.00000000       0.01445543      -0.00000000      -0.00000000       0.00792797      -0.00000000      -0.00000000       0.01055960      -0.00000000       0.00000000       0.00792797      -0.00000000      -0.00000000       0.01055960       0.00000000      -0.00000000      -0.04824752       0.00000000      -0.00000000       0.00456709      -0.00000000       0.00000000      -0.01336376      -0.00796343       0.00278968       0.00748774      -0.00961188      -0.01881427       0.80714851      -0.21873209      -0.21873209      -0.00557684      -0.00796343      -0.00796343       0.02916372      -0.01881427      -0.01881427      -0.00282535      -0.00256121      -0.00256121      -0.01336376       0.00278968      -0.00796343       0.00748774      -0.01881427      -0.00961188      -0.11916999       0.06272066      -0.06272066      -0.00525088       0.00336906      -0.00336906      -0.11916999       0.06272066       0.06272066      -0.00525088       0.00336906       0.00336906      -0.11916999      -0.06272066      -0.06272066      -0.00525088      -0.00336906      -0.00336906      -0.11916999      -0.06272066       0.06272066      -0.00525088      -0.00336906       0.00336906       0.80714851       0.21873209       0.21873209      -0.00557684       0.00796343       0.00796343      -0.01336376       0.00796343      -0.00278968       0.00748774       0.00961188       0.01881427      -0.01336376      -0.00278968       0.00796343       0.00748774       0.01881427       0.00961188       0.02916372       0.01881427       0.01881427      -0.00282535       0.00256121       0.00256121       0.13315842      -0.06272066       0.13866918       0.13315842      -0.06272066      -0.13866918       0.00716800      -0.00336906      -0.00612554       0.00716800      -0.00336906       0.00612554       0.13315842       0.06272066      -0.13866918       0.13315842       0.06272066       0.13866918       0.00716800       0.00336906       0.00612554       0.00716800       0.00336906      -0.00612554      -0.01336376       0.00796343       0.00278968       0.00748774       0.00961188      -0.01881427       0.80714851       0.21873209      -0.21873209      -0.00557684       0.00796343      -0.00796343       0.02916372       0.01881427      -0.01881427      -0.00282535       0.00256121      -0.00256121      -0.01336376      -0.00278968      -0.00796343       0.00748774       0.01881427      -0.00961188       0.13315842      -0.13866918       0.06272066       0.13315842       0.13866918       0.06272066       0.13315842       0.13866918      -0.06272066       0.13315842      -0.13866918      -0.06272066       0.00716800       0.00612554       0.00336906       0.00716800      -0.00612554       0.00336906       0.00716800      -0.00612554      -0.00336906       0.00716800       0.00612554      -0.00336906       0.80714851      -0.21873209       0.21873209      -0.00557684      -0.00796343       0.00796343      -0.01336376      -0.00796343      -0.00278968       0.00748774      -0.00961188       0.01881427      -0.01336376       0.00278968       0.00796343       0.00748774      -0.01881427       0.00961188       0.02916372      -0.01881427       0.01881427      -0.00282535      -0.00256121       0.00256121 </v>
    <v>       0.00000000      -3.89730995      -0.00000000      -0.00000000       0.00792797      -0.00000000      -0.00000000       0.01445543      -0.00000000      -0.00000000       0.01055960       0.00000000      -0.00000000       0.00792797      -0.00000000       0.00000000      -0.04824752      -0.00000000       0.00000000       0.01055960      -0.00000000      -0.00000000       0.00456709       0.00000000      -0.00796343      -0.00557684       0.00796343      -0.00961188       0.00748774       0.01881427      -0.21873209       0.80714851       0.21873209      -0.00796343      -0.01336376      -0.00278968      -0.01881427       0.00748774       0.00961188      -0.00256121      -0.00282535       0.00256121       0.00278968      -0.01336376       0.00796343      -0.01881427       0.02916372       0.01881427      -0.06272066       0.13315842      -0.13866918      -0.00336906       0.00716800       0.00612554      -0.06272066       0.13315842       0.13866918      -0.00336906       0.00716800      -0.00612554       0.06272066       0.13315842       0.13866918       0.00336906       0.00716800      -0.00612554       0.06272066       0.13315842      -0.13866918       0.00336906       0.00716800       0.00612554       0.21873209       0.80714851       0.21873209       0.00796343      -0.01336376      -0.00278968       0.00796343      -0.00557684       0.00796343       0.00961188       0.00748774       0.01881427      -0.00278968      -0.01336376       0.00796343       0.01881427       0.02916372       0.01881427       0.01881427       0.00748774       0.00961188       0.00256121      -0.00282535       0.00256121       0.06272066      -0.11916999       0.06272066       0.06272066      -0.11916999      -0.06272066       0.00336906      -0.00525088       0.00336906       0.00336906      -0.00525088      -0.00336906      -0.06272066      -0.11916999       0.06272066      -0.06272066      -0.11916999      -0.06272066      -0.00336906      -0.00525088       0.00336906      -0.00336906      -0.00525088      -0.00336906       0.00796343      -0.00557684      -0.00796343       0.00961188       0.00748774      -0.01881427       0.21873209       0.80714851      -0.21873209       0.00796343      -0.01336376       0.00278968       0.01881427       0.00748774      -0.00961188       0.00256121      -0.00282535      -0.00256121      -0.00278968      -0.01336376      -0.00796343       0.01881427       0.02916372      -0.01881427      -0.13866918       0.13315842      -0.06272066       0.13866918       0.13315842       0.06272066       0.13866918       0.13315842      -0.06272066      -0.13866918       0.13315842       0.06272066       0.00612554       0.00716800      -0.00336906      -0.00612554       0.00716800       0.00336906      -0.00612554       0.00716800      -0.00336906       0.00612554       0.00716800       0.00336906      -0.21873209       0.80714851      -0.21873209      -0.00796343      -0.01336376       0.00278968      -0.00796343      -0.00557684      -0.00796343      -0.00961188       0.00748774      -0.01881427       0.00278968      -0.01336376      -0.00796343      -0.01881427       0.02916372      -0.01881427      -0.01881427       0.00748774      -0.00961188      -0.00256121      -0.00282535      -0.00256121 </v>
    <v>      -0.00000000      -0.00000000      -3.89730995      -0.00000000      -0.00000000       0.00792797      -0.00000000      -0.00000000       0.00792797       0.00000000       0.00000000      -0.04824752      -0.00000000      -0.00000000       0.01445543      -0.00000000      -0.00000000       0.01055960      -0.00000000      -0.00000000       0.01055960       0.00000000       0.00000000       0.00456709       0.00278968       0.00796343      -0.01336376      -0.01881427       0.01881427       0.02916372      -0.21873209       0.21873209       0.80714851      -0.00796343      -0.00278968      -0.01336376      -0.01881427       0.00961188       0.00748774      -0.00256121       0.00256121      -0.00282535      -0.00796343       0.00796343      -0.00557684      -0.00961188       0.01881427       0.00748774       0.06272066      -0.13866918       0.13315842       0.00336906       0.00612554       0.00716800      -0.06272066       0.13866918       0.13315842      -0.00336906      -0.00612554       0.00716800       0.06272066       0.13866918       0.13315842       0.00336906      -0.00612554       0.00716800      -0.06272066      -0.13866918       0.13315842      -0.00336906       0.00612554       0.00716800       0.21873209       0.21873209       0.80714851       0.00796343      -0.00278968      -0.01336376      -0.00278968       0.00796343      -0.01336376       0.01881427       0.01881427       0.02916372       0.00796343       0.00796343      -0.00557684       0.00961188       0.01881427       0.00748774       0.01881427       0.00961188       0.00748774       0.00256121       0.00256121      -0.00282535       0.13866918      -0.06272066       0.13315842      -0.13866918       0.06272066       0.13315842      -0.00612554      -0.00336906       0.00716800       0.00612554       0.00336906       0.00716800      -0.13866918      -0.06272066       0.13315842       0.13866918       0.06272066       0.13315842       0.00612554      -0.00336906       0.00716800      -0.00612554       0.00336906       0.00716800       0.00278968      -0.00796343      -0.01336376      -0.01881427      -0.01881427       0.02916372      -0.21873209      -0.21873209       0.80714851      -0.00796343       0.00278968      -0.01336376      -0.01881427      -0.00961188       0.00748774      -0.00256121      -0.00256121      -0.00282535      -0.00796343      -0.00796343      -0.00557684      -0.00961188      -0.01881427       0.00748774      -0.06272066       0.06272066      -0.11916999      -0.06272066      -0.06272066      -0.11916999       0.06272066       0.06272066      -0.11916999       0.06272066      -0.06272066      -0.11916999      -0.00336906       0.00336906      -0.00525088      -0.00336906      -0.00336906      -0.00525088       0.00336906       0.00336906      -0.00525088       0.00336906      -0.00336906      -0.00525088       0.21873209      -0.21873209       0.80714851       0.00796343       0.00278968      -0.01336376      -0.00278968      -0.00796343      -0.01336376       0.01881427      -0.01881427       0.02916372       0.00796343      -0.00796343      -0.00557684       0.00961188      -0.01881427       0.00748774       0.01881427      -0.00961188       0.00748774       0.00256121      -0.00256121      -0.00282535 </v>
    <v>       0.01445543      -0.00000000      -0.00000000      -3.89730995       0.00000000      -0.00000000       0.01055960      -0.00000000       0.00000000       0.00792797      -0.00000000      -0.00000000       0.01055960       0.00000000      -0.00000000       0.00792797      -0.00000000      -0.00000000       0.00456709      -0.00000000       0.00000000      -0.04824752       0.00000000      -0.00000000       0.00748774      -0.00961188      -0.01881427      -0.01336376      -0.00796343       0.00278968      -0.00557684      -0.00796343      -0.00796343       0.80714851      -0.21873209      -0.21873209      -0.00282535      -0.00256121      -0.00256121       0.02916372      -0.01881427      -0.01881427       0.00748774      -0.01881427      -0.00961188      -0.01336376       0.00278968      -0.00796343      -0.00525088       0.00336906      -0.00336906      -0.11916999       0.06272066      -0.06272066      -0.00525088       0.00336906       0.00336906      -0.11916999       0.06272066       0.06272066      -0.00525088      -0.00336906      -0.00336906      -0.11916999      -0.06272066      -0.06272066      -0.00525088      -0.00336906       0.00336906      -0.11916999      -0.06272066       0.06272066      -0.00557684       0.00796343       0.00796343       0.80714851       0.21873209       0.21873209       0.00748774       0.00961188       0.01881427      -0.01336376       0.00796343      -0.00278968       0.00748774       0.01881427       0.00961188      -0.01336376      -0.00278968       0.00796343      -0.00282535       0.00256121       0.00256121       0.02916372       0.01881427       0.01881427       0.13315842      -0.06272066      -0.13866918       0.13315842      -0.06272066       0.13866918       0.00716800      -0.00336906       0.00612554       0.00716800      -0.00336906      -0.00612554       0.13315842       0.06272066       0.13866918       0.13315842       0.06272066      -0.13866918       0.00716800       0.00336906      -0.00612554       0.00716800       0.00336906       0.00612554       0.00748774       0.00961188      -0.01881427      -0.01336376       0.00796343       0.00278968      -0.00557684       0.00796343      -0.00796343       0.80714851       0.21873209      -0.21873209      -0.00282535       0.00256121      -0.00256121       0.02916372       0.01881427      -0.01881427       0.00748774       0.01881427      -0.00961188      -0.01336376      -0.00278968      -0.00796343       0.13315842       0.13866918       0.06272066       0.13315842      -0.13866918       0.06272066       0.13315842      -0.13866918      -0.06272066       0.13315842       0.13866918      -0.06272066       0.00716800      -0.00612554       0.00336906       0.00716800       0.00612554       0.00336906       0.00716800       0.00612554      -0.00336906       0.00716800      -0.00612554      -0.00336906      -0.00557684      -0.00796343       0.00796343       0.80714851      -0.21873209       0.21873209       0.00748774      -0.00961188       0.01881427      -0.01336376      -0.00796343      -0.00278968       0.00748774      -0.01881427       0.00961188      -0.01336376       0.00278968       0.00796343      -0.00282535      -0.00256121       0.00256121       0.02916372      -0.01881427       0.01881427 </v>
    <v>      -0.00000000       0.00792797      -0.00000000       0.00000000      -3.89730995      -0.00000000      -0.00000000       0.01055960       0.00000000      -0.00000000       0.01445543      -0.00000000       0.00000000      -0.04824752      -0.00000000      -0.00000000       0.00792797      -0.00000000      -0.00000000       0.00456709       0.00000000       0.00000000       0.01055960      -0.00000000      -0.00961188       0.00748774       0.01881427      -0.00796343      -0.00557684       0.00796343      -0.00796343      -0.01336376      -0.00278968      -0.21873209       0.80714851       0.21873209      -0.00256121      -0.00282535       0.00256121      -0.01881427       0.00748774       0.00961188      -0.01881427       0.02916372       0.01881427       0.00278968      -0.01336376       0.00796343      -0.00336906       0.00716800       0.00612554      -0.06272066       0.13315842      -0.13866918      -0.00336906       0.00716800      -0.00612554      -0.06272066       0.13315842       0.13866918       0.00336906       0.00716800      -0.00612554       0.06272066       0.13315842       0.13866918       0.00336906       0.00716800       0.00612554       0.06272066       0.13315842      -0.13866918       0.00796343      -0.01336376      -0.00278968       0.21873209       0.80714851       0.21873209       0.00961188       0.00748774       0.01881427       0.00796343      -0.00557684       0.00796343       0.01881427       0.02916372       0.01881427      -0.00278968      -0.01336376       0.00796343       0.00256121      -0.00282535       0.00256121       0.01881427       0.00748774       0.00961188       0.06272066      -0.11916999      -0.06272066       0.06272066      -0.11916999       0.06272066       0.00336906      -0.00525088      -0.00336906       0.00336906      -0.00525088       0.00336906      -0.06272066      -0.11916999      -0.06272066      -0.06272066      -0.11916999       0.06272066      -0.00336906      -0.00525088      -0.00336906      -0.00336906      -0.00525088       0.00336906       0.00961188       0.00748774      -0.01881427       0.00796343      -0.00557684      -0.00796343       0.00796343      -0.01336376       0.00278968       0.21873209       0.80714851      -0.21873209       0.00256121      -0.00282535      -0.00256121       0.01881427       0.00748774      -0.00961188       0.01881427       0.02916372      -0.01881427      -0.00278968      -0.01336376      -0.00796343       0.13866918       0.13315842       0.06272066      -0.13866918       0.13315842      -0.06272066      -0.13866918       0.13315842       0.06272066       0.13866918       0.13315842      -0.06272066      -0.00612554       0.00716800       0.00336906       0.00612554       0.00716800      -0.00336906       0.00612554       0.00716800       0.00336906      -0.00612554       0.00716800      -0.00336906      -0.00796343      -0.01336376       0.00278968      -0.21873209       0.80714851      -0.21873209      -0.00961188       0.00748774      -0.01881427      -0.00796343      -0.00557684      -0.00796343      -0.01881427       0.02916372      -0.01881427       0.00278968      -0.01336376      -0.00796343      -0.00256121      -0.00282535      -0.00256121      -0.01881427       0.00748774      -0.00961188 </v>
    <v>      -0.00000000      -0.00000000       0.00792797      -0.00000000      -0.00000000      -3.89730995       0.00000000       0.00000000      -0.04824752      -0.00000000      -0.00000000       0.00792797      -0.00000000      -0.00000000       0.01055960      -0.00000000      -0.00000000       0.01445543       0.00000000       0.00000000       0.00456709      -0.00000000      -0.00000000       0.01055960      -0.01881427       0.01881427       0.02916372       0.00278968       0.00796343      -0.01336376      -0.00796343      -0.00278968      -0.01336376      -0.21873209       0.21873209       0.80714851      -0.00256121       0.00256121      -0.00282535      -0.01881427       0.00961188       0.00748774      -0.00961188       0.01881427       0.00748774      -0.00796343       0.00796343      -0.00557684       0.00336906       0.00612554       0.00716800       0.06272066      -0.13866918       0.13315842      -0.00336906      -0.00612554       0.00716800      -0.06272066       0.13866918       0.13315842       0.00336906      -0.00612554       0.00716800       0.06272066       0.13866918       0.13315842      -0.00336906       0.00612554       0.00716800      -0.06272066      -0.13866918       0.13315842       0.00796343      -0.00278968      -0.01336376       0.21873209       0.21873209       0.80714851       0.01881427       0.01881427       0.02916372      -0.00278968       0.00796343      -0.01336376       0.00961188       0.01881427       0.00748774       0.00796343       0.00796343      -0.00557684       0.00256121       0.00256121      -0.00282535       0.01881427       0.00961188       0.00748774      -0.13866918       0.06272066       0.13315842       0.13866918      -0.06272066       0.13315842       0.00612554       0.00336906       0.00716800      -0.00612554      -0.00336906       0.00716800       0.13866918       0.06272066       0.13315842      -0.13866918      -0.06272066       0.13315842      -0.00612554       0.00336906       0.00716800       0.00612554      -0.00336906       0.00716800      -0.01881427      -0.01881427       0.02916372       0.00278968      -0.00796343      -0.01336376      -0.00796343       0.00278968      -0.01336376      -0.21873209      -0.21873209       0.80714851      -0.00256121      -0.00256121      -0.00282535      -0.01881427      -0.00961188       0.00748774      -0.00961188      -0.01881427       0.00748774      -0.00796343      -0.00796343      -0.00557684      -0.06272066      -0.06272066      -0.11916999      -0.06272066       0.06272066      -0.11916999       0.06272066      -0.06272066      -0.11916999       0.06272066       0.06272066      -0.11916999      -0.00336906      -0.00336906      -0.00525088      -0.00336906       0.00336906      -0.00525088       0.00336906      -0.00336906      -0.00525088       0.00336906       0.00336906      -0.00525088       0.00796343       0.00278968      -0.01336376       0.21873209      -0.21873209       0.80714851       0.01881427      -0.01881427       0.02916372      -0.00278968      -0.00796343      -0.01336376       0.00961188      -0.01881427       0.00748774       0.00796343      -0.00796343      -0.00557684       0.00256121      -0.00256121      -0.00282535       0.01881427      -0.00961188       0.00748774 </v>
[...]
      </set>
     </set>
    </set>
   </array>
  </eigenvalues>
  <separator name="orbital magnetization" >
   <v name="MAGDIPOLOUT">      0.00000000      0.00000000      0.00000000</v>
  </separator>
  <dos>
   <i name="efermi">     10.37528112 </i>
   <total>
    <array>
     <dimension dim="1">gridpoints</dimension>
     <dimension dim="2">spin</dimension>
     <field>energy</field>
     <field>total</field>
     <field>integrated</field>
     <set>
      <set comment="spin 1">
       <r>   -13.3910     0.0000     0.0000 </r>
       <r>   -13.2667     0.0000     0.0000 </r>
       <r>   -13.1423     0.0000     0.0000 </r>
       <r>   -13.0180     0.0000     0.0000 </r>
       <r>   -12.8936     0.0000     0.0000 </r>
       <r>   -12.7693     0.0000     0.0000 </r>
       <r>   -12.6449     0.0000     0.0000 </r>
       <r>   -12.5206     0.0000     0.0000 </r>
       <r>   -12.3962     0.0000     0.0000 </r>
       <r>   -12.2719     0.0000     0.0000 </r>
       <r>   -12.1475     0.0000     0.0000 </r>
       <r>   -12.0232     0.0000     0.0000 </r>
       <r>   -11.8988     0.0000     0.0000 </r>
       <r>   -11.7745     0.0016     0.0002 </r>
       <r>   -11.6501     0.2481     0.0310 </r>
       <r>   -11.5258     1.0769     0.1650 </r>
       <r>   -11.4014     1.5993     0.3638 </r>
       <r>   -11.2771     2.2365     0.6419 </r>
       <r>   -11.1527     2.3946     0.9397 </r>
       <r>   -11.0284     2.7083     1.2765 </r>
       <r>   -10.9040     3.2609     1.6820 </r>
       <r>   -10.7797     2.5840     2.0033 </r>
       <r>   -10.6553     4.0832     2.5110 </r>
       <r>   -10.5310     3.4344     2.9381 </r>
       <r>   -10.4066     4.0363     3.4400 </r>
       <r>   -10.2823     3.9742     3.9342 </r>
       <r>   -10.1579     4.8604     4.5386 </r>
       <r>   -10.0336     4.5014     5.0983 </r>
       <r>    -9.9092     3.4334     5.5253 </r>
       <r>    -9.7849     5.7757     6.2435 </r>
       <r>    -9.6605     5.5526     6.9340 </r>
       <r>    -9.5362     4.4622     7.4888 </r>
       <r>    -9.4118     5.3123     8.1494 </r>
       <r>    -9.2875     5.8035     8.8711 </r>
       <r>    -9.1631     6.2968     9.6541 </r>
       <r>    -9.0388     4.8172    10.2531 </r>
       <r>    -8.9144     7.0943    11.1353 </r>
       <r>    -8.7901     4.6674    11.7157 </r>
       <r>    -8.6657     6.6556    12.5433 </r>
       <r>    -8.5414     6.6220    13.3667 </r>
       <r>    -8.4170     8.5118    14.4252 </r>
       <r>    -8.2927     5.2162    15.0738 </r>
       <r>    -8.1683     5.5229    15.7606 </r>
       <r>    -8.0440     8.6105    16.8313 </r>
       <r>    -7.9196     6.8898    17.6880 </r>
       <r>    -7.7953     7.9011    18.6705 </r>
       <r>    -7.6709     6.5971    19.4909 </r>
       <r>    -7.5466     8.1653    20.5062 </r>
       <r>    -7.4222     7.3114    21.4154 </r>
       <r>    -7.2979     7.7111    22.3743 </r>
       <r>    -7.1735     8.5480    23.4372 </r>
       <r>    -7.0492     8.4077    24.4827 </r>
       <r>    -6.9248     9.5631    25.6719 </r>
       <r>    -6.8005     8.0555    26.6736 </r>
       <r>    -6.6761     8.2229    27.6961 </r>
       <r>    -6.5518     6.9541    28.5608 </r>
       <r>    -6.4274    11.0834    29.9390 </r>
       <r>    -6.3031    11.3077    31.3451 </r>
       <r>    -6.1787     7.8914    32.3264 </r>
       <r>    -6.0544    10.1445    33.5879 </r>
       <r>    -5.9300    10.9023    34.9436 </r>
       <r>    -5.8057     9.5073    36.1258 </r>
       <r>    -5.6814    13.3340    37.7839 </r>
       <r>    -5.5570    11.3301    39.1928 </r>
       <r>    -5.4327    10.5307    40.5023 </r>
       <r>    -5.3083    13.4181    42.1708 </r>
       <r>    -5.1840    12.4501    43.7190 </r>
       <r>    -5.0596     8.7165    44.8029 </r>
       <r>    -4.9353     8.7970    45.8968 </r>
       <r>    -4.8109    11.1908    47.2883 </r>
       <r>    -4.6866     9.5122    48.4712 </r>
       <r>    -4.5622    10.9196    49.8290 </r>
       <r>    -4.4379    10.5488    51.1408 </r>
       <r>    -4.3135     6.3875    51.9350 </r>
       <r>    -4.1892    11.4966    53.3646 </r>
       <r>    -4.0648     6.1588    54.1305 </r>
       <r>    -3.9405     8.2299    55.1539 </r>
       <r>    -3.8161     7.5172    56.0886 </r>
       <r>    -3.6918     8.9501    57.2016 </r>
       <r>    -3.5674     5.6498    57.9041 </r>
       <r>    -3.4431     9.0012    59.0234 </r>
       <r>    -3.3187     9.1989    60.1673 </r>
       <r>    -3.1944    10.0466    61.4166 </r>
       <r>    -3.0700     7.3973    62.3364 </r>
       <r>    -2.9457     7.4544    63.2634 </r>
       <r>    -2.8213     6.5791    64.0815 </r>
       <r>    -2.6970    12.3647    65.6190 </r>
       <r>    -2.5726     9.5757    66.8098 </r>
       <r>    -2.4483     8.4097    67.8555 </r>
       <r>    -2.3239    10.0072    69.0999 </r>
       <r>    -2.1996     8.5465    70.1627 </r>
       <r>    -2.0752     7.8762    71.1421 </r>
       <r>    -1.9509    10.7901    72.4838 </r>
       <r>    -1.8265     9.2448    73.6334 </r>
       <r>    -1.7022    15.3896    75.5471 </r>
       <r>    -1.5778    21.6309    78.2369 </r>
       <r>    -1.4535    24.2505    81.2524 </r>
       <r>    -1.3291    18.1375    83.5078 </r>
       <r>    -1.2048    12.7482    85.0930 </r>
       <r>    -1.0804    12.1504    86.6039 </r>
       <r>    -0.9561    10.6355    87.9264 </r>
       <r>    -0.8317    11.6317    89.3728 </r>
       <r>    -0.7074    16.0043    91.3630 </r>
       <r>    -0.5830    15.2799    93.2630 </r>
       <r>    -0.4587    11.1712    94.6521 </r>
       <r>    -0.3343     8.3504    95.6905 </r>
       <r>    -0.2100     5.5799    96.3844 </r>
       <r>    -0.0856     9.7907    97.6018 </r>
       <r>     0.0387    10.0971    98.8574 </r>
       <r>     0.1631     7.9539    99.8465 </r>
       <r>     0.2874     9.0860   100.9763 </r>
       <r>     0.4118    14.0151   102.7191 </r>
       <r>     0.5361     7.2730   103.6235 </r>
       <r>     0.6605     6.6955   104.4560 </r>
       <r>     0.7848    10.2538   105.7311 </r>
       <r>     0.9092    18.6725   108.0530 </r>
       <r>     1.0335    11.2175   109.4479 </r>
       <r>     1.1579    14.0188   111.1911 </r>
       <r>     1.2822    13.4311   112.8613 </r>
       <r>     1.4066    20.5742   115.4197 </r>
       <r>     1.5309    17.6599   117.6157 </r>
       <r>     1.6553    15.5737   119.5523 </r>
       <r>     1.7796    13.9716   121.2896 </r>
       <r>     1.9040    17.0572   123.4107 </r>
       <r>     2.0283    14.5575   125.2209 </r>
       <r>     2.1527    12.6183   126.7900 </r>
       <r>     2.2770    20.3283   129.3178 </r>
       <r>     2.4014    16.1646   131.3279 </r>
       <r>     2.5257    22.3243   134.1039 </r>
       <r>     2.6501    16.1124   136.1074 </r>
       <r>     2.7744    10.4145   137.4025 </r>
       <r>     2.8988    15.2266   139.2959 </r>
       <r>     3.0231    27.8570   142.7599 </r>
       <r>     3.1475    19.2073   145.1483 </r>
       <r>     3.2718    14.0653   146.8973 </r>
       <r>     3.3962    19.6375   149.3392 </r>
       <r>     3.5205    23.7425   152.2916 </r>
       <r>     3.6449    23.9775   155.2732 </r>
       <r>     3.7692    25.3692   158.4278 </r>
       <r>     3.8936    22.1107   161.1773 </r>
       <r>     4.0179    23.8044   164.1374 </r>
       <r>     4.1423    23.4189   167.0495 </r>
       <r>     4.2666    27.6689   170.4901 </r>
       <r>     4.3910    27.0164   173.8496 </r>
       <r>     4.5153    21.6370   176.5401 </r>
       <r>     4.6397    19.8078   179.0032 </r>
       <r>     4.7640    21.1719   181.6359 </r>
       <r>     4.8884    26.1594   184.8888 </r>
       <r>     5.0127    29.9094   188.6080 </r>
       <r>     5.1371    18.8391   190.9507 </r>
       <r>     5.2614    16.4166   192.9921 </r>
       <r>     5.3858    25.0465   196.1066 </r>
       <r>     5.5101    23.0191   198.9690 </r>
       <r>     5.6345    27.7357   202.4179 </r>
       <r>     5.7588    15.6304   204.3616 </r>
       <r>     5.8832    20.2081   206.8744 </r>
       <r>     6.0075    20.4910   209.4225 </r>
       <r>     6.1319    27.3097   212.8184 </r>
       <r>     6.2562    18.8705   215.1650 </r>
       <r>     6.3806    19.8922   217.6386 </r>
       <r>     6.5049    16.9258   219.7433 </r>
       <r>     6.6293    21.0702   222.3633 </r>
       <r>     6.7536    25.9063   225.5848 </r>
       <r>     6.8780    17.4048   227.7491 </r>
       <r>     7.0023    19.2292   230.1402 </r>
       <r>     7.1266    16.0534   232.1364 </r>
       <r>     7.2510    19.7665   234.5944 </r>
       <r>     7.3753    24.9120   237.6922 </r>
       <r>     7.4997     8.3820   238.7345 </r>
       <r>     7.6240    12.4034   240.2768 </r>
       <r>     7.7484    15.2566   242.1740 </r>
       <r>     7.8727    11.1440   243.5597 </r>
       <r>     7.9971    10.5158   244.8674 </r>
       <r>     8.1214     7.9864   245.8605 </r>
       <r>     8.2458    10.1781   247.1261 </r>
       <r>     8.3701     8.8888   248.2314 </r>
       <r>     8.4945     7.9761   249.2232 </r>
       <r>     8.6188     6.6732   250.0531 </r>
       <r>     8.7432     5.3535   250.7188 </r>
       <r>     8.8675     7.7674   251.6846 </r>
       <r>     8.9919     5.7130   252.3951 </r>
       <r>     9.1162     5.3167   253.0562 </r>
       <r>     9.2406     3.2625   253.4619 </r>
       <r>     9.3649     5.1163   254.0981 </r>
       <r>     9.4893     3.9288   254.5866 </r>
       <r>     9.6136     3.2610   254.9921 </r>
       <r>     9.7380     2.7784   255.3376 </r>
       <r>     9.8623     2.1041   255.5993 </r>
       <r>     9.9867     2.2040   255.8733 </r>
       <r>    10.1110     0.8267   255.9761 </r>
       <r>    10.2354     0.1910   255.9999 </r>
       <r>    10.3597     0.0009   256.0000 </r>
       <r>    10.4841     0.0000   256.0000 </r>
       <r>    10.6084     0.0000   256.0000 </r>
       <r>    10.7328     0.0000   256.0000 </r>
       <r>    10.8571     0.0000   256.0000 </r>
       <r>    10.9815     0.0000   256.0000 </r>
       <r>    11.1058     0.0000   256.0000 </r>
       <r>    11.2302     0.0000   256.0000 </r>
       <r>    11.3545     0.0000   256.0000 </r>
       <r>    11.4789     0.0000   256.0000 </r>
       <r>    11.6032     0.0000   256.0000 </r>
       <r>    11.7276     0.0000   256.0000 </r>
       <r>    11.8519     0.0000   256.0000 </r>
       <r>    11.9763     0.0000   256.0000 </r>
       <r>    12.1006     0.0000   256.0000 </r>
       <r>    12.2250     0.0000   256.0000 </r>
       <r>    12.3493     0.0000   256.0000 </r>
       <r>    12.4737     0.0000   256.0000 </r>
       <r>    12.5980     0.0000   256.0000 </r>
       <r>    12.7224     0.0000   256.0000 </r>
       <r>    12.8467     0.0000   256.0000 </r>
       <r>    12.9711     0.0000   256.0000 </r>
       <r>    13.0954     0.0000   256.0000 </r>
       <r>    13.2198     0.0000   256.0000 </r>
       <r>    13.3441     0.0000   256.0000 </r>
       <r>    13.4685     0.0000   256.0000 </r>
       <r>    13.5928     0.0000   256.0000 </r>
       <r>    13.7172     0.0000   256.0000 </r>
       <r>    13.8415     0.0000   256.0000 </r>
       <r>    13.9659     0.0000   256.0000 </r>
       <r>    14.0902     0.0000   256.0000 </r>
       <r>    14.2146     0.0055   256.0007 </r>
       <r>    14.3389     0.3911   256.0493 </r>
       <r>    14.4633     1.2956   256.2104 </r>
       <r>    14.5876     3.2206   256.6109 </r>
       <r>    14.7120     4.1576   257.1279 </r>
       <r>    14.8363     2.8878   257.4870 </r>
       <r>    14.9607     4.7281   258.0749 </r>
       <r>    15.0850     9.2795   259.2288 </r>
       <r>    15.2094     9.5613   260.4178 </r>
       <r>    15.3337     5.3884   261.0878 </r>
       <r>    15.4581     7.0117   261.9597 </r>
       <r>    15.5824    11.1177   263.3422 </r>
       <r>    15.7068    15.4470   265.2630 </r>
       <r>    15.8311    12.4143   266.8067 </r>
       <r>    15.9555    13.0029   268.4237 </r>
       <r>    16.0798    13.8282   270.1432 </r>
       <r>    16.2042    12.0647   271.6434 </r>
       <r>    16.3285    13.6125   273.3361 </r>
       <r>    16.4529    18.2081   275.6003 </r>
       <r>    16.5772    20.2424   278.1174 </r>
       <r>    16.7016    15.7286   280.0733 </r>
       <r>    16.8259    15.4495   281.9944 </r>
       <r>    16.9503    18.8112   284.3336 </r>
       <r>    17.0746    18.6970   286.6585 </r>
       <r>    17.1990    16.6591   288.7301 </r>
       <r>    17.3233    20.3669   291.2627 </r>
       <r>    17.4477    23.9642   294.2426 </r>
       <r>    17.5720    18.7305   296.5718 </r>
       <r>    17.6964    23.5020   299.4942 </r>
       <r>    17.8207    24.8902   302.5893 </r>
       <r>    17.9451    21.3854   305.2486 </r>
       <r>    18.0694    25.0501   308.3635 </r>
       <r>    18.1938    31.0239   312.2213 </r>
       <r>    18.3181    27.6323   315.6574 </r>
       <r>    18.4425    33.5013   319.8233 </r>
       <r>    18.5668    26.3340   323.0979 </r>
       <r>    18.6912    33.0413   327.2066 </r>
       <r>    18.8155    34.5227   331.4994 </r>
       <r>    18.9399    31.4337   335.4082 </r>
       <r>    19.0642    34.6430   339.7160 </r>
       <r>    19.1886    24.7685   342.7960 </r>
       <r>    19.3129    24.7821   345.8776 </r>
       <r>    19.4373    29.8346   349.5875 </r>
       <r>    19.5616    24.1916   352.5958 </r>
       <r>    19.6860    25.7217   355.7942 </r>
       <r>    19.8103    34.6684   360.1052 </r>
       <r>    19.9347    26.8326   363.4419 </r>
       <r>    20.0590    27.3388   366.8414 </r>
       <r>    20.1833    24.7051   369.9135 </r>
       <r>    20.3077    21.7751   372.6212 </r>
       <r>    20.4320    27.1850   376.0017 </r>
       <r>    20.5564    15.0971   377.8790 </r>
       <r>    20.6807    11.2722   379.2807 </r>
       <r>    20.8051     9.8707   380.5081 </r>
       <r>    20.9294    10.5254   381.8169 </r>
       <r>    21.0538     5.3631   382.4838 </r>
       <r>    21.1781     2.0295   382.7362 </r>
       <r>    21.3025     2.6233   383.0624 </r>
       <r>    21.4268     1.8496   383.2924 </r>
       <r>    21.5512     2.1622   383.5613 </r>
       <r>    21.6755     1.5065   383.7486 </r>
       <r>    21.7999     1.1977   383.8975 </r>
       <r>    21.9242     0.0701   383.9062 </r>
       <r>    22.0486     0.0014   383.9064 </r>
       <r>    22.1729     0.3124   383.9453 </r>
       <r>    22.2973     0.4331   383.9991 </r>
       <r>    22.4216     0.0071   384.0000 </r>
       <r>    22.5460     0.0000   384.0000 </r>
       <r>    22.6703     0.0000   384.0000 </r>
       <r>    22.7947     0.0000   384.0000 </r>
       <r>    22.9190     0.0000   384.0000 </r>
       <r>    23.0434     0.0000   384.0000 </r>
       <r>    23.1677     0.0000   384.0000 </r>
       <r>    23.2921     0.0000   384.0000 </r>
       <r>    23.4164     0.0000   384.0000 </r>
       <r>    23.5408     0.0000   384.0000 </r>
       <r>    23.6651     0.0000   384.0000 </r>
       <r>    23.7895     0.0000   384.0000 </r>
       <r>    23.9138     0.0000   384.0000 </r>
      </set>
     </set>
    </array>
   </total>
  </dos>
 </calculation>
 <structure name="finalpos" >
  <crystal>
   <varray name="basis" >
    <v>       7.07558400       0.00000000       0.00000000 </v>
    <v>       0.00000000       7.07558400       0.00000000 </v>
    <v>       0.00000000       0.00000000       7.07558400 </v>
   </varray>
   <i name="volume">    354.23125157 </i>
   <varray name="rec_basis" >
    <v>       0.14133109       0.00000000       0.00000000 </v>
    <v>       0.00000000       0.14133109       0.00000000 </v>
    <v>       0.00000000       0.00000000       0.14133109 </v>
   </varray>
  </crystal>
  <varray name="positions" >
   <v>       0.12500000       0.37500000       0.12500000 </v>
   <v>       0.62500000       0.37500000       0.12500000 </v>
   <v>       0.12500000       0.87500000       0.12500000 </v>
   <v>       0.62500000       0.87500000       0.12500000 </v>
   <v>       0.12500000       0.37500000       0.62500000 </v>
   <v>       0.62500000       0.37500000       0.62500000 </v>
   <v>       0.12500000       0.87500000       0.62500000 </v>
   <v>       0.62500000       0.87500000       0.62500000 </v>
   <v>       0.00000000       0.00000000       0.25000000 </v>
   <v>       0.50000000       0.00000000       0.25000000 </v>
   <v>       0.00000000       0.50000000       0.25000000 </v>
   <v>       0.50000000       0.50000000       0.25000000 </v>
   <v>       0.00000000       0.00000000       0.75000000 </v>
   <v>       0.50000000       0.00000000       0.75000000 </v>
   <v>       0.00000000       0.50000000       0.75000000 </v>
   <v>       0.50000000       0.50000000       0.75000000 </v>
   <v>       0.12500000       0.12500000       0.37500000 </v>
   <v>       0.62500000       0.12500000       0.37500000 </v>
   <v>       0.12500000       0.62500000       0.37500000 </v>
   <v>       0.62500000       0.62500000       0.37500000 </v>
   <v>       0.12500000       0.12500000       0.87500000 </v>
   <v>       0.62500000       0.12500000       0.87500000 </v>
   <v>       0.12500000       0.62500000       0.87500000 </v>
   <v>       0.62500000       0.62500000       0.87500000 </v>
   <v>       0.00000000       0.25000000       0.00000000 </v>
   <v>       0.50000000       0.25000000       0.00000000 </v>
   <v>       0.00000000       0.75000000       0.00000000 </v>
   <v>       0.50000000       0.75000000       0.00000000 </v>
   <v>       0.00000000       0.25000000       0.50000000 </v>
   <v>       0.50000000       0.25000000       0.50000000 </v>
   <v>       0.00000000       0.75000000       0.50000000 </v>
   <v>       0.50000000       0.75000000       0.50000000 </v>
   <v>       0.37500000       0.37500000       0.37500000 </v>
   <v>       0.87500000       0.37500000       0.37500000 </v>
   <v>       0.37500000       0.87500000       0.37500000 </v>
   <v>       0.87500000       0.87500000       0.37500000 </v>
   <v>       0.37500000       0.37500000       0.87500000 </v>
   <v>       0.87500000       0.37500000       0.87500000 </v>
   <v>       0.37500000       0.87500000       0.87500000 </v>
   <v>       0.87500000       0.87500000       0.87500000 </v>
   <v>       0.25000000       0.00000000       0.00000000 </v>
   <v>       0.75000000       0.00000000       0.00000000 </v>
   <v>       0.25000000       0.50000000       0.00000000 </v>
   <v>       0.75000000       0.50000000       0.00000000 </v>
   <v>       0.25000000       0.00000000       0.50000000 </v>
   <v>       0.75000000       0.00000000       0.50000000 </v>
   <v>       0.25000000       0.50000000       0.50000000 </v>
   <v>       0.75000000       0.50000000       0.50000000 </v>
   <v>       0.37500000       0.12500000       0.12500000 </v>
   <v>       0.87500000       0.12500000       0.12500000 </v>
   <v>       0.37500000       0.62500000       0.12500000 </v>
   <v>       0.87500000       0.62500000       0.12500000 </v>
   <v>       0.37500000       0.12500000       0.62500000 </v>
   <v>       0.87500000       0.12500000       0.62500000 </v>
   <v>       0.37500000       0.62500000       0.62500000 </v>
   <v>       0.87500000       0.62500000       0.62500000 </v>
   <v>       0.25000000       0.25000000       0.25000000 </v>
   <v>       0.75000000       0.25000000       0.25000000 </v>
   <v>       0.25000000       0.75000000       0.25000000 </v>
   <v>       0.75000000       0.75000000       0.25000000 </v>
   <v>       0.25000000       0.25000000       0.75000000 </v>
   <v>       0.75000000       0.25000000       0.75000000 </v>
   <v>       0.25000000       0.75000000       0.75000000 </v>
   <v>       0.75000000       0.75000000       0.75000000 </v>
  </varray>
 </structure>
</modeling>
