  64  64   0   0
  0.6361886E+01  0.7530447E-09  0.7530447E-09  0.7179999E-09  0.5000000E-15
  1.000000000000000E-004
  CAR 
 unknown system                          
     20.40516479    -13.36651662  301      8.92982888      1.00000000
    -13.367  0.0000E+00  0.0000E+00
    -13.254  0.0000E+00  0.0000E+00
    -13.141  0.0000E+00  0.0000E+00
    -13.029  0.0000E+00  0.0000E+00
    -12.916  0.0000E+00  0.0000E+00
    -12.804  0.0000E+00  0.0000E+00
    -12.691  0.0000E+00  0.0000E+00
    -12.579  0.0000E+00  0.0000E+00
    -12.466  0.0000E+00  0.0000E+00
    -12.353  0.0000E+00  0.0000E+00
    -12.241  0.0000E+00  0.0000E+00
    -12.128  0.3676E-12  0.4139E-13
    -12.016  0.1961E-05  0.2208E-06
    -11.903  0.1267E-01  0.1427E-02
    -11.791  0.2443E+00  0.2893E-01
    -11.678  0.1169E+01  0.1606E+00
    -11.565  0.2173E+01  0.4052E+00
    -11.453  0.2360E+01  0.6709E+00
    -11.340  0.1843E+01  0.8783E+00
    -11.228  0.1909E+01  0.1093E+01
    -11.115  0.5453E+01  0.1707E+01
    -11.002  0.5734E+01  0.2353E+01
    -10.890  0.1609E+01  0.2534E+01
    -10.777  0.1496E+01  0.2702E+01
    -10.665  0.4484E+01  0.3207E+01
    -10.552  0.7152E+01  0.4012E+01
    -10.440  0.5100E+01  0.4586E+01
    -10.327  0.5269E+01  0.5179E+01
    -10.214  0.3600E+01  0.5585E+01
    -10.102  0.4366E+01  0.6076E+01
     -9.989  0.9128E+01  0.7104E+01
     -9.877  0.6229E+01  0.7805E+01
     -9.764  0.1182E+01  0.7938E+01
     -9.652  0.4132E+01  0.8403E+01
     -9.539  0.9646E+01  0.9489E+01
     -9.426  0.7812E+01  0.1037E+02
     -9.314  0.7465E+01  0.1121E+02
     -9.201  0.6806E+01  0.1197E+02
     -9.089  0.8742E+01  0.1296E+02
     -8.976  0.7442E+01  0.1380E+02
     -8.864  0.5388E+01  0.1440E+02
     -8.751  0.3034E+01  0.1474E+02
     -8.638  0.5353E+01  0.1535E+02
     -8.526  0.1070E+02  0.1655E+02
     -8.413  0.1189E+02  0.1789E+02
     -8.301  0.8411E+01  0.1884E+02
     -8.188  0.5871E+01  0.1950E+02
     -8.076  0.1433E+02  0.2111E+02
     -7.963  0.1064E+02  0.2231E+02
     -7.850  0.3003E+01  0.2265E+02
     -7.738  0.6181E+01  0.2334E+02
     -7.625  0.9304E+01  0.2439E+02
     -7.513  0.1275E+02  0.2583E+02
     -7.400  0.1129E+02  0.2710E+02
     -7.288  0.8445E+01  0.2805E+02
     -7.175  0.1154E+02  0.2935E+02
     -7.062  0.1127E+02  0.3061E+02
     -6.950  0.5818E+01  0.3127E+02
     -6.837  0.1108E+02  0.3252E+02
     -6.725  0.1545E+02  0.3426E+02
     -6.612  0.1553E+02  0.3601E+02
     -6.500  0.1310E+02  0.3748E+02
     -6.387  0.2193E+02  0.3995E+02
     -6.274  0.1083E+02  0.4117E+02
     -6.162  0.8503E+01  0.4213E+02
     -6.049  0.6196E+01  0.4282E+02
     -5.937  0.1416E+02  0.4442E+02
     -5.824  0.9528E+01  0.4549E+02
     -5.712  0.1253E+02  0.4690E+02
     -5.599  0.1459E+02  0.4854E+02
     -5.486  0.1216E+02  0.4991E+02
     -5.374  0.5735E+01  0.5056E+02
     -5.261  0.1212E+02  0.5192E+02
     -5.149  0.5891E+01  0.5258E+02
     -5.036  0.1472E+02  0.5424E+02
     -4.924  0.8722E+01  0.5522E+02
     -4.811  0.1710E+02  0.5715E+02
     -4.698  0.7748E+01  0.5802E+02
     -4.586  0.7203E+01  0.5883E+02
     -4.473  0.6233E+01  0.5953E+02
     -4.361  0.2608E+01  0.5983E+02
     -4.248  0.2799E+01  0.6014E+02
     -4.136  0.2968E+01  0.6047E+02
     -4.023  0.4769E+01  0.6101E+02
     -3.910  0.1255E+02  0.6242E+02
     -3.798  0.7420E+01  0.6326E+02
     -3.685  0.9963E+01  0.6438E+02
     -3.573  0.3034E+01  0.6472E+02
     -3.460  0.1032E+02  0.6588E+02
     -3.348  0.1236E+02  0.6728E+02
     -3.235  0.1134E+02  0.6855E+02
     -3.122  0.1541E+02  0.7029E+02
     -3.010  0.1199E+02  0.7164E+02
     -2.897  0.7362E+01  0.7247E+02
     -2.785  0.7068E+01  0.7326E+02
     -2.672  0.1619E+02  0.7508E+02
     -2.560  0.1614E+02  0.7690E+02
     -2.447  0.2866E+02  0.8013E+02
     -2.334  0.1934E+02  0.8230E+02
     -2.222  0.1923E+02  0.8447E+02
     -2.109  0.2825E+02  0.8765E+02
     -1.997  0.1187E+02  0.8899E+02
     -1.884  0.1247E+02  0.9039E+02
     -1.772  0.1510E+02  0.9209E+02
     -1.659  0.1212E+02  0.9346E+02
     -1.546  0.1106E+02  0.9470E+02
     -1.434  0.1220E+02  0.9607E+02
     -1.321  0.7728E+01  0.9694E+02
     -1.209  0.4364E+01  0.9743E+02
     -1.096  0.8048E+01  0.9834E+02
     -0.984  0.1530E+02  0.1001E+03
     -0.871  0.1308E+02  0.1015E+03
     -0.758  0.1024E+02  0.1027E+03
     -0.646  0.1835E+01  0.1029E+03
     -0.533  0.3873E+01  0.1033E+03
     -0.421  0.8424E+01  0.1043E+03
     -0.308  0.1113E+02  0.1055E+03
     -0.196  0.1209E+02  0.1069E+03
     -0.083  0.1783E+02  0.1089E+03
      0.030  0.1246E+02  0.1103E+03
      0.142  0.1778E+02  0.1123E+03
      0.255  0.1377E+02  0.1139E+03
      0.367  0.3893E+01  0.1143E+03
      0.480  0.1194E+02  0.1156E+03
      0.592  0.2419E+02  0.1184E+03
      0.705  0.1318E+02  0.1198E+03
      0.818  0.1375E+02  0.1214E+03
      0.930  0.2976E+02  0.1247E+03
      1.043  0.3460E+02  0.1286E+03
      1.155  0.1921E+02  0.1308E+03
      1.268  0.1200E+02  0.1321E+03
      1.380  0.1041E+02  0.1333E+03
      1.493  0.1675E+02  0.1352E+03
      1.606  0.1607E+02  0.1370E+03
      1.718  0.1114E+02  0.1383E+03
      1.831  0.2093E+02  0.1406E+03
      1.943  0.2503E+02  0.1434E+03
      2.056  0.2253E+02  0.1460E+03
      2.168  0.2967E+02  0.1493E+03
      2.281  0.2915E+02  0.1526E+03
      2.394  0.3255E+02  0.1563E+03
      2.506  0.2045E+02  0.1586E+03
      2.619  0.2050E+02  0.1609E+03
      2.731  0.1355E+02  0.1624E+03
      2.844  0.1561E+02  0.1642E+03
      2.956  0.2265E+02  0.1667E+03
      3.069  0.3762E+02  0.1709E+03
      3.182  0.3616E+02  0.1750E+03
      3.294  0.2623E+02  0.1780E+03
      3.407  0.2947E+02  0.1813E+03
      3.519  0.3336E+02  0.1850E+03
      3.632  0.2282E+02  0.1876E+03
      3.744  0.2653E+02  0.1906E+03
      3.857  0.1852E+02  0.1927E+03
      3.970  0.1647E+02  0.1945E+03
      4.082  0.2896E+02  0.1978E+03
      4.195  0.2767E+02  0.2009E+03
      4.307  0.2466E+02  0.2037E+03
      4.420  0.2836E+02  0.2069E+03
      4.532  0.1871E+02  0.2090E+03
      4.645  0.2572E+02  0.2119E+03
      4.758  0.2185E+02  0.2143E+03
      4.870  0.2509E+02  0.2172E+03
      4.983  0.3200E+02  0.2208E+03
      5.095  0.1677E+02  0.2227E+03
      5.208  0.2706E+02  0.2257E+03
      5.320  0.1967E+02  0.2279E+03
      5.433  0.2040E+02  0.2302E+03
      5.546  0.1171E+02  0.2315E+03
      5.658  0.1750E+02  0.2335E+03
      5.771  0.2144E+02  0.2359E+03
      5.883  0.2538E+02  0.2388E+03
      5.996  0.2176E+02  0.2412E+03
      6.108  0.9944E+01  0.2423E+03
      6.221  0.8882E+01  0.2433E+03
      6.334  0.1206E+02  0.2447E+03
      6.446  0.9960E+01  0.2458E+03
      6.559  0.1030E+02  0.2470E+03
      6.671  0.9366E+01  0.2480E+03
      6.784  0.1365E+02  0.2496E+03
      6.896  0.9687E+01  0.2507E+03
      7.009  0.7388E+01  0.2515E+03
      7.122  0.3690E+01  0.2519E+03
      7.234  0.4256E+01  0.2524E+03
      7.347  0.4986E+01  0.2529E+03
      7.459  0.5343E+01  0.2535E+03
      7.572  0.5588E+01  0.2542E+03
      7.684  0.6876E+01  0.2549E+03
      7.797  0.2280E+01  0.2552E+03
      7.910  0.2153E+01  0.2554E+03
      8.022  0.8056E+00  0.2555E+03
      8.135  0.1097E+01  0.2557E+03
      8.247  0.2241E+01  0.2559E+03
      8.360  0.4897E+00  0.2560E+03
      8.473  0.2536E-02  0.2560E+03
      8.585  0.1404E+00  0.2560E+03
      8.698  0.1350E+00  0.2560E+03
      8.810  0.1027E-02  0.2560E+03
      8.923  0.1350E-07  0.2560E+03
      9.035  0.1849E-15  0.2560E+03
      9.148  0.0000E+00  0.2560E+03
      9.261  0.0000E+00  0.2560E+03
      9.373  0.0000E+00  0.2560E+03
      9.486  0.0000E+00  0.2560E+03
      9.598  0.0000E+00  0.2560E+03
      9.711  0.0000E+00  0.2560E+03
      9.823  0.0000E+00  0.2560E+03
      9.936  0.0000E+00  0.2560E+03
     10.049  0.0000E+00  0.2560E+03
     10.161  0.0000E+00  0.2560E+03
     10.274  0.0000E+00  0.2560E+03
     10.386  0.0000E+00  0.2560E+03
     10.499  0.0000E+00  0.2560E+03
     10.611  0.0000E+00  0.2560E+03
     10.724  0.0000E+00  0.2560E+03
     10.837  0.0000E+00  0.2560E+03
     10.949  0.0000E+00  0.2560E+03
     11.062  0.2825E-12  0.2560E+03
     11.174  0.2124E-05  0.2560E+03
     11.287  0.1906E-01  0.2560E+03
     11.399  0.4905E+00  0.2561E+03
     11.512  0.7299E+00  0.2561E+03
     11.625  0.4189E+00  0.2562E+03
     11.737  0.2707E+00  0.2562E+03
     11.850  0.4682E+00  0.2563E+03
     11.962  0.2311E+01  0.2565E+03
     12.075  0.3712E+01  0.2569E+03
     12.187  0.3946E+01  0.2574E+03
     12.300  0.4724E+01  0.2579E+03
     12.413  0.3327E+01  0.2583E+03
     12.525  0.2905E+01  0.2586E+03
     12.638  0.3347E+01  0.2590E+03
     12.750  0.4677E+01  0.2595E+03
     12.863  0.1565E+01  0.2597E+03
     12.975  0.9482E+01  0.2608E+03
     13.088  0.1341E+02  0.2623E+03
     13.201  0.1487E+02  0.2640E+03
     13.313  0.1734E+02  0.2659E+03
     13.426  0.1308E+02  0.2674E+03
     13.538  0.1180E+02  0.2687E+03
     13.651  0.1259E+02  0.2701E+03
     13.763  0.1194E+02  0.2715E+03
     13.876  0.1645E+02  0.2733E+03
     13.989  0.1902E+02  0.2755E+03
     14.101  0.1476E+02  0.2771E+03
     14.214  0.2462E+02  0.2799E+03
     14.326  0.1928E+02  0.2821E+03
     14.439  0.1361E+02  0.2836E+03
     14.551  0.2533E+02  0.2865E+03
     14.664  0.2523E+02  0.2893E+03
     14.777  0.2643E+02  0.2923E+03
     14.889  0.2943E+02  0.2956E+03
     15.002  0.3788E+02  0.2998E+03
     15.114  0.2219E+02  0.3023E+03
     15.227  0.1986E+02  0.3046E+03
     15.339  0.2988E+02  0.3079E+03
     15.452  0.3931E+02  0.3124E+03
     15.565  0.3895E+02  0.3168E+03
     15.677  0.2547E+02  0.3196E+03
     15.790  0.3672E+02  0.3238E+03
     15.902  0.4153E+02  0.3284E+03
     16.015  0.3107E+02  0.3319E+03
     16.127  0.2872E+02  0.3352E+03
     16.240  0.2884E+02  0.3384E+03
     16.353  0.2679E+02  0.3414E+03
     16.465  0.5098E+02  0.3472E+03
     16.578  0.3296E+02  0.3509E+03
     16.690  0.3114E+02  0.3544E+03
     16.803  0.4007E+02  0.3589E+03
     16.915  0.1872E+02  0.3610E+03
     17.028  0.1626E+02  0.3628E+03
     17.141  0.2515E+02  0.3657E+03
     17.253  0.2978E+02  0.3690E+03
     17.366  0.3269E+02  0.3727E+03
     17.478  0.3070E+02  0.3761E+03
     17.591  0.2749E+02  0.3792E+03
     17.703  0.1514E+02  0.3809E+03
     17.816  0.7551E+01  0.3818E+03
     17.929  0.3933E+01  0.3822E+03
     18.041  0.5204E+01  0.3828E+03
     18.154  0.4031E+01  0.3833E+03
     18.266  0.1429E+01  0.3834E+03
     18.379  0.1813E+01  0.3836E+03
     18.491  0.9937E+00  0.3837E+03
     18.604  0.5972E-02  0.3837E+03
     18.717  0.3305E-03  0.3838E+03
     18.829  0.3717E+00  0.3838E+03
     18.942  0.1748E+01  0.3840E+03
     19.054  0.1012E+00  0.3840E+03
     19.167  0.1563E-04  0.3840E+03
     19.279  0.2923E-11  0.3840E+03
     19.392  0.0000E+00  0.3840E+03
     19.505  0.0000E+00  0.3840E+03
     19.617  0.0000E+00  0.3840E+03
     19.730  0.0000E+00  0.3840E+03
     19.842  0.0000E+00  0.3840E+03
     19.955  0.0000E+00  0.3840E+03
     20.067  0.0000E+00  0.3840E+03
     20.180  0.0000E+00  0.3840E+03
     20.293  0.0000E+00  0.3840E+03
     20.405  0.0000E+00  0.3840E+03
