       N       E                     dE             d eps       ncg     rms          rms(c)
DAV:   1     0.495735050651E+03    0.49574E+03   -0.11180E+05  6912   0.105E+03
DAV:   2    -0.544954784624E+03   -0.10407E+04   -0.98956E+03  9216   0.224E+02
DAV:   3    -0.588148766922E+03   -0.43194E+02   -0.42914E+02  9184   0.428E+01
DAV:   4    -0.588701924804E+03   -0.55316E+00   -0.55226E+00  9408   0.524E+00
DAV:   5    -0.588712067030E+03   -0.10142E-01   -0.10139E-01  8640   0.692E-01    0.233E+01
DAV:   6    -0.578381099691E+03    0.10331E+02   -0.70174E+00  8224   0.514E+00    0.131E+01
DAV:   7    -0.574882143307E+03    0.34990E+01   -0.83256E+00  8160   0.577E+00    0.184E+00
DAV:   8    -0.574929840408E+03   -0.47697E-01   -0.19664E-01  8832   0.869E-01    0.199E-01
DAV:   9    -0.574932021154E+03   -0.21807E-02   -0.37003E-03  8992   0.141E-01    0.751E-02
DAV:  10    -0.574932481941E+03   -0.46079E-03   -0.46233E-04  8544   0.548E-02    0.782E-03
DAV:  11    -0.574932484305E+03   -0.23640E-05   -0.11769E-05  9120   0.744E-03    0.212E-03
DAV:  12    -0.574932484896E+03   -0.59105E-06   -0.66199E-07  8800   0.188E-03    0.197E-04
DAV:  13    -0.574932485036E+03   -0.13965E-06   -0.12889E-08  6976   0.261E-04    0.857E-05
DAV:  14    -0.574932485028E+03    0.82564E-08   -0.22221E-09  6144   0.110E-04
   1 F= -.57493249E+03 E0= -.57493249E+03  d E =-.193537E-17
 Linear response reoptimize wavefunctions
DAV:   1    -0.574932485030E+03   -0.20109E-08   -0.48273E-10  5568   0.488E-05
DAV:   2    -0.574932485030E+03    0.54570E-10   -0.12835E-10  5344   0.242E-05
 Linear response DOF=           2
 Linear response progress:
  Degree of freedom:   1/  2
       N       E                     dE             d eps       ncg     rms          rms(c)
RMM:   1    -0.138348269386E+00   -0.13835E+00    0.13368E-02 31911   0.701E-01
RMM:   2    -0.119799316427E+00    0.18549E-01   -0.70911E-03 19736   0.181E-01    0.154E-01
RMM:   3    -0.119743150697E+00    0.56166E-04   -0.64833E-04 20655   0.425E-02    0.803E-02
RMM:   4    -0.119929974871E+00   -0.18682E-03   -0.16387E-04 20800   0.223E-02    0.256E-02
RMM:   5    -0.119988837858E+00   -0.58863E-04   -0.12437E-05 20944   0.672E-03    0.606E-03
RMM:   6    -0.119970516097E+00    0.18322E-04   -0.79089E-07 21268   0.183E-03    0.131E-03
RMM:   7    -0.119961628479E+00    0.88876E-05   -0.67997E-08 21421   0.637E-04    0.356E-04
RMM:   8    -0.119961275041E+00    0.35344E-06    0.17766E-07 22232   0.266E-04    0.919E-05
RMM:   9    -0.119961034016E+00    0.24102E-06    0.33182E-08 23534   0.181E-04    0.394E-05
RMM:  10    -0.119961157141E+00   -0.12312E-06   -0.64423E-08 24331   0.168E-04    0.129E-05
RMM:  11    -0.119961162925E+00   -0.57843E-08   -0.18437E-08 24557   0.165E-04    0.526E-06
 Linear response progress:
  Degree of freedom:   2/  2
       N       E                     dE             d eps       ncg     rms          rms(c)
RMM:   1    -0.136909415203E+00   -0.13691E+00    0.12730E-02 21961   0.689E-01
RMM:   2    -0.119964109573E+00    0.16945E-01   -0.68514E-03 13778   0.173E-01    0.149E-01
RMM:   3    -0.119954298361E+00    0.98112E-05   -0.57316E-04 14346   0.400E-02    0.786E-02
RMM:   4    -0.120153365556E+00   -0.19907E-03   -0.15821E-04 14469   0.218E-02    0.239E-02
RMM:   5    -0.120205016861E+00   -0.51651E-04   -0.10018E-05 14639   0.608E-03    0.598E-03
RMM:   6    -0.120185836881E+00    0.19180E-04   -0.81158E-07 14835   0.184E-03    0.121E-03
RMM:   7    -0.120178141745E+00    0.76951E-05   -0.21168E-09 15025   0.565E-04    0.349E-04
RMM:   8    -0.120177617394E+00    0.52435E-06    0.27318E-07 15509   0.250E-04    0.876E-05
RMM:   9    -0.120177439308E+00    0.17809E-06    0.22731E-08 16363   0.162E-04    0.378E-05
RMM:  10    -0.120177540303E+00   -0.10100E-06   -0.18838E-08 16866   0.151E-04    0.118E-05
RMM:  11    -0.120177536475E+00    0.38277E-08    0.14128E-08 17030   0.148E-04    0.509E-06
 Linear response finished
