 vasp.5.4.4.18Apr17-6-g9f103f2a35 (build Mar 12 2022 03:36:41) complex          
  
 executed on IFC19.0.3.199_CrayMP date 2022.12.02  12:01:43
 running on   32 total cores
 distrk:  each k-point on   32 cores,    1 groups
 distr:  one band on NCORES_PER_BAND=   1 cores,   32 groups


--------------------------------------------------------------------------------------------------------


 INCAR:
 POTCAR:   PAW_PBE C 08Apr2002                    

 ----------------------------------------------------------------------------- 
|                                                                             |
|           W    W    AA    RRRRR   N    N  II  N    N   GGGG   !!!           |
|           W    W   A  A   R    R  NN   N  II  NN   N  G    G  !!!           |
|           W    W  A    A  R    R  N N  N  II  N N  N  G       !!!           |
|           W WW W  AAAAAA  RRRRR   N  N N  II  N  N N  G  GGG   !            |
|           WW  WW  A    A  R   R   N   NN  II  N   NN  G    G                |
|           W    W  A    A  R    R  N    N  II  N    N   GGGG   !!!           |
|                                                                             |
|      For optimal performance we recommend to set                            |
|        NCORE= 4 - approx SQRT( number of cores)                             |
|      NCORE specifies how many cores store one orbital (NPAR=cpu/NCORE).     |
|      This setting can  greatly improve the performance of VASP for DFT.     |
|      The default,   NCORE=1            might be grossly inefficient         |
|      on modern multi-core architectures or massively parallel machines.     |
|      Do your own testing !!!!                                               |
|      Unfortunately you need to use the default for GW and RPA calculations. |
|      (for HF NCORE is supported but not extensively tested yet)             |
|                                                                             |
 ----------------------------------------------------------------------------- 

 POTCAR:   PAW_PBE C 08Apr2002                    
   VRHFIN =C: s2p2                                                              
   LEXCH  = PE                                                                  
   EATOM  =   147.1560 eV,   10.8157 Ry                                         
                                                                                
   TITEL  = PAW_PBE C 08Apr2002                                                 
   LULTRA =        F    use ultrasoft PP ?                                      
   IUNSCR =        0    unscreen: 0-lin 1-nonlin 2-no                           
   RPACOR =     .000    partial core radius                                     
   POMASS =   12.011; ZVAL   =    4.000    mass and valenz                      
   RCORE  =    1.500    outmost cutoff radius                                   
   RWIGS  =    1.630; RWIGS  =     .863    wigner-seitz radius (au A)           
   ENMAX  =  400.000; ENMIN  =  300.000 eV                                      
   ICORE  =        2    local potential                                         
   LCOR   =        T    correct aug charges                                     
   LPAW   =        T    paw PP                                                  
   EAUG   =  644.873                                                            
   DEXC   =     .000                                                            
   RMAX   =    2.266    core radius for proj-oper                               
   RAUG   =    1.300    factor for augmentation sphere                          
   RDEP   =    1.501    radius for radial grids                                 
   RDEPT  =    1.300    core radius for aug-charge                              
   QCUT   =   -5.516; QGAM   =   11.032    optimization parameters              
                                                                                
   Description                                                                  
     l     E      TYP  RCUT    TYP  RCUT                                        
     0   .000     23  1.200                                                     
     0   .000     23  1.200                                                     
     1   .000     23  1.500                                                     
     1  2.500     23  1.500                                                     
     2   .000      7  1.500                                                     
  local pseudopotential read in
  atomic valenz-charges read in
  non local Contribution for L=           0  read in
    real space projection operators read in
  non local Contribution for L=           0  read in
    real space projection operators read in
  non local Contribution for L=           1  read in
    real space projection operators read in
  non local Contribution for L=           1  read in
    real space projection operators read in
    PAW grid and wavefunctions read in
 
   number of l-projection  operators is LMAX  =           4
   number of lm-projection operators is LMMAX =           8
 

 ----------------------------------------------------------------------------- 
|                                                                             |
|  ADVICE TO THIS USER RUNNING 'VASP/VAMP'   (HEAR YOUR MASTER'S VOICE ...):  |
|                                                                             |
|      You have a (more or less) 'large supercell' and for larger cells       |
|      it might be more efficient to use real space projection operators      |
|      So try LREAL= Auto  in the INCAR   file.                               |
|      Mind: If you want to do a very accurate calculations keep the          |
|      reciprocal projection scheme          (i.e. LREAL=.FALSE.)             |
|                                                                             |
 ----------------------------------------------------------------------------- 

 PAW_PBE C 08Apr2002                    :
 energy of atom  1       EATOM= -147.1560
 kinetic energy error for atom=    0.0288 (will be added to EATOM!!)
 
 
 POSCAR: generated by phonopy                    
  positions in direct lattice
  No initial velocities read in
 exchange correlation table for  LEXCH =        8
   RHO(1)=    0.500       N(1)  =     2000
   RHO(2)=  100.500       N(2)  =     4000
 


--------------------------------------------------------------------------------------------------------


 ion  position               nearest neighbor table
   1  0.125  0.375  0.125-  11 1.61  25 1.61  43 1.61  57 1.61
   2  0.625  0.375  0.125-  12 1.61  26 1.61  44 1.61  58 1.61
   3  0.125  0.875  0.125-   9 1.61  27 1.61  41 1.61  59 1.61
   4  0.625  0.875  0.125-  10 1.61  28 1.61  42 1.61  60 1.61
   5  0.125  0.375  0.625-  15 1.61  29 1.61  47 1.61  61 1.61
   6  0.625  0.375  0.625-  16 1.61  30 1.61  48 1.61  62 1.61
   7  0.125  0.875  0.625-  13 1.61  31 1.61  45 1.61  63 1.61
   8  0.625  0.875  0.625-  14 1.61  32 1.61  46 1.61  64 1.61
   9  0.000  0.000  0.250-   3 1.61  17 1.61  36 1.61  50 1.61
  10  0.500  0.000  0.250-   4 1.61  18 1.61  35 1.61  49 1.61
  11  0.000  0.500  0.250-   1 1.61  19 1.61  34 1.61  52 1.61
  12  0.500  0.500  0.250-   2 1.61  20 1.61  33 1.61  51 1.61
  13  0.000  0.000  0.750-   7 1.61  21 1.61  40 1.61  54 1.61
  14  0.500  0.000  0.750-   8 1.61  22 1.61  39 1.61  53 1.61
  15  0.000  0.500  0.750-   5 1.61  23 1.61  38 1.61  56 1.61
  16  0.500  0.500  0.750-   6 1.61  24 1.61  37 1.61  55 1.61
  17  0.125  0.125  0.375-   9 1.61  29 1.61  45 1.61  57 1.61
  18  0.625  0.125  0.375-  10 1.61  30 1.61  46 1.61  58 1.61
  19  0.125  0.625  0.375-  11 1.61  31 1.61  47 1.61  59 1.61
  20  0.625  0.625  0.375-  12 1.61  32 1.61  48 1.61  60 1.61
  21  0.125  0.125  0.875-  13 1.61  25 1.61  41 1.61  61 1.61
  22  0.625  0.125  0.875-  14 1.61  26 1.61  42 1.61  62 1.61
  23  0.125  0.625  0.875-  15 1.61  27 1.61  43 1.61  63 1.61
  24  0.625  0.625  0.875-  16 1.61  28 1.61  44 1.61  64 1.61
  25  0.000  0.250  0.000-   1 1.61  21 1.61  38 1.61  50 1.61
  26  0.500  0.250  0.000-   2 1.61  22 1.61  37 1.61  49 1.61
  27  0.000  0.750  0.000-   3 1.61  23 1.61  40 1.61  52 1.61
  28  0.500  0.750  0.000-   4 1.61  24 1.61  39 1.61  51 1.61
  29  0.000  0.250  0.500-   5 1.61  17 1.61  34 1.61  54 1.61
  30  0.500  0.250  0.500-   6 1.61  18 1.61  33 1.61  53 1.61
  31  0.000  0.750  0.500-   7 1.61  19 1.61  36 1.61  56 1.61
  32  0.500  0.750  0.500-   8 1.61  20 1.61  35 1.61  55 1.61
  33  0.375  0.375  0.375-  12 1.61  30 1.61  47 1.61  57 1.61
  34  0.875  0.375  0.375-  11 1.61  29 1.61  48 1.61  58 1.61
  35  0.375  0.875  0.375-  10 1.61  32 1.61  45 1.61  59 1.61
  36  0.875  0.875  0.375-   9 1.61  31 1.61  46 1.61  60 1.61
  37  0.375  0.375  0.875-  16 1.61  26 1.61  43 1.61  61 1.61
  38  0.875  0.375  0.875-  15 1.61  25 1.61  44 1.61  62 1.61
  39  0.375  0.875  0.875-  14 1.61  28 1.61  41 1.61  63 1.61
  40  0.875  0.875  0.875-  13 1.61  27 1.61  42 1.61  64 1.61
  41  0.250  0.000  0.000-   3 1.61  21 1.61  39 1.61  49 1.61
  42  0.750  0.000  0.000-   4 1.61  22 1.61  40 1.61  50 1.61
  43  0.250  0.500  0.000-   1 1.61  23 1.61  37 1.61  51 1.61
  44  0.750  0.500  0.000-   2 1.61  24 1.61  38 1.61  52 1.61
  45  0.250  0.000  0.500-   7 1.61  17 1.61  35 1.61  53 1.61
  46  0.750  0.000  0.500-   8 1.61  18 1.61  36 1.61  54 1.61
  47  0.250  0.500  0.500-   5 1.61  19 1.61  33 1.61  55 1.61
  48  0.750  0.500  0.500-   6 1.61  20 1.61  34 1.61  56 1.61
  49  0.375  0.125  0.125-  10 1.61  26 1.61  41 1.61  57 1.61
  50  0.875  0.125  0.125-   9 1.61  25 1.61  42 1.61  58 1.61
  51  0.375  0.625  0.125-  12 1.61  28 1.61  43 1.61  59 1.61
  52  0.875  0.625  0.125-  11 1.61  27 1.61  44 1.61  60 1.61
  53  0.375  0.125  0.625-  14 1.61  30 1.61  45 1.61  61 1.61
  54  0.875  0.125  0.625-  13 1.61  29 1.61  46 1.61  62 1.61
  55  0.375  0.625  0.625-  16 1.61  32 1.61  47 1.61  63 1.61
  56  0.875  0.625  0.625-  15 1.61  31 1.61  48 1.61  64 1.61
  57  0.250  0.250  0.250-   1 1.61  17 1.61  33 1.61  49 1.61
  58  0.750  0.250  0.250-   2 1.61  18 1.61  34 1.61  50 1.61
  59  0.250  0.750  0.250-   3 1.61  19 1.61  35 1.61  51 1.61
  60  0.750  0.750  0.250-   4 1.61  20 1.61  36 1.61  52 1.61
  61  0.250  0.250  0.750-   5 1.61  21 1.61  37 1.61  53 1.61
  62  0.750  0.250  0.750-   6 1.61  22 1.61  38 1.61  54 1.61
  63  0.250  0.750  0.750-   7 1.61  23 1.61  39 1.61  55 1.61
  64  0.750  0.750  0.750-   8 1.61  24 1.61  40 1.61  56 1.61
 
  LATTYP: Found a simple tetragonal cell.
 ALAT       =     7.5304468506
 C/A-ratio  =     0.9534625050
  
  Lattice vectors:
  
 A1 = (   7.5304468506,   0.0000000000,   0.0000000000)
 A2 = (   0.0000000000,   7.5304468506,   0.0000000000)
 A3 = (   0.0000000000,   0.0000000000,   7.1799987179)


Analysis of symmetry for initial positions (statically):
=====================================================================
 Subroutine PRICEL returns following result:
 
  LATTYP: Found a body centered tetragonal cell.
 ALAT       =     2.6624150167
 C/A-ratio  =     1.3483996058
  
  Lattice vectors:
  
 A1 = (   1.8826117127,   0.0000000000,   1.7949996795)
 A2 = (  -1.8826117127,   0.0000000000,   1.7949996795)
 A3 = (   0.0000000000,  -1.8826117127,  -1.7949996795)
 
  32 primitive cells build up your supercell.
 

 Routine SETGRP: Setting up the symmetry group for a 
 simple tetragonal supercell.


 Subroutine GETGRP returns: Found 16 space group operations
 (whereof  8 operations were pure point group operations)
 out of a pool of 16 trial point group operations.


The static configuration has the point symmetry D_2d.
 The point group associated with its full space group is D_4h.


Analysis of symmetry for dynamics (positions and initial velocities):
=====================================================================
 Subroutine PRICEL returns following result:
 
  LATTYP: Found a body centered tetragonal cell.
 ALAT       =     2.6624150167
 C/A-ratio  =     1.3483996058
  
  Lattice vectors:
  
 A1 = (   1.8826117127,   0.0000000000,   1.7949996795)
 A2 = (  -1.8826117127,   0.0000000000,   1.7949996795)
 A3 = (   0.0000000000,  -1.8826117127,  -1.7949996795)
 
  32 primitive cells build up your supercell.
 

 Routine SETGRP: Setting up the symmetry group for a 
 simple tetragonal supercell.


 Subroutine GETGRP returns: Found 16 space group operations
 (whereof  8 operations were pure point group operations)
 out of a pool of 16 trial point group operations.


The dynamic configuration has the point symmetry D_2d.
 The point group associated with its full space group is D_4h.


 Subroutine INISYM returns: Found 16 space group operations
 (whereof  8 operations are pure point group operations),
 and found    32 'primitive' translations

 
 
 KPOINTS: kpt_density=3000                        

Automatic generation of k-mesh.
Space group operators:
 irot       det(A)        alpha          n_x          n_y          n_z        tau_x        tau_y        tau_z
    1     1.000000     0.000001     1.000000     0.000000     0.000000     0.000000     0.000000     0.000000
    2    -1.000000    90.000000     0.000000     0.000000    -1.000000     0.000000     0.000000     0.000000
    3     1.000000   180.000000     0.000000     0.000000     1.000000     0.000000     0.000000     0.000000
    4    -1.000000    90.000000     0.000000     0.000000     1.000000     0.000000     0.000000     0.000000
    5     1.000000   179.999999     0.000000     1.000000     0.000000     0.000000     0.000000     0.000000
    6    -1.000000   179.999999     0.707107     0.707107     0.000000     0.000000     0.000000     0.000000
    7     1.000000   179.999999     1.000000     0.000000     0.000000     0.000000     0.000000     0.000000
    8    -1.000000   179.999999     0.707107    -0.707107     0.000000     0.000000     0.000000     0.000000
    9    -1.000000     0.000001     1.000000     0.000000     0.000000    -0.125000    -0.125000     0.125000
   10     1.000000    90.000000     0.000000     0.000000    -1.000000    -0.125000    -0.125000     0.125000
   11    -1.000000   180.000000     0.000000     0.000000     1.000000    -0.125000    -0.125000     0.125000
   12     1.000000    90.000000     0.000000     0.000000     1.000000    -0.125000    -0.125000     0.125000
   13    -1.000000   179.999999     0.000000     1.000000     0.000000    -0.125000    -0.125000     0.125000
   14     1.000000   179.999999     0.707107     0.707107     0.000000    -0.125000    -0.125000     0.125000
   15    -1.000000   179.999999     1.000000     0.000000     0.000000    -0.125000    -0.125000     0.125000
   16     1.000000   179.999999     0.707107    -0.707107     0.000000    -0.125000    -0.125000     0.125000
 
 Subroutine IBZKPT returns following result:
 ===========================================
 
 Found     18 irreducible k-points:
 
 Following reciprocal coordinates:
            Coordinates               Weight
  0.000000  0.000000  0.000000      1.000000
  0.250000  0.000000  0.000000      4.000000
  0.500000  0.000000  0.000000      2.000000
  0.250000  0.250000  0.000000      4.000000
  0.500000  0.250000  0.000000      4.000000
  0.500000  0.500000  0.000000      1.000000
  0.000000  0.000000  0.250000      2.000000
  0.250000  0.000000  0.250000      8.000000
  0.500000  0.000000  0.250000      4.000000
  0.250000  0.250000  0.250000      8.000000
  0.500000  0.250000  0.250000      8.000000
  0.500000  0.500000  0.250000      2.000000
  0.000000  0.000000  0.500000      1.000000
  0.250000  0.000000  0.500000      4.000000
  0.500000  0.000000  0.500000      2.000000
  0.250000  0.250000  0.500000      4.000000
  0.500000  0.250000  0.500000      4.000000
  0.500000  0.500000  0.500000      1.000000
 
 Following cartesian coordinates:
            Coordinates               Weight
  0.000000  0.000000  0.000000      1.000000
  0.033199  0.000000  0.000000      4.000000
  0.066397  0.000000  0.000000      2.000000
  0.033199  0.033199  0.000000      4.000000
  0.066397  0.033199  0.000000      4.000000
  0.066397  0.066397  0.000000      1.000000
  0.000000  0.000000  0.034819      2.000000
  0.033199  0.000000  0.034819      8.000000
  0.066397  0.000000  0.034819      4.000000
  0.033199  0.033199  0.034819      8.000000
  0.066397  0.033199  0.034819      8.000000
  0.066397  0.066397  0.034819      2.000000
  0.000000  0.000000  0.069638      1.000000
  0.033199  0.000000  0.069638      4.000000
  0.066397  0.000000  0.069638      2.000000
  0.033199  0.033199  0.069638      4.000000
  0.066397  0.033199  0.069638      4.000000
  0.066397  0.066397  0.069638      1.000000
 
 
 Subroutine IBZKPT_HF returns following result:
 ==============================================
 
 Found     64 k-points in 1st BZ
 the following     64 k-points will be used (e.g. in the exchange kernel)
 Following reciprocal coordinates:   # in IRBZ
  0.000000  0.000000  0.000000    0.01562500   1 t-inv F
  0.250000  0.000000  0.000000    0.01562500   2 t-inv F
  0.500000  0.000000  0.000000    0.01562500   3 t-inv F
  0.250000  0.250000  0.000000    0.01562500   4 t-inv F
  0.500000  0.250000  0.000000    0.01562500   5 t-inv F
  0.500000  0.500000  0.000000    0.01562500   6 t-inv F
  0.000000  0.000000  0.250000    0.01562500   7 t-inv F
  0.250000  0.000000  0.250000    0.01562500   8 t-inv F
  0.500000  0.000000  0.250000    0.01562500   9 t-inv F
  0.250000  0.250000  0.250000    0.01562500  10 t-inv F
  0.500000  0.250000  0.250000    0.01562500  11 t-inv F
  0.500000  0.500000  0.250000    0.01562500  12 t-inv F
  0.000000  0.000000  0.500000    0.01562500  13 t-inv F
  0.250000  0.000000  0.500000    0.01562500  14 t-inv F
  0.500000  0.000000  0.500000    0.01562500  15 t-inv F
  0.250000  0.250000  0.500000    0.01562500  16 t-inv F
  0.500000  0.250000  0.500000    0.01562500  17 t-inv F
  0.500000  0.500000  0.500000    0.01562500  18 t-inv F
  0.000000 -0.250000  0.000000    0.01562500   2 t-inv F
 -0.250000  0.000000  0.000000    0.01562500   2 t-inv F
  0.000000  0.250000  0.000000    0.01562500   2 t-inv F
  0.000000 -0.500000  0.000000    0.01562500   3 t-inv F
  0.250000 -0.250000  0.000000    0.01562500   4 t-inv F
 -0.250000 -0.250000  0.000000    0.01562500   4 t-inv F
 -0.250000  0.250000  0.000000    0.01562500   4 t-inv F
  0.250000 -0.500000  0.000000    0.01562500   5 t-inv F
 -0.500000 -0.250000  0.000000    0.01562500   5 t-inv F
 -0.250000  0.500000  0.000000    0.01562500   5 t-inv F
  0.000000  0.000000 -0.250000    0.01562500   7 t-inv F
  0.000000 -0.250000 -0.250000    0.01562500   8 t-inv F
 -0.250000  0.000000  0.250000    0.01562500   8 t-inv F
  0.000000  0.250000 -0.250000    0.01562500   8 t-inv F
 -0.250000  0.000000 -0.250000    0.01562500   8 t-inv F
  0.000000 -0.250000  0.250000    0.01562500   8 t-inv F
  0.250000  0.000000 -0.250000    0.01562500   8 t-inv F
  0.000000  0.250000  0.250000    0.01562500   8 t-inv F
  0.000000 -0.500000 -0.250000    0.01562500   9 t-inv F
 -0.500000  0.000000 -0.250000    0.01562500   9 t-inv F
  0.000000 -0.500000  0.250000    0.01562500   9 t-inv F
  0.250000 -0.250000 -0.250000    0.01562500  10 t-inv F
 -0.250000 -0.250000  0.250000    0.01562500  10 t-inv F
 -0.250000  0.250000 -0.250000    0.01562500  10 t-inv F
 -0.250000 -0.250000 -0.250000    0.01562500  10 t-inv F
 -0.250000  0.250000  0.250000    0.01562500  10 t-inv F
  0.250000  0.250000 -0.250000    0.01562500  10 t-inv F
  0.250000 -0.250000  0.250000    0.01562500  10 t-inv F
  0.250000 -0.500000 -0.250000    0.01562500  11 t-inv F
 -0.500000 -0.250000  0.250000    0.01562500  11 t-inv F
 -0.250000  0.500000 -0.250000    0.01562500  11 t-inv F
 -0.500000  0.250000 -0.250000    0.01562500  11 t-inv F
 -0.250000 -0.500000  0.250000    0.01562500  11 t-inv F
  0.500000 -0.250000 -0.250000    0.01562500  11 t-inv F
  0.250000  0.500000  0.250000    0.01562500  11 t-inv F
  0.500000 -0.500000 -0.250000    0.01562500  12 t-inv F
  0.000000 -0.250000 -0.500000    0.01562500  14 t-inv F
 -0.250000  0.000000  0.500000    0.01562500  14 t-inv F
  0.000000  0.250000 -0.500000    0.01562500  14 t-inv F
  0.000000 -0.500000 -0.500000    0.01562500  15 t-inv F
  0.250000 -0.250000 -0.500000    0.01562500  16 t-inv F
 -0.250000 -0.250000  0.500000    0.01562500  16 t-inv F
 -0.250000  0.250000 -0.500000    0.01562500  16 t-inv F
  0.250000 -0.500000 -0.500000    0.01562500  17 t-inv F
 -0.500000 -0.250000  0.500000    0.01562500  17 t-inv F
 -0.250000  0.500000 -0.500000    0.01562500  17 t-inv F


--------------------------------------------------------------------------------------------------------




 Dimension of arrays:
   k-points           NKPTS =     18   k-points in BZ     NKDIM =     18   number of bands    NBANDS=    192
   number of dos      NEDOS =    301   number of ions     NIONS =     64
   non local maximal  LDIM  =      4   non local SUM 2l+1 LMDIM =      8
   total plane-waves  NPLWV = 120000
   max r-space proj   IRMAX =      1   max aug-charges    IRDMAX=  28020
   dimension x,y,z NGX =    50 NGY =   50 NGZ =   48
   dimension x,y,z NGXF=   100 NGYF=  100 NGZF=   96
   support grid    NGXF=   200 NGYF=  200 NGZF=  192
   ions per type =              64
   NGX,Y,Z   is equivalent  to a cutoff of  11.04, 11.04, 11.11 a.u.
   NGXF,Y,Z  is equivalent  to a cutoff of  22.08, 22.08, 22.23 a.u.

 SYSTEM =  unknown system                          
 POSCAR =  generated by phonopy                    

 Startparameter for this run:
   NWRITE =      2    write-flag & timer
   PREC   = accura    normal or accurate (medium, high low for compatibility)
   ISTART =      0    job   : 0-new  1-cont  2-samecut
   ICHARG =      2    charge: 1-file 2-atom 10-const
   ISPIN  =      1    spin polarized calculation?
   LNONCOLLINEAR =      F non collinear calculations
   LSORBIT =      F    spin-orbit coupling
   INIWAV =      1    electr: 0-lowe 1-rand  2-diag
   LASPH  =      F    aspherical Exc in radial PAW
   METAGGA=      F    non-selfconsistent MetaGGA calc.

 Electronic Relaxation 1
   ENCUT  =  400.0 eV  29.40 Ry    5.42 a.u.  12.28 12.28 11.71*2*pi/ulx,y,z
   ENINI  =  400.0     initial cutoff
   ENAUG  =  644.9 eV  augmentation charge cutoff
   NELM   =     60;   NELMIN=  2; NELMDL= -5     # of ELM steps 
   EDIFF  = 0.1E-07   stopping-criterion for ELM
   LREAL  =      F    real-space projection
   NLSPLINE    = F    spline interpolate recip. space projectors
   LCOMPAT=      F    compatible to vasp.4.4
   GGA_COMPAT  = T    GGA compatible to vasp.4.4-vasp.4.6
   LMAXPAW     = -100 max onsite density
   LMAXMIX     =    2 max onsite mixed and CHGCAR
   VOSKOWN=      0    Vosko Wilk Nusair interpolation
   ROPT   =    0.00000
 Ionic relaxation
   EDIFFG = 0.1E-06   stopping-criterion for IOM
   NSW    =      1    number of steps for IOM
   NBLOCK =      1;   KBLOCK =      1    inner block; outer block 
   IBRION =      8    ionic relax: 0-MD 1-quasi-New 2-CG
   NFREE  =      0    steps in history (QN), initial steepest desc. (CG)
   ISIF   =      2    stress and relaxation
   IWAVPR =     11    prediction:  0-non 1-charg 2-wave 3-comb
   ISYM   =      2    0-nonsym 1-usesym 2-fastsym
   LCORR  =      T    Harris-Foulkes like correction to forces

   POTIM  = 0.5000    time-step for ionic-motion
   TEIN   =    0.0    initial temperature
   TEBEG  =    0.0;   TEEND  =   0.0 temperature during run
   SMASS  =  -3.00    Nose mass-parameter (am)
   estimated Nose-frequenzy (Omega)   =  0.10E-29 period in steps =****** mass=  -0.130E-26a.u.
   SCALEE = 1.0000    scale energy and forces
   NPACO  =    256;   APACO  = 16.0  distance and # of slots for P.C.
   PSTRESS=    0.0 pullay stress

  Mass of Ions in am
   POMASS =  12.01
  Ionic Valenz
   ZVAL   =   4.00
  Atomic Wigner-Seitz radii
   RWIGS  =  -1.00
  virtual crystal weights 
   VCA    =   1.00
   NELECT =     256.0000    total number of electrons
   NUPDOWN=      -1.0000    fix difference up-down

 DOS related values:
   EMIN   =  10.00;   EMAX   =-10.00  energy-range for DOS
   EFERMI =   0.00
   ISMEAR =     0;   SIGMA  =   0.06  broadening in eV -4-tet -1-fermi 0-gaus

 Electronic relaxation 2 (details)
   IALGO  =     38    algorithm
   LDIAG  =      T    sub-space diagonalisation (order eigenvalues)
   LSUBROT=      F    optimize rotation matrix (better conditioning)
   TURBO    =      0    0=normal 1=particle mesh
   IRESTART =      0    0=no restart 2=restart with 2 vectors
   NREBOOT  =      0    no. of reboots
   NMIN     =      0    reboot dimension
   EREF     =   0.00    reference energy to select bands
   IMIX   =      4    mixing-type and parameters
     AMIX     =   0.40;   BMIX     =  1.00
     AMIX_MAG =   1.60;   BMIX_MAG =  1.00
     AMIN     =   0.10
     WC   =   100.;   INIMIX=   1;  MIXPRE=   1;  MAXMIX= -45

 Intra band minimization:
   WEIMIN = 0.0010     energy-eigenvalue tresh-hold
   EBREAK =  0.13E-10  absolut break condition
   DEPER  =   0.30     relativ break condition  

   TIME   =   0.40     timestep for ELM

  volume/ion in A,a.u.               =       6.36        42.93
  Fermi-wavevector in a.u.,A,eV,Ry     =   1.402489  2.650320 26.762333  1.966976
  Thomas-Fermi vector in A             =   2.525246
 
 Write flags
   LWAVE        =      F    write WAVECAR
   LDOWNSAMPLE  =      F    k-point downsampling of WAVECAR
   LCHARG       =      F    write CHGCAR
   LVTOT        =      F    write LOCPOT, total local potential
   LVHAR        =      F    write LOCPOT, Hartree potential only
   LELF         =      F    write electronic localiz. function (ELF)
   LORBIT       =      0    0 simple, 1 ext, 2 COOP (PROOUT), +10 PAW based schemes


 Dipole corrections
   LMONO  =      F    monopole corrections only (constant potential shift)
   LDIPOL =      F    correct potential (dipole corrections)
   IDIPOL =      0    1-x, 2-y, 3-z, 4-all directions 
   EPSILON=  1.0000000 bulk dielectric constant

 Exchange correlation treatment:
   GGA     =    --    GGA type
   LEXCH   =     8    internal setting for exchange type
   VOSKOWN=      0    Vosko Wilk Nusair interpolation
   LHFCALC =     F    Hartree Fock is set to
   LHFONE  =     F    Hartree Fock one center treatment
   AEXX    =    0.0000 exact exchange contribution

 Linear response parameters
   LEPSILON=     F    determine dielectric tensor
   LRPA    =     F    only Hartree local field effects (RPA)
   LNABLA  =     F    use nabla operator in PAW spheres
   LVEL    =     F    velocity operator in full k-point grid
   LINTERFAST=   F  fast interpolation
   KINTER  =     0    interpolate to denser k-point grid
   CSHIFT  =0.1000    complex shift for real part using Kramers Kronig
   OMEGAMAX=  -1.0    maximum frequency
   DEG_THRESHOLD= 0.2000000E-02 threshold for treating states as degnerate
   RTIME   =   -0.100 relaxation time in fs
  (WPLASMAI=    0.000 imaginary part of plasma frequency in eV, 0.658/RTIME)
   DFIELD  = 0.0000000 0.0000000 0.0000000 field for delta impulse in time
 
 Orbital magnetization related:
   ORBITALMAG=     F  switch on orbital magnetization
   LCHIMAG   =     F  perturbation theory with respect to B field
   DQ        =  0.001000  dq finite difference perturbation B field
   LLRAUG    =     F  two centre corrections for induced B field



--------------------------------------------------------------------------------------------------------


 linear response using symmetry
 charge density and potential will be updated during run
 non-spin polarized calculation
 Variant of blocked Davidson
 Davidson routine will perform the subspace rotation
 perform sub-space diagonalisation
    after iterative eigenvector-optimisation
 modified Broyden-mixing scheme, WC =      100.0
 initial mixing is a Kerker type mixing with AMIX =  0.4000 and BMIX =      1.0000
 Hartree-type preconditioning will be used
 using additional bands           64
 reciprocal scheme for non local part
 calculate Harris-corrections to forces 
   (improved forces if not selfconsistent)
 use gradient corrections 
 use of overlap-Matrix (Vanderbilt PP)
 Gauss-broadening in eV      SIGMA  =   0.06


--------------------------------------------------------------------------------------------------------


  energy-cutoff  :      400.00
  volume of cell :      407.16
      direct lattice vectors                 reciprocal lattice vectors
     7.530446851  0.000000000  0.000000000     0.132794244  0.000000000  0.000000000
     0.000000000  7.530446851  0.000000000     0.000000000  0.132794244  0.000000000
     0.000000000  0.000000000  7.179998718     0.000000000  0.000000000  0.139275791

  length of vectors
     7.530446851  7.530446851  7.179998718     0.132794244  0.132794244  0.139275791


 
 k-points in units of 2pi/SCALE and weight: kpt_density=3000                        
   0.00000000  0.00000000  0.00000000       0.016
   0.03319856  0.00000000  0.00000000       0.062
   0.06639712  0.00000000  0.00000000       0.031
   0.03319856  0.03319856  0.00000000       0.062
   0.06639712  0.03319856  0.00000000       0.062
   0.06639712  0.06639712  0.00000000       0.016
   0.00000000  0.00000000  0.03481895       0.031
   0.03319856  0.00000000  0.03481895       0.125
   0.06639712  0.00000000  0.03481895       0.062
   0.03319856  0.03319856  0.03481895       0.125
   0.06639712  0.03319856  0.03481895       0.125
   0.06639712  0.06639712  0.03481895       0.031
   0.00000000  0.00000000  0.06963790       0.016
   0.03319856  0.00000000  0.06963790       0.062
   0.06639712  0.00000000  0.06963790       0.031
   0.03319856  0.03319856  0.06963790       0.062
   0.06639712  0.03319856  0.06963790       0.062
   0.06639712  0.06639712  0.06963790       0.016
 
 k-points in reciprocal lattice and weights: kpt_density=3000                        
   0.00000000  0.00000000  0.00000000       0.016
   0.25000000  0.00000000  0.00000000       0.062
   0.50000000  0.00000000  0.00000000       0.031
   0.25000000  0.25000000  0.00000000       0.062
   0.50000000  0.25000000  0.00000000       0.062
   0.50000000  0.50000000  0.00000000       0.016
   0.00000000  0.00000000  0.25000000       0.031
   0.25000000  0.00000000  0.25000000       0.125
   0.50000000  0.00000000  0.25000000       0.062
   0.25000000  0.25000000  0.25000000       0.125
   0.50000000  0.25000000  0.25000000       0.125
   0.50000000  0.50000000  0.25000000       0.031
   0.00000000  0.00000000  0.50000000       0.016
   0.25000000  0.00000000  0.50000000       0.062
   0.50000000  0.00000000  0.50000000       0.031
   0.25000000  0.25000000  0.50000000       0.062
   0.50000000  0.25000000  0.50000000       0.062
   0.50000000  0.50000000  0.50000000       0.016
 
 position of ions in fractional coordinates (direct lattice) 
   0.12500000  0.37500000  0.12500000
   0.62500000  0.37500000  0.12500000
   0.12500000  0.87500000  0.12500000
   0.62500000  0.87500000  0.12500000
   0.12500000  0.37500000  0.62500000
   0.62500000  0.37500000  0.62500000
   0.12500000  0.87500000  0.62500000
   0.62500000  0.87500000  0.62500000
   0.00000000  0.00000000  0.25000000
   0.50000000  0.00000000  0.25000000
   0.00000000  0.50000000  0.25000000
   0.50000000  0.50000000  0.25000000
   0.00000000  0.00000000  0.75000000
   0.50000000  0.00000000  0.75000000
   0.00000000  0.50000000  0.75000000
   0.50000000  0.50000000  0.75000000
   0.12500000  0.12500000  0.37500000
   0.62500000  0.12500000  0.37500000
   0.12500000  0.62500000  0.37500000
   0.62500000  0.62500000  0.37500000
   0.12500000  0.12500000  0.87500000
   0.62500000  0.12500000  0.87500000
   0.12500000  0.62500000  0.87500000
   0.62500000  0.62500000  0.87500000
   0.00000000  0.25000000  0.00000000
   0.50000000  0.25000000  0.00000000
   0.00000000  0.75000000  0.00000000
   0.50000000  0.75000000  0.00000000
   0.00000000  0.25000000  0.50000000
   0.50000000  0.25000000  0.50000000
   0.00000000  0.75000000  0.50000000
   0.50000000  0.75000000  0.50000000
   0.37500000  0.37500000  0.37500000
   0.87500000  0.37500000  0.37500000
   0.37500000  0.87500000  0.37500000
   0.87500000  0.87500000  0.37500000
   0.37500000  0.37500000  0.87500000
   0.87500000  0.37500000  0.87500000
   0.37500000  0.87500000  0.87500000
   0.87500000  0.87500000  0.87500000
   0.25000000  0.00000000  0.00000000
   0.75000000  0.00000000  0.00000000
   0.25000000  0.50000000  0.00000000
   0.75000000  0.50000000  0.00000000
   0.25000000  0.00000000  0.50000000
   0.75000000  0.00000000  0.50000000
   0.25000000  0.50000000  0.50000000
   0.75000000  0.50000000  0.50000000
   0.37500000  0.12500000  0.12500000
   0.87500000  0.12500000  0.12500000
   0.37500000  0.62500000  0.12500000
   0.87500000  0.62500000  0.12500000
   0.37500000  0.12500000  0.62500000
   0.87500000  0.12500000  0.62500000
   0.37500000  0.62500000  0.62500000
   0.87500000  0.62500000  0.62500000
   0.25000000  0.25000000  0.25000000
   0.75000000  0.25000000  0.25000000
   0.25000000  0.75000000  0.25000000
   0.75000000  0.75000000  0.25000000
   0.25000000  0.25000000  0.75000000
   0.75000000  0.25000000  0.75000000
   0.25000000  0.75000000  0.75000000
   0.75000000  0.75000000  0.75000000
 
 position of ions in cartesian coordinates  (Angst):
   0.94130586  2.82391757  0.89749984
   4.70652928  2.82391757  0.89749984
   0.94130586  6.58914099  0.89749984
   4.70652928  6.58914099  0.89749984
   0.94130586  2.82391757  4.48749920
   4.70652928  2.82391757  4.48749920
   0.94130586  6.58914099  4.48749920
   4.70652928  6.58914099  4.48749920
   0.00000000  0.00000000  1.79499968
   3.76522343  0.00000000  1.79499968
   0.00000000  3.76522343  1.79499968
   3.76522343  3.76522343  1.79499968
   0.00000000  0.00000000  5.38499904
   3.76522343  0.00000000  5.38499904
   0.00000000  3.76522343  5.38499904
   3.76522343  3.76522343  5.38499904
   0.94130586  0.94130586  2.69249952
   4.70652928  0.94130586  2.69249952
   0.94130586  4.70652928  2.69249952
   4.70652928  4.70652928  2.69249952
   0.94130586  0.94130586  6.28249888
   4.70652928  0.94130586  6.28249888
   0.94130586  4.70652928  6.28249888
   4.70652928  4.70652928  6.28249888
   0.00000000  1.88261171  0.00000000
   3.76522343  1.88261171  0.00000000
   0.00000000  5.64783514  0.00000000
   3.76522343  5.64783514  0.00000000
   0.00000000  1.88261171  3.58999936
   3.76522343  1.88261171  3.58999936
   0.00000000  5.64783514  3.58999936
   3.76522343  5.64783514  3.58999936
   2.82391757  2.82391757  2.69249952
   6.58914099  2.82391757  2.69249952
   2.82391757  6.58914099  2.69249952
   6.58914099  6.58914099  2.69249952
   2.82391757  2.82391757  6.28249888
   6.58914099  2.82391757  6.28249888
   2.82391757  6.58914099  6.28249888
   6.58914099  6.58914099  6.28249888
   1.88261171  0.00000000  0.00000000
   5.64783514  0.00000000  0.00000000
   1.88261171  3.76522343  0.00000000
   5.64783514  3.76522343  0.00000000
   1.88261171  0.00000000  3.58999936
   5.64783514  0.00000000  3.58999936
   1.88261171  3.76522343  3.58999936
   5.64783514  3.76522343  3.58999936
   2.82391757  0.94130586  0.89749984
   6.58914099  0.94130586  0.89749984
   2.82391757  4.70652928  0.89749984
   6.58914099  4.70652928  0.89749984
   2.82391757  0.94130586  4.48749920
   6.58914099  0.94130586  4.48749920
   2.82391757  4.70652928  4.48749920
   6.58914099  4.70652928  4.48749920
   1.88261171  1.88261171  1.79499968
   5.64783514  1.88261171  1.79499968
   1.88261171  5.64783514  1.79499968
   5.64783514  5.64783514  1.79499968
   1.88261171  1.88261171  5.38499904
   5.64783514  1.88261171  5.38499904
   1.88261171  5.64783514  5.38499904
   5.64783514  5.64783514  5.38499904
 


--------------------------------------------------------------------------------------------------------


 k-point  1 :   0.0000 0.0000 0.0000  plane waves:    7399
 k-point  2 :   0.2500 0.0000 0.0000  plane waves:    7403
 k-point  3 :   0.5000 0.0000 0.0000  plane waves:    7388
 k-point  4 :   0.2500 0.2500 0.0000  plane waves:    7425
 k-point  5 :   0.5000 0.2500 0.0000  plane waves:    7408
 k-point  6 :   0.5000 0.5000 0.0000  plane waves:    7412
 k-point  7 :   0.0000 0.0000 0.2500  plane waves:    7415
 k-point  8 :   0.2500 0.0000 0.2500  plane waves:    7388
 k-point  9 :   0.5000 0.0000 0.2500  plane waves:    7390
 k-point 10 :   0.2500 0.2500 0.2500  plane waves:    7387
 k-point 11 :   0.5000 0.2500 0.2500  plane waves:    7398
 k-point 12 :   0.5000 0.5000 0.2500  plane waves:    7400
 k-point 13 :   0.0000 0.0000 0.5000  plane waves:    7432
 k-point 14 :   0.2500 0.0000 0.5000  plane waves:    7402
 k-point 15 :   0.5000 0.0000 0.5000  plane waves:    7404
 k-point 16 :   0.2500 0.2500 0.5000  plane waves:    7390
 k-point 17 :   0.5000 0.2500 0.5000  plane waves:    7392
 k-point 18 :   0.5000 0.5000 0.5000  plane waves:    7368

 maximum and minimum number of plane-waves per node :      7432     7368

 maximum number of plane-waves:      7432
 maximum index in each direction: 
   IXMAX=   12   IYMAX=   12   IZMAX=   11
   IXMIN=  -12   IYMIN=  -12   IZMIN=  -12


 serial   3D FFT for wavefunctions
 parallel 3D FFT for charge:
    minimum data exchange during FFTs selected (reduces bandwidth)


 total amount of memory used by VASP MPI-rank0    72285. kBytes
=======================================================================

   base      :      30000. kBytes
   nonl-proj :      16224. kBytes
   fftplans  :       5389. kBytes
   grid      :       6708. kBytes
   one-center:        196. kBytes
   wavefun   :      13768. kBytes
 
     INWAV:  cpu time    0.0004: real time    0.0005
 Broyden mixing: mesh for mixing (old mesh)
   NGX = 25   NGY = 25   NGZ = 23
  (NGX  =100   NGY  =100   NGZ  = 96)
  gives a total of  14375 points

 initial charge density was supplied:
 charge density of overlapping atoms calculated
 number of electron     256.0000000 magnetization 
 keeping initial charge density in first step


--------------------------------------------------------------------------------------------------------


 Maximum index for augmentation-charges         1982 (set IRDMAX)


--------------------------------------------------------------------------------------------------------


 First call to EWALD:  gamma=   0.239
 Maximum number of real-space cells 3x 3x 3
 Maximum number of reciprocal cells 3x 3x 3

    FEWALD:  cpu time    0.0084: real time    0.0084


--------------------------------------- Iteration      1(   1)  ---------------------------------------


    POTLOK:  cpu time    0.0768: real time    0.1596
    SETDIJ:  cpu time    0.0447: real time    0.0449
     EDDAV:  cpu time   12.1675: real time   12.1857
       DOS:  cpu time    0.0050: real time    0.0050
    --------------------------------------------
      LOOP:  cpu time   12.2942: real time   12.3953

 eigenvalue-minimisations  :  6912
 total energy-change (2. order) : 0.4957351E+03  (-0.1118016E+05)
 number of electron     256.0000000 magnetization 
 augmentation part      256.0000000 magnetization 

 Free energy of the ion-electron system (eV)
  ---------------------------------------------------
  alpha Z        PSCENC =       819.68309890
  Ewald energy   TEWEN  =    -10720.50894871
  -Hartree energ DENC   =      -645.49361412
  -exchange      EXHF   =         0.00000000
  -V(xc)+E(xc)   XCENC  =       892.49817411
  PAW double counting   =      2421.21235816    -2494.84305711
  entropy T*S    EENTRO =        -0.00357306
  eigenvalues    EBANDS =       807.04828470
  atomic energy  EATOM  =      9416.14232778
  Solvation  Ediel_sol  =         0.00000000
  ---------------------------------------------------
  free energy    TOTEN  =       495.73505065 eV

  energy without entropy =      495.73862371  energy(sigma->0) =      495.73683718


--------------------------------------------------------------------------------------------------------




--------------------------------------- Iteration      1(   2)  ---------------------------------------


     EDDAV:  cpu time   15.1650: real time   15.1662
       DOS:  cpu time    0.0028: real time    0.0028
    --------------------------------------------
      LOOP:  cpu time   15.1678: real time   15.1690

 eigenvalue-minimisations  :  9216
 total energy-change (2. order) :-0.1040690E+04  (-0.9895645E+03)
 number of electron     256.0000000 magnetization 
 augmentation part      256.0000000 magnetization 

 Free energy of the ion-electron system (eV)
  ---------------------------------------------------
  alpha Z        PSCENC =       819.68309890
  Ewald energy   TEWEN  =    -10720.50894871
  -Hartree energ DENC   =      -645.49361412
  -exchange      EXHF   =         0.00000000
  -V(xc)+E(xc)   XCENC  =       892.49817411
  PAW double counting   =      2421.21235816    -2494.84305711
  entropy T*S    EENTRO =        -0.00000000
  eigenvalues    EBANDS =      -233.64512363
  atomic energy  EATOM  =      9416.14232778
  Solvation  Ediel_sol  =         0.00000000
  ---------------------------------------------------
  free energy    TOTEN  =      -544.95478462 eV

  energy without entropy =     -544.95478462  energy(sigma->0) =     -544.95478462


--------------------------------------------------------------------------------------------------------




--------------------------------------- Iteration      1(   3)  ---------------------------------------


     EDDAV:  cpu time   15.3116: real time   15.3130
       DOS:  cpu time    0.0027: real time    0.0027
    --------------------------------------------
      LOOP:  cpu time   15.3143: real time   15.3157

 eigenvalue-minimisations  :  9184
 total energy-change (2. order) :-0.4319398E+02  (-0.4291421E+02)
 number of electron     256.0000000 magnetization 
 augmentation part      256.0000000 magnetization 

 Free energy of the ion-electron system (eV)
  ---------------------------------------------------
  alpha Z        PSCENC =       819.68309890
  Ewald energy   TEWEN  =    -10720.50894871
  -Hartree energ DENC   =      -645.49361412
  -exchange      EXHF   =         0.00000000
  -V(xc)+E(xc)   XCENC  =       892.49817411
  PAW double counting   =      2421.21235816    -2494.84305711
  entropy T*S    EENTRO =        -0.00000000
  eigenvalues    EBANDS =      -276.83910593
  atomic energy  EATOM  =      9416.14232778
  Solvation  Ediel_sol  =         0.00000000
  ---------------------------------------------------
  free energy    TOTEN  =      -588.14876692 eV

  energy without entropy =     -588.14876692  energy(sigma->0) =     -588.14876692


--------------------------------------------------------------------------------------------------------




--------------------------------------- Iteration      1(   4)  ---------------------------------------


     EDDAV:  cpu time   15.5981: real time   15.5995
       DOS:  cpu time    0.0026: real time    0.0026
    --------------------------------------------
      LOOP:  cpu time   15.6007: real time   15.6022

 eigenvalue-minimisations  :  9408
 total energy-change (2. order) :-0.5531579E+00  (-0.5522609E+00)
 number of electron     256.0000000 magnetization 
 augmentation part      256.0000000 magnetization 

 Free energy of the ion-electron system (eV)
  ---------------------------------------------------
  alpha Z        PSCENC =       819.68309890
  Ewald energy   TEWEN  =    -10720.50894871
  -Hartree energ DENC   =      -645.49361412
  -exchange      EXHF   =         0.00000000
  -V(xc)+E(xc)   XCENC  =       892.49817411
  PAW double counting   =      2421.21235816    -2494.84305711
  entropy T*S    EENTRO =        -0.00000000
  eigenvalues    EBANDS =      -277.39226381
  atomic energy  EATOM  =      9416.14232778
  Solvation  Ediel_sol  =         0.00000000
  ---------------------------------------------------
  free energy    TOTEN  =      -588.70192480 eV

  energy without entropy =     -588.70192480  energy(sigma->0) =     -588.70192480


--------------------------------------------------------------------------------------------------------




--------------------------------------- Iteration      1(   5)  ---------------------------------------


     EDDAV:  cpu time   14.4693: real time   14.4705
       DOS:  cpu time    0.0028: real time    0.0028
    CHARGE:  cpu time    0.4962: real time    0.4962
    MIXING:  cpu time    0.0040: real time    0.0040
    --------------------------------------------
      LOOP:  cpu time   14.9723: real time   14.9734

 eigenvalue-minimisations  :  8640
 total energy-change (2. order) :-0.1014223E-01  (-0.1013876E-01)
 number of electron     255.9999999 magnetization 
 augmentation part        5.5765901 magnetization 

 Broyden mixing:
  rms(total) = 0.23318E+01    rms(broyden)= 0.23315E+01
  rms(prec ) = 0.33246E+01
  weight for this iteration     100.00

 Free energy of the ion-electron system (eV)
  ---------------------------------------------------
  alpha Z        PSCENC =       819.68309890
  Ewald energy   TEWEN  =    -10720.50894871
  -Hartree energ DENC   =      -645.49361412
  -exchange      EXHF   =         0.00000000
  -V(xc)+E(xc)   XCENC  =       892.49817411
  PAW double counting   =      2421.21235816    -2494.84305711
  entropy T*S    EENTRO =        -0.00000000
  eigenvalues    EBANDS =      -277.40240604
  atomic energy  EATOM  =      9416.14232778
  Solvation  Ediel_sol  =         0.00000000
  ---------------------------------------------------
  free energy    TOTEN  =      -588.71206703 eV

  energy without entropy =     -588.71206703  energy(sigma->0) =     -588.71206703


--------------------------------------------------------------------------------------------------------




--------------------------------------- Iteration      1(   6)  ---------------------------------------


    POTLOK:  cpu time    0.0695: real time    0.0699
    SETDIJ:  cpu time    0.0438: real time    0.0438
     EDDAV:  cpu time   13.9213: real time   13.9222
       DOS:  cpu time    0.0027: real time    0.0027
    CHARGE:  cpu time    0.4988: real time    0.4988
    MIXING:  cpu time    0.0045: real time    0.0045
    --------------------------------------------
      LOOP:  cpu time   14.5407: real time   14.5419

 eigenvalue-minimisations  :  8224
 total energy-change (2. order) : 0.1033097E+02  (-0.7017436E+00)
 number of electron     255.9999999 magnetization 
 augmentation part        5.4612287 magnetization 

 Broyden mixing:
  rms(total) = 0.13054E+01    rms(broyden)= 0.13053E+01
  rms(prec ) = 0.18400E+01
  weight for this iteration     100.00

 eigenvalues of (default mixing * dielectric matrix)
  average eigenvalue GAMMA=   2.2159
  2.2159

 Free energy of the ion-electron system (eV)
  ---------------------------------------------------
  alpha Z        PSCENC =       819.68309890
  Ewald energy   TEWEN  =    -10720.50894871
  -Hartree energ DENC   =      -753.21008436
  -exchange      EXHF   =         0.00000000
  -V(xc)+E(xc)   XCENC  =       902.46316038
  PAW double counting   =      2989.57202065    -3066.39803199
  entropy T*S    EENTRO =        -0.00000000
  eigenvalues    EBANDS =      -166.12464234
  atomic energy  EATOM  =      9416.14232778
  Solvation  Ediel_sol  =         0.00000000
  ---------------------------------------------------
  free energy    TOTEN  =      -578.38109969 eV

  energy without entropy =     -578.38109969  energy(sigma->0) =     -578.38109969


--------------------------------------------------------------------------------------------------------




--------------------------------------- Iteration      1(   7)  ---------------------------------------


    POTLOK:  cpu time    0.0703: real time    0.0707
    SETDIJ:  cpu time    0.0433: real time    0.0433
     EDDAV:  cpu time   13.8290: real time   13.8299
       DOS:  cpu time    0.0027: real time    0.0027
    CHARGE:  cpu time    0.4976: real time    0.4976
    MIXING:  cpu time    0.0046: real time    0.0046
    --------------------------------------------
      LOOP:  cpu time   14.4475: real time   14.4488

 eigenvalue-minimisations  :  8160
 total energy-change (2. order) : 0.3498956E+01  (-0.8325555E+00)
 number of electron     255.9999999 magnetization 
 augmentation part        5.3406507 magnetization 

 Broyden mixing:
  rms(total) = 0.18395E+00    rms(broyden)= 0.18362E+00
  rms(prec ) = 0.22438E+00
  weight for this iteration     100.00

 eigenvalues of (default mixing * dielectric matrix)
  average eigenvalue GAMMA=   2.2686
  2.0058  2.5315

 Free energy of the ion-electron system (eV)
  ---------------------------------------------------
  alpha Z        PSCENC =       819.68309890
  Ewald energy   TEWEN  =    -10720.50894871
  -Hartree energ DENC   =      -892.49878813
  -exchange      EXHF   =         0.00000000
  -V(xc)+E(xc)   XCENC  =       915.57017392
  PAW double counting   =      3753.31951325    -3833.15932906
  entropy T*S    EENTRO =        -0.00000000
  eigenvalues    EBANDS =       -33.43019126
  atomic energy  EATOM  =      9416.14232778
  Solvation  Ediel_sol  =         0.00000000
  ---------------------------------------------------
  free energy    TOTEN  =      -574.88214331 eV

  energy without entropy =     -574.88214331  energy(sigma->0) =     -574.88214331


--------------------------------------------------------------------------------------------------------




--------------------------------------- Iteration      1(   8)  ---------------------------------------


    POTLOK:  cpu time    0.0703: real time    0.0707
    SETDIJ:  cpu time    0.0440: real time    0.0440
     EDDAV:  cpu time   14.7797: real time   14.7806
       DOS:  cpu time    0.0025: real time    0.0025
    CHARGE:  cpu time    0.4946: real time    0.4947
    MIXING:  cpu time    0.0047: real time    0.0047
    --------------------------------------------
      LOOP:  cpu time   15.3958: real time   15.3972

 eigenvalue-minimisations  :  8832
 total energy-change (2. order) :-0.4769710E-01  (-0.1966367E-01)
 number of electron     255.9999999 magnetization 
 augmentation part        5.3510263 magnetization 

 Broyden mixing:
  rms(total) = 0.19899E-01    rms(broyden)= 0.19831E-01
  rms(prec ) = 0.24256E-01
  weight for this iteration     100.00

 eigenvalues of (default mixing * dielectric matrix)
  average eigenvalue GAMMA=   2.1080
  1.4614  2.6838  2.1788

 Free energy of the ion-electron system (eV)
  ---------------------------------------------------
  alpha Z        PSCENC =       819.68309890
  Ewald energy   TEWEN  =    -10720.50894871
  -Hartree energ DENC   =      -894.31321368
  -exchange      EXHF   =         0.00000000
  -V(xc)+E(xc)   XCENC  =       915.75235523
  PAW double counting   =      3784.13598380    -3863.00958184
  entropy T*S    EENTRO =        -0.00000000
  eigenvalues    EBANDS =       -32.81186189
  atomic energy  EATOM  =      9416.14232778
  Solvation  Ediel_sol  =         0.00000000
  ---------------------------------------------------
  free energy    TOTEN  =      -574.92984041 eV

  energy without entropy =     -574.92984041  energy(sigma->0) =     -574.92984041


--------------------------------------------------------------------------------------------------------




--------------------------------------- Iteration      1(   9)  ---------------------------------------


    POTLOK:  cpu time    0.0692: real time    0.0696
    SETDIJ:  cpu time    0.0447: real time    0.0447
     EDDAV:  cpu time   15.1564: real time   15.1573
       DOS:  cpu time    0.0027: real time    0.0027
    CHARGE:  cpu time    0.4967: real time    0.4967
    MIXING:  cpu time    0.0048: real time    0.0048
    --------------------------------------------
      LOOP:  cpu time   15.7745: real time   15.7758

 eigenvalue-minimisations  :  8992
 total energy-change (2. order) :-0.2180747E-02  (-0.3700347E-03)
 number of electron     255.9999999 magnetization 
 augmentation part        5.3499695 magnetization 

 Broyden mixing:
  rms(total) = 0.75094E-02    rms(broyden)= 0.75054E-02
  rms(prec ) = 0.96125E-02
  weight for this iteration     100.00

 eigenvalues of (default mixing * dielectric matrix)
  average eigenvalue GAMMA=   2.0531
  0.9649  2.7830  2.4876  1.9771

 Free energy of the ion-electron system (eV)
  ---------------------------------------------------
  alpha Z        PSCENC =       819.68309890
  Ewald energy   TEWEN  =    -10720.50894871
  -Hartree energ DENC   =      -893.83479852
  -exchange      EXHF   =         0.00000000
  -V(xc)+E(xc)   XCENC  =       915.70539469
  PAW double counting   =      3778.93667304    -3857.71832660
  entropy T*S    EENTRO =        -0.00000000
  eigenvalues    EBANDS =       -33.33744174
  atomic energy  EATOM  =      9416.14232778
  Solvation  Ediel_sol  =         0.00000000
  ---------------------------------------------------
  free energy    TOTEN  =      -574.93202115 eV

  energy without entropy =     -574.93202115  energy(sigma->0) =     -574.93202115


--------------------------------------------------------------------------------------------------------




--------------------------------------- Iteration      1(  10)  ---------------------------------------


    POTLOK:  cpu time    0.0710: real time    0.0714
    SETDIJ:  cpu time    0.0451: real time    0.0451
     EDDAV:  cpu time   14.4144: real time   14.4153
       DOS:  cpu time    0.0026: real time    0.0026
    CHARGE:  cpu time    0.4960: real time    0.4960
    MIXING:  cpu time    0.0050: real time    0.0050
    --------------------------------------------
      LOOP:  cpu time   15.0341: real time   15.0354

 eigenvalue-minimisations  :  8544
 total energy-change (2. order) :-0.4607868E-03  (-0.4623334E-04)
 number of electron     255.9999999 magnetization 
 augmentation part        5.3496707 magnetization 

 Broyden mixing:
  rms(total) = 0.78224E-03    rms(broyden)= 0.77843E-03
  rms(prec ) = 0.11524E-02
  weight for this iteration     100.00

 eigenvalues of (default mixing * dielectric matrix)
  average eigenvalue GAMMA=   1.9576
  2.9319  2.5432  2.0644  0.9899  1.2584

 Free energy of the ion-electron system (eV)
  ---------------------------------------------------
  alpha Z        PSCENC =       819.68309890
  Ewald energy   TEWEN  =    -10720.50894871
  -Hartree energ DENC   =      -894.27016043
  -exchange      EXHF   =         0.00000000
  -V(xc)+E(xc)   XCENC  =       915.74423821
  PAW double counting   =      3776.27893889    -3855.07743135
  entropy T*S    EENTRO =        -0.00000000
  eigenvalues    EBANDS =       -32.92454524
  atomic energy  EATOM  =      9416.14232778
  Solvation  Ediel_sol  =         0.00000000
  ---------------------------------------------------
  free energy    TOTEN  =      -574.93248194 eV

  energy without entropy =     -574.93248194  energy(sigma->0) =     -574.93248194


--------------------------------------------------------------------------------------------------------




--------------------------------------- Iteration      1(  11)  ---------------------------------------


    POTLOK:  cpu time    0.0728: real time    0.0732
    SETDIJ:  cpu time    0.0435: real time    0.0435
     EDDAV:  cpu time   15.3863: real time   15.3872
       DOS:  cpu time    0.0026: real time    0.0026
    CHARGE:  cpu time    0.4943: real time    0.4944
    MIXING:  cpu time    0.0047: real time    0.0047
    --------------------------------------------
      LOOP:  cpu time   16.0043: real time   16.0056

 eigenvalue-minimisations  :  9120
 total energy-change (2. order) :-0.2364015E-05  (-0.1176891E-05)
 number of electron     255.9999999 magnetization 
 augmentation part        5.3494612 magnetization 

 Broyden mixing:
  rms(total) = 0.21246E-03    rms(broyden)= 0.21065E-03
  rms(prec ) = 0.27798E-03
  weight for this iteration     100.00

 eigenvalues of (default mixing * dielectric matrix)
  average eigenvalue GAMMA=   2.0020
  3.0119  2.5884  2.3988  2.0200  0.9964  0.9964

 Free energy of the ion-electron system (eV)
  ---------------------------------------------------
  alpha Z        PSCENC =       819.68309890
  Ewald energy   TEWEN  =    -10720.50894871
  -Hartree energ DENC   =      -894.38960527
  -exchange      EXHF   =         0.00000000
  -V(xc)+E(xc)   XCENC  =       915.75547264
  PAW double counting   =      3776.69752077    -3855.50084517
  entropy T*S    EENTRO =        -0.00000000
  eigenvalues    EBANDS =       -32.81150526
  atomic energy  EATOM  =      9416.14232778
  Solvation  Ediel_sol  =         0.00000000
  ---------------------------------------------------
  free energy    TOTEN  =      -574.93248431 eV

  energy without entropy =     -574.93248431  energy(sigma->0) =     -574.93248431


--------------------------------------------------------------------------------------------------------




--------------------------------------- Iteration      1(  12)  ---------------------------------------


    POTLOK:  cpu time    0.0703: real time    0.0707
    SETDIJ:  cpu time    0.0436: real time    0.0435
     EDDAV:  cpu time   14.8381: real time   14.8390
       DOS:  cpu time    0.0027: real time    0.0027
    CHARGE:  cpu time    0.4935: real time    0.4935
    MIXING:  cpu time    0.0053: real time    0.0053
    --------------------------------------------
      LOOP:  cpu time   15.4536: real time   15.4548

 eigenvalue-minimisations  :  8800
 total energy-change (2. order) :-0.5910497E-06  (-0.6619922E-07)
 number of electron     255.9999999 magnetization 
 augmentation part        5.3494869 magnetization 

 Broyden mixing:
  rms(total) = 0.19741E-04    rms(broyden)= 0.19459E-04
  rms(prec ) = 0.22770E-04
  weight for this iteration     100.00

 eigenvalues of (default mixing * dielectric matrix)
  average eigenvalue GAMMA=   1.8723
  2.9698  2.6263  2.4765  2.0271  0.9616  1.0226  1.0226

 Free energy of the ion-electron system (eV)
  ---------------------------------------------------
  alpha Z        PSCENC =       819.68309890
  Ewald energy   TEWEN  =    -10720.50894871
  -Hartree energ DENC   =      -894.37261890
  -exchange      EXHF   =         0.00000000
  -V(xc)+E(xc)   XCENC  =       915.75389537
  PAW double counting   =      3776.73478485    -3855.53604813
  entropy T*S    EENTRO =        -0.00000000
  eigenvalues    EBANDS =       -32.82897606
  atomic energy  EATOM  =      9416.14232778
  Solvation  Ediel_sol  =         0.00000000
  ---------------------------------------------------
  free energy    TOTEN  =      -574.93248490 eV

  energy without entropy =     -574.93248490  energy(sigma->0) =     -574.93248490


--------------------------------------------------------------------------------------------------------




--------------------------------------- Iteration      1(  13)  ---------------------------------------


    POTLOK:  cpu time    0.0720: real time    0.0723
    SETDIJ:  cpu time    0.0443: real time    0.0443
     EDDAV:  cpu time   12.9074: real time   12.9083
       DOS:  cpu time    0.0027: real time    0.0027
    CHARGE:  cpu time    0.4958: real time    0.4959
    MIXING:  cpu time    0.0055: real time    0.0055
    --------------------------------------------
      LOOP:  cpu time   13.5278: real time   13.5290

 eigenvalue-minimisations  :  6976
 total energy-change (2. order) :-0.1396547E-06  (-0.1288861E-08)
 number of electron     255.9999999 magnetization 
 augmentation part        5.3494815 magnetization 

 Broyden mixing:
  rms(total) = 0.85733E-05    rms(broyden)= 0.85345E-05
  rms(prec ) = 0.11488E-04
  weight for this iteration     100.00

 eigenvalues of (default mixing * dielectric matrix)
  average eigenvalue GAMMA=   2.0051
  2.0315  2.9432  2.9432  2.6320  2.4941  1.0137  1.0137  0.9696

 Free energy of the ion-electron system (eV)
  ---------------------------------------------------
  alpha Z        PSCENC =       819.68309890
  Ewald energy   TEWEN  =    -10720.50894871
  -Hartree energ DENC   =      -894.37294670
  -exchange      EXHF   =         0.00000000
  -V(xc)+E(xc)   XCENC  =       915.75392787
  PAW double counting   =      3776.74141547    -3855.54271585
  entropy T*S    EENTRO =        -0.00000000
  eigenvalues    EBANDS =       -32.82864379
  atomic energy  EATOM  =      9416.14232778
  Solvation  Ediel_sol  =         0.00000000
  ---------------------------------------------------
  free energy    TOTEN  =      -574.93248504 eV

  energy without entropy =     -574.93248504  energy(sigma->0) =     -574.93248504


--------------------------------------------------------------------------------------------------------




--------------------------------------- Iteration      1(  14)  ---------------------------------------


    POTLOK:  cpu time    0.0696: real time    0.0699
    SETDIJ:  cpu time    0.0459: real time    0.0459
     EDDAV:  cpu time   11.8057: real time   11.8064
       DOS:  cpu time    0.0026: real time    0.0026
    --------------------------------------------
      LOOP:  cpu time   11.9238: real time   11.9247

 eigenvalue-minimisations  :  6144
 total energy-change (2. order) : 0.8256393E-08  (-0.2222095E-09)
 number of electron     255.9999999 magnetization 
 augmentation part        5.3494815 magnetization 

 Free energy of the ion-electron system (eV)
  ---------------------------------------------------
  alpha Z        PSCENC =       819.68309890
  Ewald energy   TEWEN  =    -10720.50894871
  -Hartree energ DENC   =      -894.37198048
  -exchange      EXHF   =         0.00000000
  -V(xc)+E(xc)   XCENC  =       915.75383772
  PAW double counting   =      3776.73582941    -3855.53707567
  entropy T*S    EENTRO =        -0.00000000
  eigenvalues    EBANDS =       -32.82957397
  atomic energy  EATOM  =      9416.14232778
  Solvation  Ediel_sol  =         0.00000000
  ---------------------------------------------------
  free energy    TOTEN  =      -574.93248503 eV

  energy without entropy =     -574.93248503  energy(sigma->0) =     -574.93248503


--------------------------------------------------------------------------------------------------------




 average (electrostatic) potential at core
  the test charge radii are     0.6991
  (the norm of the test charge is              1.0000)
       1 -47.0107       2 -47.0107       3 -47.0107       4 -47.0107       5 -47.0107
       6 -47.0107       7 -47.0107       8 -47.0107       9 -47.0108      10 -47.0108
      11 -47.0108      12 -47.0108      13 -47.0108      14 -47.0108      15 -47.0108
      16 -47.0108      17 -47.0107      18 -47.0107      19 -47.0107      20 -47.0107
      21 -47.0107      22 -47.0107      23 -47.0107      24 -47.0107      25 -47.0108
      26 -47.0108      27 -47.0108      28 -47.0108      29 -47.0108      30 -47.0108
      31 -47.0108      32 -47.0108      33 -47.0107      34 -47.0107      35 -47.0107
      36 -47.0107      37 -47.0107      38 -47.0107      39 -47.0107      40 -47.0107
      41 -47.0108      42 -47.0108      43 -47.0108      44 -47.0108      45 -47.0108
      46 -47.0108      47 -47.0108      48 -47.0108      49 -47.0107      50 -47.0107
      51 -47.0107      52 -47.0107      53 -47.0107      54 -47.0107      55 -47.0107
      56 -47.0107      57 -47.0108      58 -47.0108      59 -47.0108      60 -47.0108
      61 -47.0108      62 -47.0108      63 -47.0108      64 -47.0108
 
 
 
 E-fermi :   8.9299     XC(G=0): -12.6596     alpha+bet :-15.7799


 k-point     1 :       0.0000    0.0000    0.0000
  band No.  band energies     occupation 
      1     -11.8314      2.00000
      2      -9.7892      2.00000
      3      -9.7892      2.00000
      4      -9.7892      2.00000
      5      -9.7892      2.00000
      6      -9.5917      2.00000
      7      -9.5917      2.00000
      8      -7.8487      2.00000
      9      -7.8487      2.00000
     10      -7.8487      2.00000
     11      -7.8487      2.00000
     12      -7.6762      2.00000
     13      -7.6762      2.00000
     14      -7.6762      2.00000
     15      -7.6762      2.00000
     16      -7.6762      2.00000
     17      -7.6762      2.00000
     18      -7.6762      2.00000
     19      -7.6762      2.00000
     20      -6.6774      2.00000
     21      -6.6774      2.00000
     22      -6.6774      2.00000
     23      -6.6774      2.00000
     24      -4.0434      2.00000
     25      -4.0434      2.00000
     26      -4.0434      2.00000
     27      -4.0434      2.00000
     28      -3.9966      2.00000
     29      -3.9966      2.00000
     30      -3.9966      2.00000
     31      -3.9966      2.00000
     32      -3.3905      2.00000
     33      -3.3905      2.00000
     34      -3.3315      2.00000
     35      -3.3315      2.00000
     36      -3.3315      2.00000
     37      -3.3315      2.00000
     38      -3.1669      2.00000
     39      -3.1669      2.00000
     40      -3.1669      2.00000
     41      -3.1669      2.00000
     42      -3.1669      2.00000
     43      -3.1669      2.00000
     44      -3.1669      2.00000
     45      -3.1669      2.00000
     46      -0.1185      2.00000
     47      -0.1185      2.00000
     48      -0.1185      2.00000
     49      -0.1185      2.00000
     50      -0.1185      2.00000
     51      -0.1185      2.00000
     52      -0.1185      2.00000
     53      -0.1185      2.00000
     54       0.2451      2.00000
     55       0.2451      2.00000
     56       0.2451      2.00000
     57       0.2451      2.00000
     58       0.7706      2.00000
     59       0.7706      2.00000
     60       0.7706      2.00000
     61       0.7706      2.00000
     62       0.8424      2.00000
     63       0.8424      2.00000
     64       0.8424      2.00000
     65       0.8424      2.00000
     66       0.8424      2.00000
     67       0.8424      2.00000
     68       0.8424      2.00000
     69       0.8424      2.00000
     70       1.1568      2.00000
     71       1.1568      2.00000
     72       1.1568      2.00000
     73       1.1568      2.00000
     74       1.1568      2.00000
     75       1.1568      2.00000
     76       1.1568      2.00000
     77       1.1568      2.00000
     78       1.7000      2.00000
     79       1.7000      2.00000
     80       1.7000      2.00000
     81       1.7000      2.00000
     82       2.1277      2.00000
     83       2.1277      2.00000
     84       2.7628      2.00000
     85       2.7628      2.00000
     86       2.7628      2.00000
     87       2.7628      2.00000
     88       3.5116      2.00000
     89       3.5116      2.00000
     90       3.5116      2.00000
     91       3.5116      2.00000
     92       4.1984      2.00000
     93       4.1984      2.00000
     94       4.1984      2.00000
     95       4.1984      2.00000
     96       4.2606      2.00000
     97       4.2606      2.00000
     98       4.5618      2.00000
     99       4.5618      2.00000
    100       4.5618      2.00000
    101       4.5618      2.00000
    102       4.7966      2.00000
    103       4.7966      2.00000
    104       4.7966      2.00000
    105       4.7966      2.00000
    106       5.0626      2.00000
    107       5.0626      2.00000
    108       5.0626      2.00000
    109       5.0626      2.00000
    110       5.2898      2.00000
    111       5.2898      2.00000
    112       5.2898      2.00000
    113       5.2898      2.00000
    114       5.6823      2.00000
    115       5.6823      2.00000
    116       5.6823      2.00000
    117       5.6823      2.00000
    118       5.6823      2.00000
    119       5.6823      2.00000
    120       5.6823      2.00000
    121       5.6823      2.00000
    122       6.0258      2.00000
    123       6.0258      2.00000
    124       6.0258      2.00000
    125       6.0258      2.00000
    126       7.9530      2.00000
    127       7.9530      2.00000
    128       8.5840      2.00000
    129      11.7398      0.00000
    130      11.7398      0.00000
    131      12.0148      0.00000
    132      12.0148      0.00000
    133      12.6601      0.00000
    134      12.6601      0.00000
    135      12.6601      0.00000
    136      12.6601      0.00000
    137      13.0351      0.00000
    138      13.0351      0.00000
    139      13.0351      0.00000
    140      13.0351      0.00000
    141      13.0911      0.00000
    142      13.6557      0.00000
    143      13.6557      0.00000
    144      14.7724      0.00000
    145      14.7724      0.00000
    146      14.7724      0.00000
    147      14.7724      0.00000
    148      15.0380      0.00000
    149      15.0380      0.00000
    150      15.0380      0.00000
    151      15.0380      0.00000
    152      15.8228      0.00000
    153      15.8228      0.00000
    154      15.8228      0.00000
    155      15.8228      0.00000
    156      15.8228      0.00000
    157      15.8228      0.00000
    158      15.8228      0.00000
    159      15.8228      0.00000
    160      15.9890      0.00000
    161      15.9890      0.00000
    162      15.9890      0.00000
    163      15.9890      0.00000
    164      16.7480      0.00000
    165      16.7480      0.00000
    166      16.7480      0.00000
    167      16.7480      0.00000
    168      17.1771      0.00000
    169      17.1771      0.00000
    170      17.1771      0.00000
    171      17.1771      0.00000
    172      17.1771      0.00000
    173      17.1771      0.00000
    174      17.1771      0.00000
    175      17.1771      0.00000
    176      17.3587      0.00000
    177      17.3587      0.00000
    178      17.5340      0.00000
    179      17.5340      0.00000
    180      17.5341      0.00000
    181      17.5345      0.00000
    182      17.6587      0.00000
    183      17.6588      0.00000
    184      17.6591      0.00000
    185      17.6604      0.00000
    186      17.7759      0.00000
    187      17.7759      0.00000
    188      17.7759      0.00000
    189      17.7764      0.00000
    190      17.7768      0.00000
    191      17.7772      0.00000
    192      17.7971      0.00000

 k-point     2 :       0.2500    0.0000    0.0000
  band No.  band energies     occupation 
      1     -11.7024      2.00000
      2     -10.6765      2.00000
      3      -9.6650      2.00000
      4      -9.6650      2.00000
      5      -9.4686      2.00000
      6      -9.4686      2.00000
      7      -8.6846      2.00000
      8      -8.6846      2.00000
      9      -8.6641      2.00000
     10      -8.4987      2.00000
     11      -8.4987      2.00000
     12      -7.5734      2.00000
     13      -7.5734      2.00000
     14      -7.5734      2.00000
     15      -7.5734      2.00000
     16      -6.8964      2.00000
     17      -6.8964      2.00000
     18      -6.8964      2.00000
     19      -6.8964      2.00000
     20      -6.8115      2.00000
     21      -6.8115      2.00000
     22      -6.6645      2.00000
     23      -6.6645      2.00000
     24      -5.7654      2.00000
     25      -4.3585      2.00000
     26      -4.3585      2.00000
     27      -4.3552      2.00000
     28      -4.3552      2.00000
     29      -3.9617      2.00000
     30      -3.9617      2.00000
     31      -3.5542      2.00000
     32      -3.5542      2.00000
     33      -3.5542      2.00000
     34      -3.5542      2.00000
     35      -3.4271      2.00000
     36      -3.4271      2.00000
     37      -3.3348      2.00000
     38      -3.3348      2.00000
     39      -3.0964      2.00000
     40      -3.0964      2.00000
     41      -2.5107      2.00000
     42      -2.5107      2.00000
     43      -2.1934      2.00000
     44      -2.1893      2.00000
     45      -2.1893      2.00000
     46      -1.1758      2.00000
     47      -1.1758      2.00000
     48      -1.1758      2.00000
     49      -1.1758      2.00000
     50      -1.0069      2.00000
     51      -1.0069      2.00000
     52      -0.6010      2.00000
     53      -0.6010      2.00000
     54       0.1924      2.00000
     55       0.1924      2.00000
     56       0.4738      2.00000
     57       0.4738      2.00000
     58       0.5017      2.00000
     59       0.5017      2.00000
     60       0.8924      2.00000
     61       0.8924      2.00000
     62       0.9033      2.00000
     63       0.9033      2.00000
     64       0.9981      2.00000
     65       0.9981      2.00000
     66       1.1682      2.00000
     67       1.1682      2.00000
     68       1.2326      2.00000
     69       1.2326      2.00000
     70       1.6569      2.00000
     71       1.7307      2.00000
     72       1.7307      2.00000
     73       1.8846      2.00000
     74       1.8846      2.00000
     75       1.8851      2.00000
     76       1.8851      2.00000
     77       2.0215      2.00000
     78       2.0215      2.00000
     79       2.2833      2.00000
     80       2.2833      2.00000
     81       2.2833      2.00000
     82       2.2833      2.00000
     83       2.4995      2.00000
     84       2.4995      2.00000
     85       2.5947      2.00000
     86       2.5947      2.00000
     87       2.8617      2.00000
     88       2.9118      2.00000
     89       3.0175      2.00000
     90       3.0175      2.00000
     91       3.1394      2.00000
     92       3.1394      2.00000
     93       3.7770      2.00000
     94       3.8327      2.00000
     95       3.8327      2.00000
     96       3.9415      2.00000
     97       4.2017      2.00000
     98       4.2017      2.00000
     99       4.4313      2.00000
    100       4.4313      2.00000
    101       4.6832      2.00000
    102       4.6832      2.00000
    103       4.8848      2.00000
    104       4.8848      2.00000
    105       4.9009      2.00000
    106       4.9009      2.00000
    107       4.9009      2.00000
    108       4.9009      2.00000
    109       5.1666      2.00000
    110       5.1666      2.00000
    111       5.2014      2.00000
    112       5.3949      2.00000
    113       5.3949      2.00000
    114       5.5161      2.00000
    115       5.7089      2.00000
    116       5.7089      2.00000
    117       5.7089      2.00000
    118       5.7089      2.00000
    119       5.8386      2.00000
    120       5.9121      2.00000
    121       5.9121      2.00000
    122       5.9121      2.00000
    123       5.9121      2.00000
    124       6.0496      2.00000
    125       6.0496      2.00000
    126       7.5201      2.00000
    127       7.5972      2.00000
    128       8.0825      2.00000
    129      12.2856      0.00000
    130      12.2856      0.00000
    131      12.4569      0.00000
    132      12.5246      0.00000
    133      12.5246      0.00000
    134      12.5991      0.00000
    135      12.9639      0.00000
    136      13.1989      0.00000
    137      13.1989      0.00000
    138      13.5402      0.00000
    139      13.5402      0.00000
    140      13.5584      0.00000
    141      13.6414      0.00000
    142      13.7578      0.00000
    143      14.3012      0.00000
    144      14.6916      0.00000
    145      14.6916      0.00000
    146      15.3605      0.00000
    147      15.3605      0.00000
    148      15.3605      0.00000
    149      15.3605      0.00000
    150      15.4236      0.00000
    151      15.4236      0.00000
    152      15.5176      0.00000
    153      15.5176      0.00000
    154      15.7544      0.00000
    155      15.7544      0.00000
    156      15.8452      0.00000
    157      15.8452      0.00000
    158      15.8452      0.00000
    159      15.8452      0.00000
    160      15.9184      0.00000
    161      15.9184      0.00000
    162      16.0967      0.00000
    163      16.0967      0.00000
    164      16.0967      0.00000
    165      16.0967      0.00000
    166      16.1378      0.00000
    167      16.2096      0.00000
    168      16.2096      0.00000
    169      16.3849      0.00000
    170      16.3849      0.00000
    171      16.3927      0.00000
    172      16.3927      0.00000
    173      16.4610      0.00000
    174      16.7255      0.00000
    175      16.7255      0.00000
    176      16.8235      0.00000
    177      16.8235      0.00000
    178      16.8235      0.00000
    179      16.8235      0.00000
    180      16.9546      0.00000
    181      16.9546      0.00000
    182      16.9546      0.00000
    183      16.9546      0.00000
    184      17.4916      0.00000
    185      17.5809      0.00000
    186      17.5810      0.00000
    187      17.5868      0.00000
    188      17.5868      0.00000
    189      17.7416      0.00000
    190      17.7421      0.00000
    191      18.0557      0.00000
    192      18.0850      0.00000

 k-point     3 :       0.5000    0.0000    0.0000
  band No.  band energies     occupation 
      1     -11.3163      2.00000
      2     -11.3163      2.00000
      3      -9.2945      2.00000
      4      -9.2945      2.00000
      5      -9.2945      2.00000
      6      -9.2945      2.00000
      7      -9.1016      2.00000
      8      -9.1016      2.00000
      9      -9.1016      2.00000
     10      -9.1016      2.00000
     11      -7.3157      2.00000
     12      -7.3157      2.00000
     13      -7.2843      2.00000
     14      -7.2843      2.00000
     15      -7.2843      2.00000
     16      -7.2843      2.00000
     17      -7.2843      2.00000
     18      -7.2843      2.00000
     19      -7.2843      2.00000
     20      -7.2843      2.00000
     21      -5.6185      2.00000
     22      -5.6185      2.00000
     23      -5.6185      2.00000
     24      -5.6185      2.00000
     25      -5.5220      2.00000
     26      -5.5220      2.00000
     27      -5.5220      2.00000
     28      -5.5220      2.00000
     29      -3.7350      2.00000
     30      -3.7350      2.00000
     31      -3.7350      2.00000
     32      -3.7350      2.00000
     33      -3.2008      2.00000
     34      -3.2008      2.00000
     35      -3.2008      2.00000
     36      -3.2008      2.00000
     37      -2.5069      2.00000
     38      -2.5069      2.00000
     39      -2.5069      2.00000
     40      -2.5069      2.00000
     41      -2.5069      2.00000
     42      -2.5069      2.00000
     43      -2.5069      2.00000
     44      -2.5069      2.00000
     45      -1.7817      2.00000
     46      -1.7817      2.00000
     47      -1.7817      2.00000
     48      -1.7817      2.00000
     49      -1.3830      2.00000
     50      -1.3830      2.00000
     51      -1.3830      2.00000
     52      -1.3830      2.00000
     53      -0.2703      2.00000
     54      -0.2703      2.00000
     55       0.1450      2.00000
     56       0.1450      2.00000
     57       0.1450      2.00000
     58       0.1450      2.00000
     59       0.5623      2.00000
     60       0.5623      2.00000
     61       0.5623      2.00000
     62       0.5623      2.00000
     63       1.3540      2.00000
     64       1.3540      2.00000
     65       1.3540      2.00000
     66       1.3540      2.00000
     67       1.8823      2.00000
     68       1.8823      2.00000
     69       1.8823      2.00000
     70       1.8823      2.00000
     71       1.9984      2.00000
     72       1.9984      2.00000
     73       1.9984      2.00000
     74       1.9984      2.00000
     75       2.1276      2.00000
     76       2.1276      2.00000
     77       2.1276      2.00000
     78       2.1276      2.00000
     79       2.9711      2.00000
     80       2.9711      2.00000
     81       2.9711      2.00000
     82       2.9711      2.00000
     83       2.9843      2.00000
     84       2.9843      2.00000
     85       2.9843      2.00000
     86       2.9843      2.00000
     87       3.2040      2.00000
     88       3.2040      2.00000
     89       3.3022      2.00000
     90       3.3022      2.00000
[...]
      4.706529  0.941306  6.282499     0.043855   -0.020187   -0.006129  
      0.941306  4.706529  6.282499    -0.043855    0.020187    0.006129  
      4.706529  4.706529  6.282499    -0.043855   -0.020187    0.001692  
      0.000000  1.882612  0.000000     0.135557    0.073592    0.000754  
      3.765223  1.882612  0.000000     0.135557   -0.073592    0.003136  
      0.000000  5.647835  0.000000    -0.135557    0.073592   -0.003136  
      3.765223  5.647835  0.000000    -0.135557   -0.073592   -0.000754  
      0.000000  1.882612  3.589999     0.135557    0.073592    0.000754  
      3.765223  1.882612  3.589999     0.135557   -0.073592    0.003136  
      0.000000  5.647835  3.589999    -0.135557    0.073592   -0.003136  
      3.765223  5.647835  3.589999    -0.135557   -0.073592   -0.000754  
      2.823918  2.823918  2.692500     0.147852   -0.083889    0.001694  
      6.589141  2.823918  2.692500     0.147852    0.083889    0.000626  
      2.823918  6.589141  2.692500    -0.147852   -0.083889   -0.000626  
      6.589141  6.589141  2.692500    -0.147852    0.083889   -0.001694  
      2.823918  2.823918  6.282499     0.147852   -0.083889    0.001694  
      6.589141  2.823918  6.282499     0.147852    0.083889    0.000626  
      2.823918  6.589141  6.282499    -0.147852   -0.083889   -0.000626  
      6.589141  6.589141  6.282499    -0.147852    0.083889   -0.001694  
      1.882612  0.000000  0.000000    -0.073537   -0.045044    0.001639  
      5.647835  0.000000  0.000000    -0.073537    0.045044    0.005532  
      1.882612  3.765223  0.000000     0.073537   -0.045044   -0.005532  
      5.647835  3.765223  0.000000     0.073537    0.045044   -0.001639  
      1.882612  0.000000  3.589999    -0.073537   -0.045044    0.001639  
      5.647835  0.000000  3.589999    -0.073537    0.045044    0.005532  
      1.882612  3.765223  3.589999     0.073537   -0.045044   -0.005532  
      5.647835  3.765223  3.589999     0.073537    0.045044   -0.001639  
      2.823918  0.941306  0.897500     0.043855   -0.083889   -0.003377  
      6.589141  0.941306  0.897500     0.043855    0.083889   -0.004445  
      2.823918  4.706529  0.897500    -0.043855   -0.083889    0.004445  
      6.589141  4.706529  0.897500    -0.043855    0.083889    0.003377  
      2.823918  0.941306  4.487499     0.043855   -0.083889   -0.003377  
      6.589141  0.941306  4.487499     0.043855    0.083889   -0.004445  
      2.823918  4.706529  4.487499    -0.043855   -0.083889    0.004445  
      6.589141  4.706529  4.487499    -0.043855    0.083889    0.003377  
      1.882612  1.882612  1.795000     0.135557   -0.045044   -0.000001  
      5.647835  1.882612  1.795000     0.135557    0.045044    0.003892  
      1.882612  5.647835  1.795000    -0.135557   -0.045044   -0.003892  
      5.647835  5.647835  1.795000    -0.135557    0.045044    0.000001  
      1.882612  1.882612  5.384999     0.135557   -0.045044   -0.000001  
      5.647835  1.882612  5.384999     0.135557    0.045044    0.003892  
      1.882612  5.647835  5.384999    -0.135557   -0.045044   -0.003892  
      5.647835  5.647835  5.384999    -0.135557    0.045044    0.000001  
 
 190 f/i=    0.000002 THz     0.000015 2PiTHz    0.000082 cm-1     0.000010 meV
             X         Y         Z           dx          dy          dz
      0.941306  2.823918  0.897500    -0.030852    0.121133    0.000052  
      4.706529  2.823918  0.897500    -0.030852    0.121133    0.000052  
      0.941306  6.589141  0.897500    -0.030852    0.121133    0.000052  
      4.706529  6.589141  0.897500    -0.030852    0.121133    0.000052  
      0.941306  2.823918  4.487499    -0.030852    0.121133    0.000052  
      4.706529  2.823918  4.487499    -0.030852    0.121133    0.000052  
      0.941306  6.589141  4.487499    -0.030852    0.121133    0.000052  
      4.706529  6.589141  4.487499    -0.030852    0.121133    0.000052  
      0.000000  0.000000  1.795000    -0.030852    0.121133    0.000052  
      3.765223  0.000000  1.795000    -0.030852    0.121133    0.000052  
      0.000000  3.765223  1.795000    -0.030852    0.121133    0.000052  
      3.765223  3.765223  1.795000    -0.030852    0.121133    0.000052  
      0.000000  0.000000  5.384999    -0.030852    0.121133    0.000052  
      3.765223  0.000000  5.384999    -0.030852    0.121133    0.000052  
      0.000000  3.765223  5.384999    -0.030852    0.121133    0.000052  
      3.765223  3.765223  5.384999    -0.030852    0.121133    0.000052  
      0.941306  0.941306  2.692500    -0.030852    0.121133    0.000052  
      4.706529  0.941306  2.692500    -0.030852    0.121133    0.000052  
      0.941306  4.706529  2.692500    -0.030852    0.121133    0.000052  
      4.706529  4.706529  2.692500    -0.030852    0.121133    0.000052  
      0.941306  0.941306  6.282499    -0.030852    0.121133    0.000052  
      4.706529  0.941306  6.282499    -0.030852    0.121133    0.000052  
      0.941306  4.706529  6.282499    -0.030852    0.121133    0.000052  
      4.706529  4.706529  6.282499    -0.030852    0.121133    0.000052  
      0.000000  1.882612  0.000000    -0.030852    0.121133    0.000052  
      3.765223  1.882612  0.000000    -0.030852    0.121133    0.000052  
      0.000000  5.647835  0.000000    -0.030852    0.121133    0.000052  
      3.765223  5.647835  0.000000    -0.030852    0.121133    0.000052  
      0.000000  1.882612  3.589999    -0.030852    0.121133    0.000052  
      3.765223  1.882612  3.589999    -0.030852    0.121133    0.000052  
      0.000000  5.647835  3.589999    -0.030852    0.121133    0.000052  
      3.765223  5.647835  3.589999    -0.030852    0.121133    0.000052  
      2.823918  2.823918  2.692500    -0.030852    0.121133    0.000052  
      6.589141  2.823918  2.692500    -0.030852    0.121133    0.000052  
      2.823918  6.589141  2.692500    -0.030852    0.121133    0.000052  
      6.589141  6.589141  2.692500    -0.030852    0.121133    0.000052  
      2.823918  2.823918  6.282499    -0.030852    0.121133    0.000052  
      6.589141  2.823918  6.282499    -0.030852    0.121133    0.000052  
      2.823918  6.589141  6.282499    -0.030852    0.121133    0.000052  
      6.589141  6.589141  6.282499    -0.030852    0.121133    0.000052  
      1.882612  0.000000  0.000000    -0.030852    0.121133    0.000052  
      5.647835  0.000000  0.000000    -0.030852    0.121133    0.000052  
      1.882612  3.765223  0.000000    -0.030852    0.121133    0.000052  
      5.647835  3.765223  0.000000    -0.030852    0.121133    0.000052  
      1.882612  0.000000  3.589999    -0.030852    0.121133    0.000052  
      5.647835  0.000000  3.589999    -0.030852    0.121133    0.000052  
      1.882612  3.765223  3.589999    -0.030852    0.121133    0.000052  
      5.647835  3.765223  3.589999    -0.030852    0.121133    0.000052  
      2.823918  0.941306  0.897500    -0.030852    0.121133    0.000052  
      6.589141  0.941306  0.897500    -0.030852    0.121133    0.000052  
      2.823918  4.706529  0.897500    -0.030852    0.121133    0.000052  
      6.589141  4.706529  0.897500    -0.030852    0.121133    0.000052  
      2.823918  0.941306  4.487499    -0.030852    0.121133    0.000052  
      6.589141  0.941306  4.487499    -0.030852    0.121133    0.000052  
      2.823918  4.706529  4.487499    -0.030852    0.121133    0.000052  
      6.589141  4.706529  4.487499    -0.030852    0.121133    0.000052  
      1.882612  1.882612  1.795000    -0.030852    0.121133    0.000052  
      5.647835  1.882612  1.795000    -0.030852    0.121133    0.000052  
      1.882612  5.647835  1.795000    -0.030852    0.121133    0.000052  
      5.647835  5.647835  1.795000    -0.030852    0.121133    0.000052  
      1.882612  1.882612  5.384999    -0.030852    0.121133    0.000052  
      5.647835  1.882612  5.384999    -0.030852    0.121133    0.000052  
      1.882612  5.647835  5.384999    -0.030852    0.121133    0.000052  
      5.647835  5.647835  5.384999    -0.030852    0.121133    0.000052  
 
 191 f/i=    0.000003 THz     0.000016 2PiTHz    0.000086 cm-1     0.000011 meV
             X         Y         Z           dx          dy          dz
      0.941306  2.823918  0.897500     0.121105    0.030844    0.002696  
      4.706529  2.823918  0.897500     0.121105    0.030844    0.002696  
      0.941306  6.589141  0.897500     0.121105    0.030844    0.002696  
      4.706529  6.589141  0.897500     0.121105    0.030844    0.002696  
      0.941306  2.823918  4.487499     0.121105    0.030844    0.002696  
      4.706529  2.823918  4.487499     0.121105    0.030844    0.002696  
      0.941306  6.589141  4.487499     0.121105    0.030844    0.002696  
      4.706529  6.589141  4.487499     0.121105    0.030844    0.002696  
      0.000000  0.000000  1.795000     0.121105    0.030844    0.002696  
      3.765223  0.000000  1.795000     0.121105    0.030844    0.002696  
      0.000000  3.765223  1.795000     0.121105    0.030844    0.002696  
      3.765223  3.765223  1.795000     0.121105    0.030844    0.002696  
      0.000000  0.000000  5.384999     0.121105    0.030844    0.002696  
      3.765223  0.000000  5.384999     0.121105    0.030844    0.002696  
      0.000000  3.765223  5.384999     0.121105    0.030844    0.002696  
      3.765223  3.765223  5.384999     0.121105    0.030844    0.002696  
      0.941306  0.941306  2.692500     0.121105    0.030844    0.002696  
      4.706529  0.941306  2.692500     0.121105    0.030844    0.002696  
      0.941306  4.706529  2.692500     0.121105    0.030844    0.002696  
      4.706529  4.706529  2.692500     0.121105    0.030844    0.002696  
      0.941306  0.941306  6.282499     0.121105    0.030844    0.002696  
      4.706529  0.941306  6.282499     0.121105    0.030844    0.002696  
      0.941306  4.706529  6.282499     0.121105    0.030844    0.002696  
      4.706529  4.706529  6.282499     0.121105    0.030844    0.002696  
      0.000000  1.882612  0.000000     0.121105    0.030844    0.002696  
      3.765223  1.882612  0.000000     0.121105    0.030844    0.002696  
      0.000000  5.647835  0.000000     0.121105    0.030844    0.002696  
      3.765223  5.647835  0.000000     0.121105    0.030844    0.002696  
      0.000000  1.882612  3.589999     0.121105    0.030844    0.002696  
      3.765223  1.882612  3.589999     0.121105    0.030844    0.002696  
      0.000000  5.647835  3.589999     0.121105    0.030844    0.002696  
      3.765223  5.647835  3.589999     0.121105    0.030844    0.002696  
      2.823918  2.823918  2.692500     0.121105    0.030844    0.002696  
      6.589141  2.823918  2.692500     0.121105    0.030844    0.002696  
      2.823918  6.589141  2.692500     0.121105    0.030844    0.002696  
      6.589141  6.589141  2.692500     0.121105    0.030844    0.002696  
      2.823918  2.823918  6.282499     0.121105    0.030844    0.002696  
      6.589141  2.823918  6.282499     0.121105    0.030844    0.002696  
      2.823918  6.589141  6.282499     0.121105    0.030844    0.002696  
      6.589141  6.589141  6.282499     0.121105    0.030844    0.002696  
      1.882612  0.000000  0.000000     0.121105    0.030844    0.002696  
      5.647835  0.000000  0.000000     0.121105    0.030844    0.002696  
      1.882612  3.765223  0.000000     0.121105    0.030844    0.002696  
      5.647835  3.765223  0.000000     0.121105    0.030844    0.002696  
      1.882612  0.000000  3.589999     0.121105    0.030844    0.002696  
      5.647835  0.000000  3.589999     0.121105    0.030844    0.002696  
      1.882612  3.765223  3.589999     0.121105    0.030844    0.002696  
      5.647835  3.765223  3.589999     0.121105    0.030844    0.002696  
      2.823918  0.941306  0.897500     0.121105    0.030844    0.002696  
      6.589141  0.941306  0.897500     0.121105    0.030844    0.002696  
      2.823918  4.706529  0.897500     0.121105    0.030844    0.002696  
      6.589141  4.706529  0.897500     0.121105    0.030844    0.002696  
      2.823918  0.941306  4.487499     0.121105    0.030844    0.002696  
      6.589141  0.941306  4.487499     0.121105    0.030844    0.002696  
      2.823918  4.706529  4.487499     0.121105    0.030844    0.002696  
      6.589141  4.706529  4.487499     0.121105    0.030844    0.002696  
      1.882612  1.882612  1.795000     0.121105    0.030844    0.002696  
      5.647835  1.882612  1.795000     0.121105    0.030844    0.002696  
      1.882612  5.647835  1.795000     0.121105    0.030844    0.002696  
      5.647835  5.647835  1.795000     0.121105    0.030844    0.002696  
      1.882612  1.882612  5.384999     0.121105    0.030844    0.002696  
      5.647835  1.882612  5.384999     0.121105    0.030844    0.002696  
      1.882612  5.647835  5.384999     0.121105    0.030844    0.002696  
      5.647835  5.647835  5.384999     0.121105    0.030844    0.002696  
 
 192 f/i=    0.000003 THz     0.000017 2PiTHz    0.000093 cm-1     0.000011 meV
             X         Y         Z           dx          dy          dz
      0.941306  2.823918  0.897500     0.002599    0.000715   -0.124971  
      4.706529  2.823918  0.897500     0.002599    0.000715   -0.124971  
      0.941306  6.589141  0.897500     0.002599    0.000715   -0.124971  
      4.706529  6.589141  0.897500     0.002599    0.000715   -0.124971  
      0.941306  2.823918  4.487499     0.002599    0.000715   -0.124971  
      4.706529  2.823918  4.487499     0.002599    0.000715   -0.124971  
      0.941306  6.589141  4.487499     0.002599    0.000715   -0.124971  
      4.706529  6.589141  4.487499     0.002599    0.000715   -0.124971  
      0.000000  0.000000  1.795000     0.002599    0.000715   -0.124971  
      3.765223  0.000000  1.795000     0.002599    0.000715   -0.124971  
      0.000000  3.765223  1.795000     0.002599    0.000715   -0.124971  
      3.765223  3.765223  1.795000     0.002599    0.000715   -0.124971  
      0.000000  0.000000  5.384999     0.002599    0.000715   -0.124971  
      3.765223  0.000000  5.384999     0.002599    0.000715   -0.124971  
      0.000000  3.765223  5.384999     0.002599    0.000715   -0.124971  
      3.765223  3.765223  5.384999     0.002599    0.000715   -0.124971  
      0.941306  0.941306  2.692500     0.002599    0.000715   -0.124971  
      4.706529  0.941306  2.692500     0.002599    0.000715   -0.124971  
      0.941306  4.706529  2.692500     0.002599    0.000715   -0.124971  
      4.706529  4.706529  2.692500     0.002599    0.000715   -0.124971  
      0.941306  0.941306  6.282499     0.002599    0.000715   -0.124971  
      4.706529  0.941306  6.282499     0.002599    0.000715   -0.124971  
      0.941306  4.706529  6.282499     0.002599    0.000715   -0.124971  
      4.706529  4.706529  6.282499     0.002599    0.000715   -0.124971  
      0.000000  1.882612  0.000000     0.002599    0.000715   -0.124971  
      3.765223  1.882612  0.000000     0.002599    0.000715   -0.124971  
      0.000000  5.647835  0.000000     0.002599    0.000715   -0.124971  
      3.765223  5.647835  0.000000     0.002599    0.000715   -0.124971  
      0.000000  1.882612  3.589999     0.002599    0.000715   -0.124971  
      3.765223  1.882612  3.589999     0.002599    0.000715   -0.124971  
      0.000000  5.647835  3.589999     0.002599    0.000715   -0.124971  
      3.765223  5.647835  3.589999     0.002599    0.000715   -0.124971  
      2.823918  2.823918  2.692500     0.002599    0.000715   -0.124971  
      6.589141  2.823918  2.692500     0.002599    0.000715   -0.124971  
      2.823918  6.589141  2.692500     0.002599    0.000715   -0.124971  
      6.589141  6.589141  2.692500     0.002599    0.000715   -0.124971  
      2.823918  2.823918  6.282499     0.002599    0.000715   -0.124971  
      6.589141  2.823918  6.282499     0.002599    0.000715   -0.124971  
      2.823918  6.589141  6.282499     0.002599    0.000715   -0.124971  
      6.589141  6.589141  6.282499     0.002599    0.000715   -0.124971  
      1.882612  0.000000  0.000000     0.002599    0.000715   -0.124971  
      5.647835  0.000000  0.000000     0.002599    0.000715   -0.124971  
      1.882612  3.765223  0.000000     0.002599    0.000715   -0.124971  
      5.647835  3.765223  0.000000     0.002599    0.000715   -0.124971  
      1.882612  0.000000  3.589999     0.002599    0.000715   -0.124971  
      5.647835  0.000000  3.589999     0.002599    0.000715   -0.124971  
      1.882612  3.765223  3.589999     0.002599    0.000715   -0.124971  
      5.647835  3.765223  3.589999     0.002599    0.000715   -0.124971  
      2.823918  0.941306  0.897500     0.002599    0.000715   -0.124971  
      6.589141  0.941306  0.897500     0.002599    0.000715   -0.124971  
      2.823918  4.706529  0.897500     0.002599    0.000715   -0.124971  
      6.589141  4.706529  0.897500     0.002599    0.000715   -0.124971  
      2.823918  0.941306  4.487499     0.002599    0.000715   -0.124971  
      6.589141  0.941306  4.487499     0.002599    0.000715   -0.124971  
      2.823918  4.706529  4.487499     0.002599    0.000715   -0.124971  
      6.589141  4.706529  4.487499     0.002599    0.000715   -0.124971  
      1.882612  1.882612  1.795000     0.002599    0.000715   -0.124971  
      5.647835  1.882612  1.795000     0.002599    0.000715   -0.124971  
      1.882612  5.647835  1.795000     0.002599    0.000715   -0.124971  
      5.647835  5.647835  1.795000     0.002599    0.000715   -0.124971  
      1.882612  1.882612  5.384999     0.002599    0.000715   -0.124971  
      5.647835  1.882612  5.384999     0.002599    0.000715   -0.124971  
      1.882612  5.647835  5.384999     0.002599    0.000715   -0.124971  
      5.647835  5.647835  5.384999     0.002599    0.000715   -0.124971  
 


--------------------------------------------------------------------------------------------------------



 ELASTIC MODULI CONTR FROM IONIC RELAXATION (kBar)
 Direction    XX          YY          ZZ          XY          YZ          ZX
 --------------------------------------------------------------------------------
 XX          -0.0000     -0.0000      0.0000      0.0000      0.0000      0.0000
 YY          -0.0000     -0.0000      0.0000      0.0000     -0.0000     -0.0000
 ZZ           0.0000      0.0000     -0.0000     -0.0000      0.0000     -0.0000
 XY           0.0000      0.0000     -0.0000    -13.7010     -0.0000     -0.0000
 YZ           0.0000     -0.0000      0.0000     -0.0000    -31.3476     -0.0000
 ZX           0.0000     -0.0000     -0.0000     -0.0000     -0.0000    -31.3503
 --------------------------------------------------------------------------------



--------------------------------------------------------------------------------------------------------


     LOOP+:  cpu time  862.4094: real time  862.6805
    4ORBIT:  cpu time    0.0000: real time    0.0000

 total amount of memory used by VASP MPI-rank0    72285. kBytes
=======================================================================

   base      :      30000. kBytes
   nonl-proj :      16224. kBytes
   fftplans  :       5389. kBytes
   grid      :       6708. kBytes
   one-center:        196. kBytes
   wavefun   :      13768. kBytes
 
  
  
 General timing and accounting informations for this job:
 ========================================================
  
                  Total CPU time used (sec):      870.629
                            User time (sec):      866.202
                          System time (sec):        4.428
                         Elapsed time (sec):      871.020
  
                   Maximum memory used (kb):      332620.
                   Average memory used (kb):           0.
  
                          Minor page faults:        39417
                          Major page faults:           35
                 Voluntary context switches:          870
