# Thermal properties / unit cell (natom)

unit:
  temperature:   K
  free_energy:   kJ/mol
  entropy:       J/K/mol
  heat_capacity: J/K/mol

natom: 8    
cutoff_frequency:    0.000
num_modes: 2654208
num_integrated_modes: 2654208

zero_point_energy:     123.2440499
high_T_entropy:        455.6791523

thermal_properties:
- temperature:         0.0000000
  free_energy:       123.2440499
  entropy:             0.0000000
  heat_capacity:       0.0000000
  energy:            123.2440499

- temperature:         2.0000000
  free_energy:       123.2440499
  entropy:             0.0000000
  heat_capacity:       0.0000000
  energy:            123.2440499

- temperature:         4.0000000
  free_energy:       123.2440499
  entropy:             0.0000133
  heat_capacity:       0.0000786
  energy:            123.2440500

- temperature:         6.0000000
  free_energy:       123.2440498
  entropy:             0.0000982
  heat_capacity:       0.0004075
  energy:            123.2440504

- temperature:         8.0000000
  free_energy:       123.2440495
  entropy:             0.0002933
  heat_capacity:       0.0010345
  energy:            123.2440518

- temperature:        10.0000000
  free_energy:       123.2440486
  entropy:             0.0006246
  heat_capacity:       0.0020449
  energy:            123.2440548

- temperature:        12.0000000
  free_energy:       123.2440468
  entropy:             0.0011217
  heat_capacity:       0.0035437
  energy:            123.2440603

- temperature:        14.0000000
  free_energy:       123.2440439
  entropy:             0.0018168
  heat_capacity:       0.0056352
  energy:            123.2440694

- temperature:        16.0000000
  free_energy:       123.2440394
  entropy:             0.0027429
  heat_capacity:       0.0084228
  energy:            123.2440833

- temperature:        18.0000000
  free_energy:       123.2440328
  entropy:             0.0039337
  heat_capacity:       0.0120100
  energy:            123.2441036

- temperature:        20.0000000
  free_energy:       123.2440235
  entropy:             0.0054232
  heat_capacity:       0.0165013
  energy:            123.2441320

- temperature:        22.0000000
  free_energy:       123.2440109
  entropy:             0.0072455
  heat_capacity:       0.0220031
  energy:            123.2441703

- temperature:        24.0000000
  free_energy:       123.2439943
  entropy:             0.0094354
  heat_capacity:       0.0286233
  energy:            123.2442207

- temperature:        26.0000000
  free_energy:       123.2439729
  entropy:             0.0120278
  heat_capacity:       0.0364724
  energy:            123.2442856

- temperature:        28.0000000
  free_energy:       123.2439459
  entropy:             0.0150584
  heat_capacity:       0.0456633
  energy:            123.2443675

- temperature:        30.0000000
  free_energy:       123.2439123
  entropy:             0.0185633
  heat_capacity:       0.0563119
  energy:            123.2444692

- temperature:        32.0000000
  free_energy:       123.2438713
  entropy:             0.0225790
  heat_capacity:       0.0685376
  energy:            123.2445938

- temperature:        34.0000000
  free_energy:       123.2438216
  entropy:             0.0271430
  heat_capacity:       0.0824636
  energy:            123.2447445

- temperature:        36.0000000
  free_energy:       123.2437623
  entropy:             0.0322935
  heat_capacity:       0.0982176
  energy:            123.2449249

- temperature:        38.0000000
  free_energy:       123.2436921
  entropy:             0.0380692
  heat_capacity:       0.1159327
  energy:            123.2451387

- temperature:        40.0000000
  free_energy:       123.2436096
  entropy:             0.0445104
  heat_capacity:       0.1357480
  energy:            123.2453900

- temperature:        42.0000000
  free_energy:       123.2435135
  entropy:             0.0516579
  heat_capacity:       0.1578096
  energy:            123.2456832

- temperature:        44.0000000
  free_energy:       123.2434025
  entropy:             0.0595542
  heat_capacity:       0.1822719
  energy:            123.2460228

- temperature:        46.0000000
  free_energy:       123.2432748
  entropy:             0.0682429
  heat_capacity:       0.2092981
  energy:            123.2464140

- temperature:        48.0000000
  free_energy:       123.2431289
  entropy:             0.0777694
  heat_capacity:       0.2390620
  energy:            123.2468619

- temperature:        50.0000000
  free_energy:       123.2429631
  entropy:             0.0881808
  heat_capacity:       0.2717483
  energy:            123.2473722

- temperature:        52.0000000
  free_energy:       123.2427756
  entropy:             0.0995260
  heat_capacity:       0.3075538
  energy:            123.2479509

- temperature:        54.0000000
  free_energy:       123.2425644
  entropy:             0.1118562
  heat_capacity:       0.3466877
  energy:            123.2486046

- temperature:        56.0000000
  free_energy:       123.2423275
  entropy:             0.1252247
  heat_capacity:       0.3893721
  energy:            123.2493400

- temperature:        58.0000000
  free_energy:       123.2420627
  entropy:             0.1396875
  heat_capacity:       0.4358422
  energy:            123.2501646

- temperature:        60.0000000
  free_energy:       123.2417679
  entropy:             0.1553027
  heat_capacity:       0.4863456
  energy:            123.2510861

- temperature:        62.0000000
  free_energy:       123.2414407
  entropy:             0.1721312
  heat_capacity:       0.5411420
  energy:            123.2521129

- temperature:        64.0000000
  free_energy:       123.2410786
  entropy:             0.1902367
  heat_capacity:       0.6005019
  energy:            123.2532537

- temperature:        66.0000000
  free_energy:       123.2406789
  entropy:             0.2096851
  heat_capacity:       0.6647060
  energy:            123.2545181

- temperature:        68.0000000
  free_energy:       123.2402389
  entropy:             0.2305452
  heat_capacity:       0.7340435
  energy:            123.2559160

- temperature:        70.0000000
  free_energy:       123.2397557
  entropy:             0.2528883
  heat_capacity:       0.8088104
  energy:            123.2574579

- temperature:        72.0000000
  free_energy:       123.2392263
  entropy:             0.2767879
  heat_capacity:       0.8893080
  energy:            123.2591550

- temperature:        74.0000000
  free_energy:       123.2386475
  entropy:             0.3023199
  heat_capacity:       0.9758411
  energy:            123.2610191

- temperature:        76.0000000
  free_energy:       123.2380159
  entropy:             0.3295624
  heat_capacity:       1.0687159
  energy:            123.2630626

- temperature:        78.0000000
  free_energy:       123.2373280
  entropy:             0.3585950
  heat_capacity:       1.1682387
  energy:            123.2652984

- temperature:        80.0000000
  free_energy:       123.2365802
  entropy:             0.3894995
  heat_capacity:       1.2747139
  energy:            123.2677402

- temperature:        82.0000000
  free_energy:       123.2357687
  entropy:             0.4223586
  heat_capacity:       1.3884420
  energy:            123.2704021

- temperature:        84.0000000
  free_energy:       123.2348895
  entropy:             0.4572566
  heat_capacity:       1.5097185
  energy:            123.2732990

- temperature:        86.0000000
  free_energy:       123.2339383
  entropy:             0.4942784
  heat_capacity:       1.6388323
  energy:            123.2764462

- temperature:        88.0000000
  free_energy:       123.2329109
  entropy:             0.5335100
  heat_capacity:       1.7760640
  energy:            123.2798597

- temperature:        90.0000000
  free_energy:       123.2318027
  entropy:             0.5750374
  heat_capacity:       1.9216855
  energy:            123.2835561

- temperature:        92.0000000
  free_energy:       123.2306091
  entropy:             0.6189470
  heat_capacity:       2.0759580
  energy:            123.2875523

- temperature:        94.0000000
  free_energy:       123.2293253
  entropy:             0.6653252
  heat_capacity:       2.2391320
  energy:            123.2918658

- temperature:        96.0000000
  free_energy:       123.2279461
  entropy:             0.7142578
  heat_capacity:       2.4114458
  energy:            123.2965149

- temperature:        98.0000000
  free_energy:       123.2264665
  entropy:             0.7658305
  heat_capacity:       2.5931253
  energy:            123.3015179

- temperature:       100.0000000
  free_energy:       123.2248810
  entropy:             0.8201278
  heat_capacity:       2.7843835
  energy:            123.3068938

- temperature:       102.0000000
  free_energy:       123.2231841
  entropy:             0.8772335
  heat_capacity:       2.9854196
  energy:            123.3126619

- temperature:       104.0000000
  free_energy:       123.2213701
  entropy:             0.9372304
  heat_capacity:       3.1964196
  energy:            123.3188421

- temperature:       106.0000000
  free_energy:       123.2194332
  entropy:             1.0001996
  heat_capacity:       3.4175552
  energy:            123.3254544

- temperature:       108.0000000
  free_energy:       123.2173673
  entropy:             1.0662211
  heat_capacity:       3.6489842
  energy:            123.3325192

- temperature:       110.0000000
  free_energy:       123.2151662
  entropy:             1.1353730
  heat_capacity:       3.8908503
  energy:            123.3400573

- temperature:       112.0000000
  free_energy:       123.2128237
  entropy:             1.2077317
  heat_capacity:       4.1432832
  energy:            123.3480896

- temperature:       114.0000000
  free_energy:       123.2103331
  entropy:             1.2833719
  heat_capacity:       4.4063985
  energy:            123.3566375

- temperature:       116.0000000
  free_energy:       123.2076879
  entropy:             1.3623660
  heat_capacity:       4.6802980
  energy:            123.3657224

- temperature:       118.0000000
  free_energy:       123.2048814
  entropy:             1.4447846
  heat_capacity:       4.9650698
  energy:            123.3753659

- temperature:       120.0000000
  free_energy:       123.2019065
  entropy:             1.5306959
  heat_capacity:       5.2607883
  energy:            123.3855900

- temperature:       122.0000000
  free_energy:       123.1987562
  entropy:             1.6201658
  heat_capacity:       5.5675148
  energy:            123.3964164

- temperature:       124.0000000
  free_energy:       123.1954234
  entropy:             1.7132582
  heat_capacity:       5.8852974
  energy:            123.4078674

- temperature:       126.0000000
  free_energy:       123.1919007
  entropy:             1.8100342
  heat_capacity:       6.2141714
  energy:            123.4199650

- temperature:       128.0000000
  free_energy:       123.1881808
  entropy:             1.9105527
  heat_capacity:       6.5541596
  energy:            123.4327315

- temperature:       130.0000000
  free_energy:       123.1842560
  entropy:             2.0148700
  heat_capacity:       6.9052724
  energy:            123.4461891

- temperature:       132.0000000
  free_energy:       123.1801187
  entropy:             2.1230401
  heat_capacity:       7.2675085
  energy:            123.4603600

- temperature:       134.0000000
  free_energy:       123.1757612
  entropy:             2.2351142
  heat_capacity:       7.6408545
  energy:            123.4752665

- temperature:       136.0000000
  free_energy:       123.1711756
  entropy:             2.3511411
  heat_capacity:       8.0252861
  energy:            123.4909308

- temperature:       138.0000000
  free_energy:       123.1663540
  entropy:             2.4711670
  heat_capacity:       8.4207677
  energy:            123.5073750

- temperature:       140.0000000
  free_energy:       123.1612883
  entropy:             2.5952355
  heat_capacity:       8.8272530
  energy:            123.5246212

- temperature:       142.0000000
  free_energy:       123.1559703
  entropy:             2.7233875
  heat_capacity:       9.2446854
  energy:            123.5426913

- temperature:       144.0000000
  free_energy:       123.1503920
  entropy:             2.8556615
  heat_capacity:       9.6729982
  energy:            123.5616072

- temperature:       146.0000000
  free_energy:       123.1445449
  entropy:             2.9920934
  heat_capacity:      10.1121149
  energy:            123.5813905

- temperature:       148.0000000
  free_energy:       123.1384208
  entropy:             3.1327164
  heat_capacity:      10.5619497
  energy:            123.6020628

- temperature:       150.0000000
  free_energy:       123.1320112
  entropy:             3.2775613
  heat_capacity:      11.0224078
  energy:            123.6236454

- temperature:       152.0000000
  free_energy:       123.1253077
  entropy:             3.4266563
  heat_capacity:      11.4933855
  energy:            123.6461595

- temperature:       154.0000000
  free_energy:       123.1183017
  entropy:             3.5800270
  heat_capacity:      11.9747710
  energy:            123.6696259

- temperature:       156.0000000
  free_energy:       123.1109847
  entropy:             3.7376966
  heat_capacity:      12.4664442
  energy:            123.6940654

- temperature:       158.0000000
  free_energy:       123.1033481
  entropy:             3.8996859
  heat_capacity:      12.9682776
  energy:            123.7194985

- temperature:       160.0000000
  free_energy:       123.0953831
  entropy:             4.0660131
  heat_capacity:      13.4801361
  energy:            123.7459452

- temperature:       162.0000000
  free_energy:       123.0870811
  entropy:             4.2366942
  heat_capacity:      14.0018780
  energy:            123.7734256

- temperature:       164.0000000
  free_energy:       123.0784334
  entropy:             4.4117426
  heat_capacity:      14.5333545
  energy:            123.8019592

- temperature:       166.0000000
  free_energy:       123.0694312
  entropy:             4.5911696
  heat_capacity:      15.0744111
  energy:            123.8315654

- temperature:       168.0000000
  free_energy:       123.0600658
  entropy:             4.7749840
  heat_capacity:      15.6248868
  energy:            123.8622631

- temperature:       170.0000000
  free_energy:       123.0503284
  entropy:             4.9631926
  heat_capacity:      16.1846154
  energy:            123.8940711

- temperature:       172.0000000
  free_energy:       123.0402101
  entropy:             5.1557996
  heat_capacity:      16.7534253
  energy:            123.9270076

- temperature:       174.0000000
  free_energy:       123.0297022
  entropy:             5.3528075
  heat_capacity:      17.3311402
  energy:            123.9610907

- temperature:       176.0000000
  free_energy:       123.0187959
  entropy:             5.5542164
  heat_capacity:      17.9175790
  energy:            123.9963380

- temperature:       178.0000000
  free_energy:       123.0074824
  entropy:             5.7600242
  heat_capacity:      18.5125566
  energy:            124.0327668

- temperature:       180.0000000
  free_energy:       122.9957529
  entropy:             5.9702272
  heat_capacity:      19.1158838
  energy:            124.0703938

- temperature:       182.0000000
  free_energy:       122.9835986
  entropy:             6.1848194
  heat_capacity:      19.7273681
  energy:            124.1092357

- temperature:       184.0000000
  free_energy:       122.9710107
  entropy:             6.4037928
  heat_capacity:      20.3468136
  energy:            124.1493086

- temperature:       186.0000000
  free_energy:       122.9579805
  entropy:             6.6271378
  heat_capacity:      20.9740216
  energy:            124.1906282

- temperature:       188.0000000
  free_energy:       122.9444993
  entropy:             6.8548429
  heat_capacity:      21.6087907
  energy:            124.2332097

- temperature:       190.0000000
  free_energy:       122.9305582
  entropy:             7.0868946
  heat_capacity:      22.2509173
  energy:            124.2770682

- temperature:       192.0000000
  free_energy:       122.9161488
  entropy:             7.3232779
  heat_capacity:      22.9001958
  energy:            124.3222182

- temperature:       194.0000000
  free_energy:       122.9012623
  entropy:             7.5639762
  heat_capacity:      23.5564188
  energy:            124.3686736

- temperature:       196.0000000
  free_energy:       122.8858900
  entropy:             7.8089709
  heat_capacity:      24.2193777
  energy:            124.4164483

- temperature:       198.0000000
  free_energy:       122.8700235
  entropy:             8.0582423
  heat_capacity:      24.8888625
  energy:            124.4655555

- temperature:       200.0000000
  free_energy:       122.8536542
  entropy:             8.3117688
  heat_capacity:      25.5646625
  energy:            124.5160080

- temperature:       202.0000000
  free_energy:       122.8367736
  entropy:             8.5695277
  heat_capacity:      26.2465665
  energy:            124.5678182

- temperature:       204.0000000
  free_energy:       122.8193733
  entropy:             8.8314945
  heat_capacity:      26.9343628
  energy:            124.6209982

- temperature:       206.0000000
  free_energy:       122.8014449
  entropy:             9.0976437
  heat_capacity:      27.6278395
  energy:            124.6755595

- temperature:       208.0000000
  free_energy:       122.7829800
  entropy:             9.3679482
  heat_capacity:      28.3267849
  energy:            124.7315132

- temperature:       210.0000000
  free_energy:       122.7639703
  entropy:             9.6423799
  heat_capacity:      29.0309880
  energy:            124.7888701

- temperature:       212.0000000
  free_energy:       122.7444077
  entropy:             9.9209094
  heat_capacity:      29.7402377
  energy:            124.8476405

- temperature:       214.0000000
  free_energy:       122.7242840
  entropy:            10.2035061
  heat_capacity:      30.4543243
  energy:            124.9078343

- temperature:       216.0000000
  free_energy:       122.7035910
  entropy:            10.4901384
  heat_capacity:      31.1730388
  energy:            124.9694609

- temperature:       218.0000000
  free_energy:       122.6823207
  entropy:            10.7807735
  heat_capacity:      31.8961733
  energy:            125.0325294

- temperature:       220.0000000
  free_energy:       122.6604653
  entropy:            11.0753779
  heat_capacity:      32.6235214
  energy:            125.0970484

- temperature:       222.0000000
  free_energy:       122.6380166
  entropy:            11.3739168
  heat_capacity:      33.3548782
  energy:            125.1630261

- temperature:       224.0000000
  free_energy:       122.6149670
  entropy:            11.6763547
  heat_capacity:      34.0900404
  energy:            125.2304704

- temperature:       226.0000000
  free_energy:       122.5913086
  entropy:            11.9826552
  heat_capacity:      34.8288065
  energy:            125.2993887

- temperature:       228.0000000
  free_energy:       122.5670338
  entropy:            12.2927812
  heat_capacity:      35.5709771
  energy:            125.3697879

- temperature:       230.0000000
  free_energy:       122.5421350
  entropy:            12.6066947
  heat_capacity:      36.3163549
  energy:            125.4416747

- temperature:       232.0000000
  free_energy:       122.5166045
  entropy:            12.9243570
  heat_capacity:      37.0647447
  energy:            125.5150554

- temperature:       234.0000000
  free_energy:       122.4904351
  entropy:            13.2457288
  heat_capacity:      37.8159538
  energy:            125.5899356

- temperature:       236.0000000
  free_energy:       122.4636192
  entropy:            13.5707701
  heat_capacity:      38.5697920
  energy:            125.6663209

- temperature:       238.0000000
  free_energy:       122.4361496
  entropy:            13.8994405
  heat_capacity:      39.3260715
  energy:            125.7442164

- temperature:       240.0000000
  free_energy:       122.4080190
  entropy:            14.2316987
  heat_capacity:      40.0846073
  energy:            125.8236267

- temperature:       242.0000000
  free_energy:       122.3792204
  entropy:            14.5675033
  heat_capacity:      40.8452170
  energy:            125.9045562

- temperature:       244.0000000
  free_energy:       122.3497467
  entropy:            14.9068122
  heat_capacity:      41.6077212
  energy:            125.9870088

- temperature:       246.0000000
  free_energy:       122.3195909
  entropy:            15.2495829
  heat_capacity:      42.3719433
  energy:            126.0709882

- temperature:       248.0000000
  free_energy:       122.2887461
  entropy:            15.5957725
  heat_capacity:      43.1377096
  energy:            126.1564977

- temperature:       250.0000000
  free_energy:       122.2572055
  entropy:            15.9453379
  heat_capacity:      43.9048497
  energy:            126.2435400

- temperature:       252.0000000
  free_energy:       122.2249625
  entropy:            16.2982356
  heat_capacity:      44.6731960
  energy:            126.3321179

- temperature:       254.0000000
  free_energy:       122.1920104
  entropy:            16.6544216
  heat_capacity:      45.4425840
  energy:            126.4222335

- temperature:       256.0000000
  free_energy:       122.1583426
  entropy:            17.0138521
  heat_capacity:      46.2128526
  energy:            126.5138888

- temperature:       258.0000000
  free_energy:       122.1239528
  entropy:            17.3764827
  heat_capacity:      46.9838436
  energy:            126.6070854

- temperature:       260.0000000
  free_energy:       122.0888346
  entropy:            17.7422689
  heat_capacity:      47.7554023
  energy:            126.7018245

- temperature:       262.0000000
  free_energy:       122.0529817
  entropy:            18.1111663
  heat_capacity:      48.5273770
  energy:            126.7981073

- temperature:       264.0000000
  free_energy:       122.0163879
  entropy:            18.4831300
  heat_capacity:      49.2996195
  energy:            126.8959342

- temperature:       266.0000000
  free_energy:       121.9790472
  entropy:            18.8581153
  heat_capacity:      50.0719846
  energy:            126.9953058

- temperature:       268.0000000
  free_energy:       121.9409535
  entropy:            19.2360772
  heat_capacity:      50.8443306
  energy:            127.0962221

- temperature:       270.0000000
  free_energy:       121.9021009
  entropy:            19.6169709
  heat_capacity:      51.6165189
  energy:            127.1986830

- temperature:       272.0000000
  free_energy:       121.8624836
  entropy:            20.0007514
  heat_capacity:      52.3884144
  energy:            127.3026880

- temperature:       274.0000000
  free_energy:       121.8220960
  entropy:            20.3873738
  heat_capacity:      53.1598851
  energy:            127.4082364

- temperature:       276.0000000
  free_energy:       121.7809323
  entropy:            20.7767932
  heat_capacity:      53.9308023
  energy:            127.5153272

- temperature:       278.0000000
  free_energy:       121.7389870
  entropy:            21.1689647
  heat_capacity:      54.7010407
  energy:            127.6239592

- temperature:       280.0000000
  free_energy:       121.6962546
  entropy:            21.5638436
  heat_capacity:      55.4704780
  energy:            127.7341308

- temperature:       282.0000000
  free_energy:       121.6527298
  entropy:            21.9613852
  heat_capacity:      56.2389953
  energy:            127.8458405

- temperature:       284.0000000
  free_energy:       121.6084073
  entropy:            22.3615450
  heat_capacity:      57.0064769
  energy:            127.9590861

- temperature:       286.0000000
  free_energy:       121.5632819
  entropy:            22.7642786
  heat_capacity:      57.7728101
  energy:            128.0738656

- temperature:       288.0000000
  free_energy:       121.5173485
  entropy:            23.1695416
  heat_capacity:      58.5378857
  energy:            128.1901765

- temperature:       290.0000000
  free_energy:       121.4706021
  entropy:            23.5772901
  heat_capacity:      59.3015972
  energy:            128.3080162

- temperature:       292.0000000
  free_energy:       121.4230377
  entropy:            23.9874801
  heat_capacity:      60.0638416
  energy:            128.4273819

- temperature:       294.0000000
  free_energy:       121.3746506
  entropy:            24.4000679
  heat_capacity:      60.8245186
  energy:            128.5482706

- temperature:       296.0000000
  free_energy:       121.3254359
  entropy:            24.8150101
  heat_capacity:      61.5835312
  energy:            128.6706789

- temperature:       298.0000000
  free_energy:       121.2753890
  entropy:            25.2322634
  heat_capacity:      62.3407853
  energy:            128.7946035

- temperature:       300.0000000
  free_energy:       121.2245053
  entropy:            25.6517849
  heat_capacity:      63.0961896
  energy:            128.9200408

- temperature:       302.0000000
  free_energy:       121.1727804
  entropy:            26.0735317
  heat_capacity:      63.8496561
  energy:            129.0469870

- temperature:       304.0000000
  free_energy:       121.1202098
  entropy:            26.4974616
  heat_capacity:      64.6010992
  energy:            129.1754381

- temperature:       306.0000000
  free_energy:       121.0667891
  entropy:            26.9235322
  heat_capacity:      65.3504365
  energy:            129.3053900

- temperature:       308.0000000
  free_energy:       121.0125142
  entropy:            27.3517017
  heat_capacity:      66.0975881
  energy:            129.4368384

- temperature:       310.0000000
  free_energy:       120.9573809
  entropy:            27.7819286
  heat_capacity:      66.8424771
  energy:            129.5697788

- temperature:       312.0000000
  free_energy:       120.9013852
  entropy:            28.2141716
  heat_capacity:      67.5850292
  energy:            129.7042067

- temperature:       314.0000000
  free_energy:       120.8445229
  entropy:            28.6483898
  heat_capacity:      68.3251727
  energy:            129.8401173

- temperature:       316.0000000
  free_energy:       120.7867903
  entropy:            29.0845425
  heat_capacity:      69.0628385
  energy:            129.9775058

- temperature:       318.0000000
  free_energy:       120.7281835
  entropy:            29.5225896
  heat_capacity:      69.7979602
  energy:            130.1163670

- temperature:       320.0000000
  free_energy:       120.6686987
  entropy:            29.9624910
  heat_capacity:      70.5304737
  energy:            130.2566959

- temperature:       322.0000000
  free_energy:       120.6083323
  entropy:            30.4042074
  heat_capacity:      71.2603177
  energy:            130.3984871

- temperature:       324.0000000
  free_energy:       120.5470807
  entropy:            30.8476994
  heat_capacity:      71.9874329
  energy:            130.5417353

- temperature:       326.0000000
  free_energy:       120.4849404
  entropy:            31.2929282
  heat_capacity:      72.7117627
  energy:            130.6864350

- temperature:       328.0000000
  free_energy:       120.4219079
  entropy:            31.7398555
  heat_capacity:      73.4332526
  energy:            130.8325805

- temperature:       330.0000000
  free_energy:       120.3579798
  entropy:            32.1884431
  heat_capacity:      74.1518506
  energy:            130.9801661

- temperature:       332.0000000
  free_energy:       120.2931530
  entropy:            32.6386533
  heat_capacity:      74.8675068
  energy:            131.1291859

- temperature:       334.0000000
  free_energy:       120.2274242
  entropy:            33.0904488
  heat_capacity:      75.5801735
  energy:            131.2796341

- temperature:       336.0000000
  free_energy:       120.1607902
  entropy:            33.5437928
  heat_capacity:      76.2898051
  energy:            131.4315046

- temperature:       338.0000000
  free_energy:       120.0932480
  entropy:            33.9986487
  heat_capacity:      76.9963580
  energy:            131.5847913

- temperature:       340.0000000
  free_energy:       120.0247946
  entropy:            34.4549804
  heat_capacity:      77.6997910
  energy:            131.7394879

- temperature:       342.0000000
  free_energy:       119.9554271
  entropy:            34.9127520
  heat_capacity:      78.4000644
  energy:            131.8955883

- temperature:       344.0000000
  free_energy:       119.8851427
  entropy:            35.3719285
  heat_capacity:      79.0971409
  energy:            132.0530861

- temperature:       346.0000000
  free_energy:       119.8139385
  entropy:            35.8324747
  heat_capacity:      79.7909848
  energy:            132.2119747

- temperature:       348.0000000
  free_energy:       119.7418119
  entropy:            36.2943562
  heat_capacity:      80.4815623
  energy:            132.3722478

- temperature:       350.0000000
  free_energy:       119.6687602
  entropy:            36.7575388
  heat_capacity:      81.1688415
  energy:            132.5338988

- temperature:       352.0000000
  free_energy:       119.5947809
  entropy:            37.2219889
  heat_capacity:      81.8527923
  energy:            132.6969210

- temperature:       354.0000000
  free_energy:       119.5198714
  entropy:            37.6876731
  heat_capacity:      82.5333861
  energy:            132.8613077

- temperature:       356.0000000
  free_energy:       119.4440294
  entropy:            38.1545586