<?xml version="1.0" encoding="ISO-8859-1"?>
<modeling>
 <generator>
  <i name="program" type="string">vasp </i>
  <i name="version" type="string">5.4.4.18Apr17-6-g9f103f2a35  </i>
  <i name="subversion" type="string">(build Mar 12 2022 03:36:41) complex            parallel </i>
  <i name="platform" type="string">IFC19.0.3.199_CrayMPICH7.7.19 </i>
  <i name="date" type="string">2022 12 02 </i>
  <i name="time" type="string">12:01:43 </i>
 </generator>
 <incar>
  <i type="string" name="PREC">accurate</i>
  <i type="int" name="IALGO">    38</i>
  <i type="logical" name="ADDGRID"> T  </i>
  <i type="int" name="IBRION">     8</i>
  <i name="EDIFF">      0.00000001</i>
  <i type="logical" name="LREAL"> F  </i>
  <i type="int" name="ISMEAR">     0</i>
  <i name="SIGMA">      0.06000000</i>
  <i type="logical" name="LWAVE"> F  </i>
  <i type="logical" name="LCHARG"> F  </i>
  <v type="int" name="KPOINT_BSE">    -1     0     0     0</v>
 </incar>
 <structure name="primitive_cell" >
  <crystal>
   <varray name="basis" >
    <v>       1.88261171       0.00000000       1.79499968 </v>
    <v>      -1.88261171       0.00000000       1.79499968 </v>
    <v>       0.00000000      -1.88261171      -1.79499968 </v>
   </varray>
   <i name="volume">     12.72377216 </i>
   <varray name="rec_basis" >
    <v>       0.26558849      -0.26558849       0.27855158 </v>
    <v>      -0.26558849      -0.26558849       0.27855158 </v>
    <v>       0.00000000      -0.53117698       0.00000000 </v>
   </varray>
  </crystal>
  <varray name="positions" >
   <v>      -0.25000000       0.25000000      -0.50000000 </v>
   <v>      -0.50000000      -0.50000000       0.00000000 </v>
  </varray>
 </structure>
 <varray name="primitive_index" >
  <v type="int" >        1 </v>
  <v type="int" >       11 </v>
 </varray>
 <kpoints>
  <generation param="Gamma">
   <v type="int" name="divisions">       4        4        4 </v>
   <v name="usershift">      0.00000000       0.00000000       0.00000000 </v>
   <v name="genvec1">      0.25000000       0.00000000       0.00000000 </v>
   <v name="genvec2">      0.00000000       0.25000000       0.00000000 </v>
   <v name="genvec3">      0.00000000       0.00000000       0.25000000 </v>
   <v name="shift">      0.00000000       0.00000000       0.00000000 </v>
  </generation>
  <varray name="kpointlist" >
   <v>       0.00000000       0.00000000       0.00000000 </v>
   <v>       0.25000000       0.00000000       0.00000000 </v>
   <v>       0.50000000       0.00000000       0.00000000 </v>
   <v>       0.25000000       0.25000000       0.00000000 </v>
   <v>       0.50000000       0.25000000       0.00000000 </v>
   <v>       0.50000000       0.50000000       0.00000000 </v>
   <v>       0.00000000       0.00000000       0.25000000 </v>
   <v>       0.25000000       0.00000000       0.25000000 </v>
   <v>       0.50000000       0.00000000       0.25000000 </v>
   <v>       0.25000000       0.25000000       0.25000000 </v>
   <v>       0.50000000       0.25000000       0.25000000 </v>
   <v>       0.50000000       0.50000000       0.25000000 </v>
   <v>       0.00000000       0.00000000       0.50000000 </v>
   <v>       0.25000000       0.00000000       0.50000000 </v>
   <v>       0.50000000       0.00000000       0.50000000 </v>
   <v>       0.25000000       0.25000000       0.50000000 </v>
   <v>       0.50000000       0.25000000       0.50000000 </v>
   <v>       0.50000000       0.50000000       0.50000000 </v>
  </varray>
  <varray name="weights" >
   <v>       0.01562500 </v>
   <v>       0.06250000 </v>
   <v>       0.03125000 </v>
   <v>       0.06250000 </v>
   <v>       0.06250000 </v>
   <v>       0.01562500 </v>
   <v>       0.03125000 </v>
   <v>       0.12500000 </v>
   <v>       0.06250000 </v>
   <v>       0.12500000 </v>
   <v>       0.12500000 </v>
   <v>       0.03125000 </v>
   <v>       0.01562500 </v>
   <v>       0.06250000 </v>
   <v>       0.03125000 </v>
   <v>       0.06250000 </v>
   <v>       0.06250000 </v>
   <v>       0.01562500 </v>
  </varray>
 </kpoints>
 <parameters>
  <separator name="general" >
   <i type="string" name="SYSTEM">unknown system</i>
   <i type="logical" name="LCOMPAT"> F  </i>
  </separator>
  <separator name="electronic" >
   <i type="string" name="PREC">accura</i>
   <i name="ENMAX">    400.00000000</i>
   <i name="ENAUG">    644.87300000</i>
   <i name="EDIFF">      0.00000001</i>
   <i type="int" name="IALGO">    38</i>
   <i type="int" name="IWAVPR">    11</i>
   <i type="int" name="NBANDS">   192</i>
   <i name="NELECT">    256.00000000</i>
   <i type="int" name="TURBO">     0</i>
   <i type="int" name="IRESTART">     0</i>
   <i type="int" name="NREBOOT">     0</i>
   <i type="int" name="NMIN">     0</i>
   <i name="EREF">      0.00000000</i>
   <separator name="electronic smearing" >
    <i type="int" name="ISMEAR">     0</i>
    <i name="SIGMA">      0.06000000</i>
    <i name="KSPACING">      0.50000000</i>
    <i type="logical" name="KGAMMA"> T  </i>
   </separator>
   <separator name="electronic projectors" >
    <i type="logical" name="LREAL"> F  </i>
    <v name="ROPT">      0.00000000</v>
    <i type="int" name="LMAXPAW">  -100</i>
    <i type="int" name="LMAXMIX">     2</i>
    <i type="logical" name="NLSPLINE"> F  </i>
   </separator>
   <separator name="electronic startup" >
    <i type="int" name="ISTART">     0</i>
    <i type="int" name="ICHARG">     2</i>
    <i type="int" name="INIWAV">     1</i>
   </separator>
   <separator name="electronic spin" >
    <i type="int" name="ISPIN">     1</i>
    <i type="logical" name="LNONCOLLINEAR"> F  </i>
    <v name="MAGMOM">      1.00000000      1.00000000      1.00000000      1.00000000      1.00000000      1.00000000      1.00000000      1.00000000      1.00000000      1.00000000      1.00000000      1.00000000      1.00000000      1.00000000      1.00000000      1.00000000      1.00000000      1.00000000      1.00000000      1.00000000
      1.00000000      1.00000000      1.00000000      1.00000000      1.00000000      1.00000000      1.00000000      1.00000000      1.00000000      1.00000000      1.00000000      1.00000000      1.00000000      1.00000000      1.00000000      1.00000000      1.00000000      1.00000000      1.00000000      1.00000000
      1.00000000      1.00000000      1.00000000      1.00000000      1.00000000      1.00000000      1.00000000      1.00000000      1.00000000      1.00000000      1.00000000      1.00000000      1.00000000      1.00000000      1.00000000      1.00000000      1.00000000      1.00000000      1.00000000      1.00000000
      1.00000000      1.00000000      1.00000000      1.00000000</v>
    <i name="NUPDOWN">     -1.00000000</i>
    <i type="logical" name="LSORBIT"> F  </i>
    <v name="SAXIS">      0.00000000      0.00000000      1.00000000</v>
    <i type="logical" name="LSPIRAL"> F  </i>
    <v name="QSPIRAL">      0.00000000      0.00000000      0.00000000</v>
    <i type="logical" name="LZEROZ"> F  </i>
   </separator>
   <separator name="electronic exchange-correlation" >
    <i type="logical" name="LASPH"> F  </i>
    <i type="logical" name="LMETAGGA"> F  </i>
   </separator>
   <separator name="electronic convergence" >
    <i type="int" name="NELM">    60</i>
    <i type="int" name="NELMDL">    -5</i>
    <i type="int" name="NELMIN">     2</i>
    <i name="ENINI">    400.00000000</i>
    <separator name="electronic convergence detail" >
     <i type="logical" name="LDIAG"> T  </i>
     <i type="logical" name="LSUBROT"> F  </i>
     <i name="WEIMIN">      0.00100000</i>
     <i name="EBREAK">      0.00000000</i>
     <i name="DEPER">      0.30000000</i>
     <i type="int" name="NRMM">     4</i>
     <i name="TIME">      0.40000000</i>
    </separator>
   </separator>
   <separator name="electronic mixer" >
    <i name="AMIX">      0.40000000</i>
    <i name="BMIX">      1.00000000</i>
    <i name="AMIN">      0.10000000</i>
    <i name="AMIX_MAG">      1.60000000</i>
    <i name="BMIX_MAG">      1.00000000</i>
    <separator name="electronic mixer details" >
     <i type="int" name="IMIX">     4</i>
     <i type="logical" name="MIXFIRST"> F  </i>
     <i type="int" name="MAXMIX">   -45</i>
     <i name="WC">    100.00000000</i>
     <i type="int" name="INIMIX">     1</i>
     <i type="int" name="MIXPRE">     1</i>
     <i type="int" name="MREMOVE">     5</i>
    </separator>
   </separator>
   <separator name="electronic dipolcorrection" >
    <i type="logical" name="LDIPOL"> F  </i>
    <i type="logical" name="LMONO"> F  </i>
    <i type="int" name="IDIPOL">     0</i>
    <i name="EPSILON">      1.00000000</i>
    <v name="DIPOL">   -100.00000000   -100.00000000   -100.00000000</v>
    <i name="EFIELD">      0.00000000</i>
   </separator>
  </separator>
  <separator name="grids" >
   <i type="int" name="NGX">    50</i>
   <i type="int" name="NGY">    50</i>
   <i type="int" name="NGZ">    48</i>
   <i type="int" name="NGXF">   100</i>
   <i type="int" name="NGYF">   100</i>
   <i type="int" name="NGZF">    96</i>
   <i type="logical" name="ADDGRID"> T  </i>
  </separator>
  <separator name="ionic" >
   <i type="int" name="NSW">     1</i>
   <i type="int" name="IBRION">     8</i>
   <i type="int" name="MDALGO">     0</i>
   <i type="int" name="ISIF">     2</i>
   <i name="PSTRESS">      0.00000000</i>
   <i name="EDIFFG">      0.00000010</i>
   <i type="int" name="NFREE">     0</i>
   <i name="POTIM">      0.50000000</i>
   <i name="SMASS">     -3.00000000</i>
   <i name="SCALEE">      1.00000000</i>
  </separator>
  <separator name="ionic md" >
   <i name="TEBEG">      0.00010000</i>
   <i name="TEEND">      0.00010000</i>
   <i type="int" name="NBLOCK">     1</i>
   <i type="int" name="KBLOCK">     1</i>
   <i type="int" name="NPACO">   256</i>
   <i name="APACO">     16.00000000</i>
  </separator>
  <separator name="symmetry" >
   <i type="int" name="ISYM">     2</i>
   <i name="SYMPREC">      0.00001000</i>
  </separator>
  <separator name="dos" >
   <i type="int" name="LORBIT">     0</i>
   <v name="RWIGS">     -1.00000000</v>
   <i type="int" name="NEDOS">   301</i>
   <i name="EMIN">     10.00000000</i>
   <i name="EMAX">    -10.00000000</i>
   <i name="EFERMI">      0.00000000</i>
  </separator>
  <separator name="writing" >
   <i type="int" name="NWRITE">     2</i>
   <i type="logical" name="LWAVE"> F  </i>
   <i type="logical" name="LDOWNSAMPLE"> F  </i>
   <i type="logical" name="LCHARG"> F  </i>
   <i type="logical" name="LPARD"> F  </i>
   <i type="logical" name="LVTOT"> F  </i>
   <i type="logical" name="LVHAR"> F  </i>
   <i type="logical" name="LELF"> F  </i>
   <i type="logical" name="LOPTICS"> F  </i>
   <v name="STM">      0.00000000      0.00000000      0.00000000      0.00000000      0.00000000      0.00000000      0.00000000</v>
  </separator>
  <separator name="performance" >
   <i type="int" name="NPAR">    32</i>
   <i type="int" name="NSIM">     4</i>
   <i type="int" name="NBLK">    -1</i>
   <i type="logical" name="LPLANE"> T  </i>
   <i type="logical" name="LSCALAPACK"> T  </i>
   <i type="logical" name="LSCAAWARE"> F  </i>
   <i type="logical" name="LSCALU"> F  </i>
   <i type="logical" name="LASYNC"> F  </i>
   <i type="logical" name="LORBITALREAL"> F  </i>
  </separator>
  <separator name="miscellaneous" >
   <i type="int" name="IDIOT">     3</i>
   <i type="int" name="ISPECIAL">     0</i>
   <i type="logical" name="LMUSIC"> F  </i>
   <v name="POMASS">     12.01100000</v>
   <v name="DARWINR">      0.00000000</v>
   <v name="DARWINV">      1.00000000</v>
   <i type="logical" name="LCORR"> T  </i>
  </separator>
  <i type="logical" name="GGA_COMPAT"> T  </i>
  <i type="logical" name="LBERRY"> F  </i>
  <i type="int" name="ICORELEVEL">     0</i>
  <i type="logical" name="LDAU"> F  </i>
  <i type="int" name="I_CONSTRAINED_M">     0</i>
  <separator name="electronic exchange-correlation" >
   <i type="string" name="GGA">--</i>
   <i type="int" name="VOSKOWN">     0</i>
   <i type="logical" name="LHFCALC"> F  </i>
   <i type="string" name="PRECFOCK"></i>
   <i type="logical" name="LSYMGRAD"> F  </i>
   <i type="logical" name="LHFONE"> F  </i>
   <i type="logical" name="LRHFCALC"> F  </i>
   <i type="logical" name="LTHOMAS"> F  </i>
   <i type="logical" name="LMODELHF"> F  </i>
   <i name="ENCUT4O">     -1.00000000</i>
   <i type="int" name="EXXOEP">     0</i>
   <i type="int" name="FOURORBIT">     0</i>
   <i name="AEXX">      0.00000000</i>
   <i name="HFALPHA">      0.00000000</i>
   <i name="MCALPHA">      0.00000000</i>
   <i name="ALDAX">      1.00000000</i>
   <i name="AGGAX">      1.00000000</i>
   <i name="ALDAC">      1.00000000</i>
   <i name="AGGAC">      1.00000000</i>
   <i type="int" name="NKREDX">     1</i>
   <i type="int" name="NKREDY">     1</i>
   <i type="int" name="NKREDZ">     1</i>
   <i type="logical" name="SHIFTRED"> F  </i>
   <i type="logical" name="ODDONLY"> F  </i>
   <i type="logical" name="EVENONLY"> F  </i>
   <i type="int" name="LMAXFOCK">     0</i>
   <i type="int" name="NMAXFOCKAE">     0</i>
   <i type="logical" name="LFOCKAEDFT"> F  </i>
   <i name="HFSCREEN">      0.00000000</i>
   <i name="HFSCREENC">      0.00000000</i>
   <i type="int" name="NBANDSGWLOW">     0</i>
  </separator>
  <separator name="vdW DFT" >
   <i type="logical" name="LUSE_VDW"> F  </i>
   <i name="Zab_VDW">     -0.84910000</i>
   <i name="PARAM1">      0.12340000</i>
   <i name="PARAM2">      1.00000000</i>
   <i name="PARAM3">      0.00000000</i>
  </separator>
  <separator name="model GW" >
   <i type="int" name="MODEL_GW">     0</i>
   <i name="MODEL_EPS0">      3.81713165</i>
   <i name="MODEL_ALPHA">      1.00000000</i>
  </separator>
  <separator name="linear response parameters" >
   <i type="logical" name="LEPSILON"> F  </i>
   <i type="logical" name="LRPA"> F  </i>
   <i type="logical" name="LNABLA"> F  </i>
   <i type="logical" name="LVEL"> F  </i>
   <i type="int" name="KINTER">     0</i>
   <i name="CSHIFT">      0.10000000</i>
   <i name="OMEGAMAX">     -1.00000000</i>
   <i name="DEG_THRESHOLD">      0.00200000</i>
   <i name="RTIME">     -0.10000000</i>
   <i name="WPLASMAI">      0.00000000</i>
   <v name="DFIELD">      0.00000000      0.00000000      0.00000000</v>
   <v name="WPLASMA">      0.00000000      0.00000000      0.00000000      0.00000000      0.00000000      0.00000000      0.00000000      0.00000000      0.00000000</v>
  </separator>
  <separator name="orbital magnetization" >
   <i type="logical" name="NUCIND"> F  </i>
   <v name="MAGPOS">      0.00000000      0.00000000      0.00000000</v>
   <i type="logical" name="LNICSALL"> T  </i>
   <i type="logical" name="ORBITALMAG"> F  </i>
   <i type="logical" name="LMAGBLOCH"> F  </i>
   <i type="logical" name="LCHIMAG"> F  </i>
   <i type="logical" name="LGAUGE"> T  </i>
   <i type="int" name="MAGATOM">     0</i>
   <v name="MAGDIPOL">      0.00000000      0.00000000      0.00000000</v>
   <v name="AVECCONST">      0.00000000      0.00000000      0.00000000</v>
  </separator>
  <separator name="response functions" >
   <i type="logical" name="LADDER"> F  </i>
   <i type="logical" name="LRPAFORCE"> F  </i>
   <i type="logical" name="LFXC"> F  </i>
   <i type="logical" name="LHARTREE"> T  </i>
   <i type="int" name="IBSE">     0</i>
   <v type="int" name="KPOINT">    -1     0     0     0</v>
   <i type="logical" name="LTCTE"> F  </i>
   <i type="logical" name="LTETE"> F  </i>
   <i type="logical" name="LTRIPLET"> F  </i>
   <i type="logical" name="LFXCEPS"> F  </i>
   <i type="logical" name="LFXHEG"> F  </i>
   <i type="int" name="NATURALO">     2</i>
   <i type="logical" name="L2ORDER"> F  </i>
   <i type="logical" name="LMP2LT"> F  </i>
   <i type="logical" name="LUSEW"> F  </i>
   <i name="ENCUTGW">     -2.00000000</i>
   <i name="ENCUTGWSOFT">     -2.00000000</i>
   <i name="ENCUTLF">     -1.00000000</i>
   <i type="int" name="LMAXMP2">    -1</i>
   <i name="SCISSOR">      0.00000000</i>
   <i type="int" name="NOMEGA">     0</i>
   <i type="int" name="NOMEGAR">     0</i>
   <i type="int" name="NBANDSGW">    -1</i>
   <i type="int" name="NBANDSO">    -1</i>
   <i type="int" name="NBANDSV">    -1</i>
   <i type="int" name="NELM">     1</i>
   <i type="int" name="NELMHF">     1</i>
   <i type="int" name="DIM">     3</i>
   <i type="int" name="ANTIRES">     0</i>
   <i name="OMEGAMAX">    -30.00000000</i>
   <i name="OMEGAMIN">    -30.00000000</i>
   <i name="OMEGATL">   -200.00000000</i>
   <i type="int" name="OMEGAGRID">   140</i>
   <i name="CSHIFT">     -0.10000000</i>
   <i type="logical" name="SELFENERGY"> F  </i>
   <i type="logical" name="LSPECTRAL"> F  </i>
   <i type="logical" name="LSPECTRALGW"> F  </i>
   <i type="logical" name="LSINGLES"> F  </i>
   <i type="logical" name="LFERMIGW"> F  </i>
   <i type="logical" name="ODDONLYGW"> F  </i>
   <i type="logical" name="EVENONLYGW"> F  </i>
   <i type="int" name="NKREDLFX">     1</i>
   <i type="int" name="NKREDLFY">     1</i>
   <i type="int" name="NKREDLFZ">     1</i>
   <i type="int" name="MAXMEM">  2800</i>
   <i type="int" name="TELESCOPE">     0</i>
   <i type="int" name="TAUPAR">     1</i>
   <i type="int" name="OMEGAPAR">    -1</i>
   <i name="LAMBDA">      1.00000000</i>
  </separator>
  <separator name="External order field" >
   <i name="OFIELD_KAPPA">      0.00000000</i>
   <v name="OFIELD_K">      0.00000000      0.00000000      0.00000000</v>
   <i name="OFIELD_Q6_NEAR">      0.00000000</i>
   <i name="OFIELD_Q6_FAR">      0.00000000</i>
   <i name="OFIELD_A">      0.00000000</i>
  </separator>
 </parameters>
 <atominfo>
  <atoms>      64 </atoms>
  <types>       1 </types>
  <array name="atoms" >
   <dimension dim="1">ion</dimension>
   <field type="string">element</field>
   <field type="int">atomtype</field>
   <set>
    <rc><c>C </c><c>   1</c></rc>
    <rc><c>C </c><c>   1</c></rc>
    <rc><c>C </c><c>   1</c></rc>
    <rc><c>C </c><c>   1</c></rc>
    <rc><c>C </c><c>   1</c></rc>
    <rc><c>C </c><c>   1</c></rc>
    <rc><c>C </c><c>   1</c></rc>
    <rc><c>C </c><c>   1</c></rc>
    <rc><c>C </c><c>   1</c></rc>
    <rc><c>C </c><c>   1</c></rc>
    <rc><c>C </c><c>   1</c></rc>
    <rc><c>C </c><c>   1</c></rc>
    <rc><c>C </c><c>   1</c></rc>
    <rc><c>C </c><c>   1</c></rc>
    <rc><c>C </c><c>   1</c></rc>
    <rc><c>C </c><c>   1</c></rc>
    <rc><c>C </c><c>   1</c></rc>
    <rc><c>C </c><c>   1</c></rc>
    <rc><c>C </c><c>   1</c></rc>
    <rc><c>C </c><c>   1</c></rc>
    <rc><c>C </c><c>   1</c></rc>
    <rc><c>C </c><c>   1</c></rc>
    <rc><c>C </c><c>   1</c></rc>
    <rc><c>C </c><c>   1</c></rc>
    <rc><c>C </c><c>   1</c></rc>
    <rc><c>C </c><c>   1</c></rc>
    <rc><c>C </c><c>   1</c></rc>
    <rc><c>C </c><c>   1</c></rc>
    <rc><c>C </c><c>   1</c></rc>
    <rc><c>C </c><c>   1</c></rc>
    <rc><c>C </c><c>   1</c></rc>
    <rc><c>C </c><c>   1</c></rc>
    <rc><c>C </c><c>   1</c></rc>
    <rc><c>C </c><c>   1</c></rc>
    <rc><c>C </c><c>   1</c></rc>
    <rc><c>C </c><c>   1</c></rc>
    <rc><c>C </c><c>   1</c></rc>
    <rc><c>C </c><c>   1</c></rc>
    <rc><c>C </c><c>   1</c></rc>
    <rc><c>C </c><c>   1</c></rc>
    <rc><c>C </c><c>   1</c></rc>
    <rc><c>C </c><c>   1</c></rc>
    <rc><c>C </c><c>   1</c></rc>
    <rc><c>C </c><c>   1</c></rc>
    <rc><c>C </c><c>   1</c></rc>
    <rc><c>C </c><c>   1</c></rc>
    <rc><c>C </c><c>   1</c></rc>
    <rc><c>C </c><c>   1</c></rc>
    <rc><c>C </c><c>   1</c></rc>
    <rc><c>C </c><c>   1</c></rc>
    <rc><c>C </c><c>   1</c></rc>
    <rc><c>C </c><c>   1</c></rc>
    <rc><c>C </c><c>   1</c></rc>
    <rc><c>C </c><c>   1</c></rc>
    <rc><c>C </c><c>   1</c></rc>
    <rc><c>C </c><c>   1</c></rc>
    <rc><c>C </c><c>   1</c></rc>
    <rc><c>C </c><c>   1</c></rc>
    <rc><c>C </c><c>   1</c></rc>
    <rc><c>C </c><c>   1</c></rc>
    <rc><c>C </c><c>   1</c></rc>
    <rc><c>C </c><c>   1</c></rc>
    <rc><c>C </c><c>   1</c></rc>
    <rc><c>C </c><c>   1</c></rc>
   </set>
  </array>
  <array name="atomtypes" >
   <dimension dim="1">type</dimension>
   <field type="int">atomspertype</field>
   <field type="string">element</field>
   <field>mass</field>
   <field>valence</field>
   <field type="string">pseudopotential</field>
   <set>
    <rc><c>  64</c><c>C </c><c>     12.01100000</c><c>      4.00000000</c><c> PAW_PBE C 08Apr2002                    </c></rc>
   </set>
  </array>
 </atominfo>
 <structure name="initialpos" >
  <crystal>
   <varray name="basis" >
    <v>       7.53044685       0.00000000       0.00000000 </v>
    <v>       0.00000000       7.53044685       0.00000000 </v>
    <v>       0.00000000       0.00000000       7.17999872 </v>
   </varray>
   <i name="volume">    407.16070905 </i>
   <varray name="rec_basis" >
    <v>       0.13279424       0.00000000       0.00000000 </v>
    <v>       0.00000000       0.13279424       0.00000000 </v>
    <v>       0.00000000       0.00000000       0.13927579 </v>
   </varray>
  </crystal>
  <varray name="positions" >
   <v>       0.12500000       0.37500000       0.12500000 </v>
   <v>       0.62500000       0.37500000       0.12500000 </v>
   <v>       0.12500000       0.87500000       0.12500000 </v>
   <v>       0.62500000       0.87500000       0.12500000 </v>
   <v>       0.12500000       0.37500000       0.62500000 </v>
   <v>       0.62500000       0.37500000       0.62500000 </v>
   <v>       0.12500000       0.87500000       0.62500000 </v>
   <v>       0.62500000       0.87500000       0.62500000 </v>
   <v>       0.00000000       0.00000000       0.25000000 </v>
   <v>       0.50000000       0.00000000       0.25000000 </v>
   <v>       0.00000000       0.50000000       0.25000000 </v>
   <v>       0.50000000       0.50000000       0.25000000 </v>
   <v>       0.00000000       0.00000000       0.75000000 </v>
   <v>       0.50000000       0.00000000       0.75000000 </v>
   <v>       0.00000000       0.50000000       0.75000000 </v>
   <v>       0.50000000       0.50000000       0.75000000 </v>
   <v>       0.12500000       0.12500000       0.37500000 </v>
   <v>       0.62500000       0.12500000       0.37500000 </v>
   <v>       0.12500000       0.62500000       0.37500000 </v>
   <v>       0.62500000       0.62500000       0.37500000 </v>
   <v>       0.12500000       0.12500000       0.87500000 </v>
   <v>       0.62500000       0.12500000       0.87500000 </v>
   <v>       0.12500000       0.62500000       0.87500000 </v>
   <v>       0.62500000       0.62500000       0.87500000 </v>
   <v>       0.00000000       0.25000000       0.00000000 </v>
   <v>       0.50000000       0.25000000       0.00000000 </v>
   <v>       0.00000000       0.75000000       0.00000000 </v>
   <v>       0.50000000       0.75000000       0.00000000 </v>
   <v>       0.00000000       0.25000000       0.50000000 </v>
   <v>       0.50000000       0.25000000       0.50000000 </v>
   <v>       0.00000000       0.75000000       0.50000000 </v>
   <v>       0.50000000       0.75000000       0.50000000 </v>
   <v>       0.37500000       0.37500000       0.37500000 </v>
   <v>       0.87500000       0.37500000       0.37500000 </v>
   <v>       0.37500000       0.87500000       0.37500000 </v>
   <v>       0.87500000       0.87500000       0.37500000 </v>
   <v>       0.37500000       0.37500000       0.87500000 </v>
   <v>       0.87500000       0.37500000       0.87500000 </v>
   <v>       0.37500000       0.87500000       0.87500000 </v>
   <v>       0.87500000       0.87500000       0.87500000 </v>
   <v>       0.25000000       0.00000000       0.00000000 </v>
   <v>       0.75000000       0.00000000       0.00000000 </v>
   <v>       0.25000000       0.50000000       0.00000000 </v>
   <v>       0.75000000       0.50000000       0.00000000 </v>
   <v>       0.25000000       0.00000000       0.50000000 </v>
   <v>       0.75000000       0.00000000       0.50000000 </v>
   <v>       0.25000000       0.50000000       0.50000000 </v>
   <v>       0.75000000       0.50000000       0.50000000 </v>
   <v>       0.37500000       0.12500000       0.12500000 </v>
   <v>       0.87500000       0.12500000       0.12500000 </v>
   <v>       0.37500000       0.62500000       0.12500000 </v>
   <v>       0.87500000       0.62500000       0.12500000 </v>
   <v>       0.37500000       0.12500000       0.62500000 </v>
   <v>       0.87500000       0.12500000       0.62500000 </v>
   <v>       0.37500000       0.62500000       0.62500000 </v>
   <v>       0.87500000       0.62500000       0.62500000 </v>
   <v>       0.25000000       0.25000000       0.25000000 </v>
   <v>       0.75000000       0.25000000       0.25000000 </v>
   <v>       0.25000000       0.75000000       0.25000000 </v>
   <v>       0.75000000       0.75000000       0.25000000 </v>
   <v>       0.25000000       0.25000000       0.75000000 </v>
   <v>       0.75000000       0.25000000       0.75000000 </v>
   <v>       0.25000000       0.75000000       0.75000000 </v>
   <v>       0.75000000       0.75000000       0.75000000 </v>
  </varray>
 </structure>
 <calculation>
  <scstep>
   <time name="dav">   12.17   12.19</time>
   <time name="total">   12.29   12.40</time>
   <energy>
    <i name="alphaZ">    819.68309890 </i>
    <i name="ewald"> -10720.50894871 </i>
    <i name="hartreedc">   -645.49361412 </i>
    <i name="XCdc">    892.49817411 </i>
    <i name="pawpsdc">   2421.21235816 </i>
    <i name="pawaedc">  -2494.84305711 </i>
    <i name="eentropy">     -0.00357306 </i>
    <i name="bandstr">    807.04828470 </i>
    <i name="atom">   9416.14232778 </i>
    <i name="e_fr_energy">    495.73505065 </i>
    <i name="e_wo_entrp">    495.73862371 </i>
    <i name="e_0_energy">    495.73683718 </i>
   </energy>
  </scstep>
  <scstep>
   <time name="dav">   15.17   15.17</time>
   <time name="total">   15.17   15.17</time>
   <energy>
    <i name="e_fr_energy">   -544.95478462 </i>
    <i name="e_wo_entrp">   -544.95478462 </i>
    <i name="e_0_energy">   -544.95478462 </i>
   </energy>
  </scstep>
  <scstep>
   <time name="dav">   15.31   15.31</time>
   <time name="total">   15.31   15.32</time>
   <energy>
    <i name="e_fr_energy">   -588.14876692 </i>
    <i name="e_wo_entrp">   -588.14876692 </i>
    <i name="e_0_energy">   -588.14876692 </i>
   </energy>
  </scstep>
  <scstep>
   <time name="dav">   15.60   15.60</time>
   <time name="total">   15.60   15.60</time>
   <energy>
    <i name="e_fr_energy">   -588.70192480 </i>
    <i name="e_wo_entrp">   -588.70192480 </i>
    <i name="e_0_energy">   -588.70192480 </i>
   </energy>
  </scstep>
  <scstep>
   <time name="dav">   14.47   14.47</time>
   <time name="total">   14.97   14.97</time>
   <energy>
    <i name="e_fr_energy">   -588.71206703 </i>
    <i name="e_wo_entrp">   -588.71206703 </i>
    <i name="e_0_energy">   -588.71206703 </i>
   </energy>
  </scstep>
  <scstep>
   <time name="dav">   13.92   13.92</time>
   <time name="total">   14.54   14.54</time>
   <energy>
    <i name="e_fr_energy">   -578.38109969 </i>
    <i name="e_wo_entrp">   -578.38109969 </i>
    <i name="e_0_energy">   -578.38109969 </i>
   </energy>
  </scstep>
  <scstep>
   <time name="dav">   13.83   13.83</time>
   <time name="total">   14.45   14.45</time>
   <energy>
    <i name="e_fr_energy">   -574.88214331 </i>
    <i name="e_wo_entrp">   -574.88214331 </i>
    <i name="e_0_energy">   -574.88214331 </i>
   </energy>
  </scstep>
  <scstep>
   <time name="dav">   14.78   14.78</time>
   <time name="total">   15.40   15.40</time>
   <energy>
    <i name="e_fr_energy">   -574.92984041 </i>
    <i name="e_wo_entrp">   -574.92984041 </i>
    <i name="e_0_energy">   -574.92984041 </i>
   </energy>
  </scstep>
  <scstep>
   <time name="dav">   15.16   15.16</time>
   <time name="total">   15.77   15.78</time>
   <energy>
    <i name="e_fr_energy">   -574.93202115 </i>
    <i name="e_wo_entrp">   -574.93202115 </i>
    <i name="e_0_energy">   -574.93202115 </i>
   </energy>
  </scstep>
  <scstep>
   <time name="dav">   14.41   14.42</time>
   <time name="total">   15.03   15.04</time>
   <energy>
    <i name="e_fr_energy">   -574.93248194 </i>
    <i name="e_wo_entrp">   -574.93248194 </i>
    <i name="e_0_energy">   -574.93248194 </i>
   </energy>
  </scstep>
  <scstep>
   <time name="dav">   15.39   15.39</time>
   <time name="total">   16.00   16.01</time>
   <energy>
    <i name="e_fr_energy">   -574.93248431 </i>
    <i name="e_wo_entrp">   -574.93248431 </i>
    <i name="e_0_energy">   -574.93248431 </i>
   </energy>
  </scstep>
  <scstep>
   <time name="dav">   14.84   14.84</time>
   <time name="total">   15.45   15.45</time>
   <energy>
    <i name="e_fr_energy">   -574.93248490 </i>
    <i name="e_wo_entrp">   -574.93248490 </i>
    <i name="e_0_energy">   -574.93248490 </i>
   </energy>
  </scstep>
  <scstep>
   <time name="dav">   12.91   12.91</time>
   <time name="total">   13.53   13.53</time>
   <energy>
    <i name="e_fr_energy">   -574.93248504 </i>
    <i name="e_wo_entrp">   -574.93248504 </i>
    <i name="e_0_energy">   -574.93248504 </i>
   </energy>
  </scstep>
  <scstep>
   <time name="dav">   11.81   11.81</time>
   <time name="total">   11.92   11.92</time>
   <energy>
    <i name="alphaZ">    819.68309890 </i>
    <i name="ewald"> -10720.50894871 </i>
    <i name="hartreedc">   -894.37198048 </i>
    <i name="XCdc">    915.75383772 </i>
    <i name="pawpsdc">   3776.73582941 </i>
    <i name="pawaedc">  -3855.53707567 </i>
    <i name="eentropy">     -0.00000000 </i>
    <i name="bandstr">    -32.82957397 </i>
    <i name="atom">   9416.14232778 </i>
    <i name="e_fr_energy">   -574.93248503 </i>
    <i name="e_wo_entrp">   -574.93248503 </i>
    <i name="e_0_energy">   -574.93248503 </i>
   </energy>
  </scstep>
  <structure>
   <crystal>
    <varray name="basis" >
     <v>       7.53044685       0.00000000       0.00000000 </v>
     <v>       0.00000000       7.53044685       0.00000000 </v>
     <v>       0.00000000       0.00000000       7.17999872 </v>
    </varray>
    <i name="volume">    407.16070905 </i>
    <varray name="rec_basis" >
     <v>       0.13279424       0.00000000       0.00000000 </v>
     <v>       0.00000000       0.13279424       0.00000000 </v>
     <v>       0.00000000       0.00000000       0.13927579 </v>
    </varray>
   </crystal>
   <varray name="positions" >
    <v>       0.12500000       0.37500000       0.12500000 </v>
    <v>       0.62500000       0.37500000       0.12500000 </v>
    <v>       0.12500000       0.87500000       0.12500000 </v>
    <v>       0.62500000       0.87500000       0.12500000 </v>
    <v>       0.12500000       0.37500000       0.62500000 </v>
    <v>       0.62500000       0.37500000       0.62500000 </v>
    <v>       0.12500000       0.87500000       0.62500000 </v>
    <v>       0.62500000       0.87500000       0.62500000 </v>
    <v>       0.00000000       0.00000000       0.25000000 </v>
    <v>       0.50000000       0.00000000       0.25000000 </v>
    <v>       0.00000000       0.50000000       0.25000000 </v>
    <v>       0.50000000       0.50000000       0.25000000 </v>
    <v>       0.00000000       0.00000000       0.75000000 </v>
    <v>       0.50000000       0.00000000       0.75000000 </v>
    <v>       0.00000000       0.50000000       0.75000000 </v>
    <v>       0.50000000       0.50000000       0.75000000 </v>
    <v>       0.12500000       0.12500000       0.37500000 </v>
    <v>       0.62500000       0.12500000       0.37500000 </v>
    <v>       0.12500000       0.62500000       0.37500000 </v>
    <v>       0.62500000       0.62500000       0.37500000 </v>
    <v>       0.12500000       0.12500000       0.87500000 </v>
    <v>       0.62500000       0.12500000       0.87500000 </v>
    <v>       0.12500000       0.62500000       0.87500000 </v>
    <v>       0.62500000       0.62500000       0.87500000 </v>
    <v>       0.00000000       0.25000000       0.00000000 </v>
    <v>       0.50000000       0.25000000       0.00000000 </v>
    <v>       0.00000000       0.75000000       0.00000000 </v>
    <v>       0.50000000       0.75000000       0.00000000 </v>
    <v>       0.00000000       0.25000000       0.50000000 </v>
    <v>       0.50000000       0.25000000       0.50000000 </v>
    <v>       0.00000000       0.75000000       0.50000000 </v>
    <v>       0.50000000       0.75000000       0.50000000 </v>
    <v>       0.37500000       0.37500000       0.37500000 </v>
    <v>       0.87500000       0.37500000       0.37500000 </v>
    <v>       0.37500000       0.87500000       0.37500000 </v>
    <v>       0.87500000       0.87500000       0.37500000 </v>
    <v>       0.37500000       0.37500000       0.87500000 </v>
    <v>       0.87500000       0.37500000       0.87500000 </v>
    <v>       0.37500000       0.87500000       0.87500000 </v>
    <v>       0.87500000       0.87500000       0.87500000 </v>
    <v>       0.25000000       0.00000000       0.00000000 </v>
    <v>       0.75000000       0.00000000       0.00000000 </v>
    <v>       0.25000000       0.50000000       0.00000000 </v>
    <v>       0.75000000       0.50000000       0.00000000 </v>
    <v>       0.25000000       0.00000000       0.50000000 </v>
    <v>       0.75000000       0.00000000       0.50000000 </v>
    <v>       0.25000000       0.50000000       0.50000000 </v>
    <v>       0.75000000       0.50000000       0.50000000 </v>
    <v>       0.37500000       0.12500000       0.12500000 </v>
    <v>       0.87500000       0.12500000       0.12500000 </v>
    <v>       0.37500000       0.62500000       0.12500000 </v>
    <v>       0.87500000       0.62500000       0.12500000 </v>
    <v>       0.37500000       0.12500000       0.62500000 </v>
    <v>       0.87500000       0.12500000       0.62500000 </v>
    <v>       0.37500000       0.62500000       0.62500000 </v>
    <v>       0.87500000       0.62500000       0.62500000 </v>
    <v>       0.25000000       0.25000000       0.25000000 </v>
    <v>       0.75000000       0.25000000       0.25000000 </v>
    <v>       0.25000000       0.75000000       0.25000000 </v>
    <v>       0.75000000       0.75000000       0.25000000 </v>
    <v>       0.25000000       0.25000000       0.75000000 </v>
    <v>       0.75000000       0.25000000       0.75000000 </v>
    <v>       0.25000000       0.75000000       0.75000000 </v>
    <v>       0.75000000       0.75000000       0.75000000 </v>
   </varray>
  </structure>
  <varray name="forces" >
   <v>      -0.00000000      -0.00000000      -0.00000000 </v>
   <v>      -0.00000000      -0.00000000       0.00000000 </v>
   <v>       0.00000000      -0.00000000       0.00000000 </v>
   <v>       0.00000000       0.00000000       0.00000000 </v>
   <v>       0.00000000       0.00000000      -0.00000000 </v>
   <v>      -0.00000000      -0.00000000      -0.00000000 </v>
   <v>       0.00000000      -0.00000000      -0.00000000 </v>
   <v>      -0.00000000      -0.00000000      -0.00000000 </v>
   <v>      -0.00000000      -0.00000000      -0.00000000 </v>
   <v>      -0.00000000       0.00000000       0.00000000 </v>
   <v>      -0.00000000       0.00000000      -0.00000000 </v>
   <v>      -0.00000000       0.00000000       0.00000000 </v>
   <v>       0.00000000       0.00000000      -0.00000000 </v>
   <v>      -0.00000000      -0.00000000      -0.00000000 </v>
   <v>      -0.00000000       0.00000000      -0.00000000 </v>
   <v>       0.00000000       0.00000000      -0.00000000 </v>
   <v>      -0.00000000       0.00000000       0.00000000 </v>
   <v>      -0.00000000       0.00000000       0.00000000 </v>
   <v>       0.00000000       0.00000000       0.00000000 </v>
   <v>       0.00000000       0.00000000       0.00000000 </v>
   <v>       0.00000000      -0.00000000       0.00000000 </v>
   <v>      -0.00000000       0.00000000      -0.00000000 </v>
   <v>      -0.00000000       0.00000000      -0.00000000 </v>
   <v>       0.00000000       0.00000000      -0.00000000 </v>
   <v>      -0.00000000       0.00000000       0.00000000 </v>
   <v>       0.00000000      -0.00000000      -0.00000000 </v>
   <v>       0.00000000      -0.00000000      -0.00000000 </v>
   <v>      -0.00000000      -0.00000000       0.00000000 </v>
   <v>      -0.00000000      -0.00000000       0.00000000 </v>
   <v>       0.00000000       0.00000000      -0.00000000 </v>
   <v>       0.00000000       0.00000000       0.00000000 </v>
   <v>       0.00000000      -0.00000000      -0.00000000 </v>
   <v>      -0.00000000      -0.00000000       0.00000000 </v>
   <v>       0.00000000      -0.00000000       0.00000000 </v>
   <v>      -0.00000000      -0.00000000      -0.00000000 </v>
   <v>       0.00000000      -0.00000000       0.00000000 </v>
   <v>       0.00000000      -0.00000000      -0.00000000 </v>
   <v>      -0.00000000      -0.00000000      -0.00000000 </v>
   <v>       0.00000000      -0.00000000      -0.00000000 </v>
   <v>      -0.00000000       0.00000000      -0.00000000 </v>
   <v>      -0.00000000       0.00000000       0.00000000 </v>
   <v>      -0.00000000      -0.00000000      -0.00000000 </v>
   <v>       0.00000000       0.00000000       0.00000000 </v>
   <v>      -0.00000000       0.00000000      -0.00000000 </v>
   <v>       0.00000000      -0.00000000      -0.00000000 </v>
   <v>       0.00000000       0.00000000       0.00000000 </v>
   <v>      -0.00000000       0.00000000      -0.00000000 </v>
   <v>       0.00000000       0.00000000      -0.00000000 </v>
   <v>      -0.00000000       0.00000000       0.00000000 </v>
   <v>      -0.00000000       0.00000000      -0.00000000 </v>
   <v>      -0.00000000       0.00000000       0.00000000 </v>
   <v>       0.00000000      -0.00000000      -0.00000000 </v>
   <v>       0.00000000       0.00000000      -0.00000000 </v>
   <v>       0.00000000      -0.00000000       0.00000000 </v>
   <v>       0.00000000       0.00000000       0.00000000 </v>
   <v>      -0.00000000       0.00000000       0.00000000 </v>
   <v>       0.00000000      -0.00000000      -0.00000000 </v>
   <v>      -0.00000000      -0.00000000      -0.00000000 </v>
   <v>       0.00000000      -0.00000000       0.00000000 </v>
   <v>      -0.00000000       0.00000000       0.00000000 </v>
   <v>       0.00000000      -0.00000000       0.00000000 </v>
   <v>      -0.00000000       0.00000000       0.00000000 </v>
   <v>      -0.00000000      -0.00000000      -0.00000000 </v>
   <v>       0.00000000      -0.00000000       0.00000000 </v>
  </varray>
  <varray name="stress" >
   <v>    -548.68585713       0.00000000       0.00000000 </v>
   <v>       0.00000000    -548.68585713       0.00000000 </v>
   <v>       0.00000000       0.00000000    -178.02687322 </v>
  </varray>
  <energy>
   <i name="e_fr_energy">   -574.93248503 </i>
   <i name="e_wo_entrp">   -574.93248503 </i>
   <i name="e_0_energy">     -0.00000000 </i>
  </energy>
  <kpoints>
   <generation param="Gamma">
    <v type="int" name="divisions">       4        4        4 </v>
    <v name="usershift">      0.00000000       0.00000000       0.00000000 </v>
    <v name="genvec1">      0.25000000       0.00000000       0.00000000 </v>
    <v name="genvec2">      0.00000000       0.25000000       0.00000000 </v>
    <v name="genvec3">      0.00000000       0.00000000       0.25000000 </v>
    <v name="shift">      0.00000000       0.00000000       0.00000000 </v>
   </generation>
   <varray name="kpointlist" >
    <v>       0.00000000       0.00000000       0.00000000 </v>
    <v>       0.25000000       0.00000000       0.00000000 </v>
    <v>       0.50000000       0.00000000       0.00000000 </v>
    <v>       0.00000000       0.25000000       0.00000000 </v>
    <v>       0.25000000       0.25000000       0.00000000 </v>
    <v>       0.50000000       0.25000000       0.00000000 </v>
    <v>       0.00000000       0.50000000       0.00000000 </v>
    <v>       0.25000000       0.50000000       0.00000000 </v>
    <v>       0.50000000       0.50000000       0.00000000 </v>
    <v>       0.00000000       0.00000000       0.25000000 </v>
    <v>       0.25000000       0.00000000       0.25000000 </v>
    <v>       0.50000000       0.00000000       0.25000000 </v>
    <v>       0.00000000       0.25000000       0.25000000 </v>
    <v>       0.25000000       0.25000000       0.25000000 </v>
    <v>       0.50000000       0.25000000       0.25000000 </v>
    <v>       0.00000000       0.50000000       0.25000000 </v>
    <v>       0.25000000       0.50000000       0.25000000 </v>
    <v>       0.50000000       0.50000000       0.25000000 </v>
    <v>       0.00000000      -0.25000000       0.25000000 </v>
    <v>       0.25000000      -0.25000000       0.25000000 </v>
    <v>       0.50000000      -0.25000000       0.25000000 </v>
    <v>       0.00000000       0.00000000       0.50000000 </v>
    <v>       0.25000000       0.00000000       0.50000000 </v>
    <v>       0.50000000       0.00000000       0.50000000 </v>
    <v>       0.00000000       0.25000000       0.50000000 </v>
    <v>       0.25000000       0.25000000       0.50000000 </v>
    <v>       0.50000000       0.25000000       0.50000000 </v>
    <v>       0.00000000       0.50000000       0.50000000 </v>
    <v>       0.25000000       0.50000000       0.50000000 </v>
    <v>       0.50000000       0.50000000       0.50000000 </v>
   </varray>
   <varray name="weights" >
    <v>       0.01562500 </v>
    <v>       0.03125000 </v>
    <v>       0.01562500 </v>
    <v>       0.03125000 </v>
    <v>       0.06250000 </v>
    <v>       0.03125000 </v>
    <v>       0.01562500 </v>
    <v>       0.03125000 </v>
    <v>       0.01562500 </v>
    <v>       0.03125000 </v>
    <v>       0.06250000 </v>
    <v>       0.03125000 </v>
    <v>       0.03125000 </v>
    <v>       0.06250000 </v>
    <v>       0.03125000 </v>
    <v>       0.03125000 </v>
    <v>       0.06250000 </v>
    <v>       0.03125000 </v>
    <v>       0.03125000 </v>
    <v>       0.06250000 </v>
    <v>       0.03125000 </v>
    <v>       0.01562500 </v>
    <v>       0.03125000 </v>
    <v>       0.01562500 </v>
    <v>       0.03125000 </v>
    <v>       0.06250000 </v>
    <v>       0.03125000 </v>
    <v>       0.01562500 </v>
    <v>       0.03125000 </v>
    <v>       0.01562500 </v>
   </varray>
  </kpoints>
  <scstep>
   <time name="total">   27.03   27.03</time>
   <energy>
    <i name="e_fr_energy">   -345.87067347 </i>
    <i name="e_wo_entrp">   -345.87067347 </i>
    <i name="e_0_energy">   -345.87067347 </i>
   </energy>
  </scstep>
  <scstep>
   <time name="total">   20.10   20.10</time>
   <energy>
    <i name="e_fr_energy">   -299.49829107 </i>
    <i name="e_wo_entrp">   -299.49829107 </i>
    <i name="e_0_energy">   -299.49829107 </i>
   </energy>
  </scstep>
  <scstep>
   <time name="total">   20.69   20.69</time>
   <energy>
    <i name="e_fr_energy">   -299.35787674 </i>
    <i name="e_wo_entrp">   -299.35787674 </i>
    <i name="e_0_energy">   -299.35787674 </i>
   </energy>
  </scstep>
  <scstep>
   <time name="total">   20.79   20.79</time>
   <energy>
    <i name="e_fr_energy">   -299.82493718 </i>
    <i name="e_wo_entrp">   -299.82493718 </i>
    <i name="e_0_energy">   -299.82493718 </i>
   </energy>
  </scstep>
  <scstep>
   <time name="total">   20.82   20.82</time>
   <energy>
    <i name="e_fr_energy">   -299.97209464 </i>
    <i name="e_wo_entrp">   -299.97209464 </i>
    <i name="e_0_energy">   -299.97209464 </i>
   </energy>
  </scstep>
  <scstep>
   <time name="total">   21.15   21.15</time>
   <energy>
    <i name="e_fr_energy">   -299.92629024 </i>
    <i name="e_wo_entrp">   -299.92629024 </i>
    <i name="e_0_energy">   -299.92629024 </i>
   </energy>
  </scstep>
  <scstep>
   <time name="total">   21.00   21.00</time>
   <energy>
    <i name="e_fr_energy">   -299.90407120 </i>
    <i name="e_wo_entrp">   -299.90407120 </i>
    <i name="e_0_energy">   -299.90407120 </i>
   </energy>
  </scstep>
  <scstep>
   <time name="total">   21.62   21.63</time>
   <energy>
    <i name="e_fr_energy">   -299.90318760 </i>
    <i name="e_wo_entrp">   -299.90318760 </i>
    <i name="e_0_energy">   -299.90318760 </i>
   </energy>
  </scstep>
  <scstep>
   <time name="total">   22.44   22.44</time>
   <energy>
    <i name="e_fr_energy">   -299.90258504 </i>
    <i name="e_wo_entrp">   -299.90258504 </i>
    <i name="e_0_energy">   -299.90258504 </i>
   </energy>
  </scstep>
  <scstep>
   <time name="total">   22.78   22.78</time>
   <energy>
    <i name="e_fr_energy">   -299.90289285 </i>
    <i name="e_wo_entrp">   -299.90289285 </i>
    <i name="e_0_energy">   -299.90289285 </i>
   </energy>
  </scstep>
  <scstep>
   <time name="total">   22.88   22.88</time>
   <energy>
    <i name="e_fr_energy">   -299.90290731 </i>
    <i name="e_wo_entrp">   -299.90290731 </i>
    <i name="e_0_energy">   -299.90290731 </i>
   </energy>
  </scstep>
  <kpoints>
   <generation param="Gamma">
    <v type="int" name="divisions">       4        4        4 </v>
    <v name="usershift">      0.00000000       0.00000000       0.00000000 </v>
    <v name="genvec1">      0.25000000       0.00000000       0.00000000 </v>
    <v name="genvec2">      0.00000000       0.25000000       0.00000000 </v>
    <v name="genvec3">      0.00000000       0.00000000       0.25000000 </v>
    <v name="shift">      0.00000000       0.00000000       0.00000000 </v>
   </generation>
   <varray name="kpointlist" >
    <v>       0.00000000       0.00000000       0.00000000 </v>
    <v>       0.25000000       0.00000000       0.00000000 </v>
    <v>       0.50000000       0.00000000       0.00000000 </v>
    <v>       0.25000000       0.25000000       0.00000000 </v>
    <v>       0.50000000       0.25000000       0.00000000 </v>
    <v>      -0.25000000       0.25000000       0.00000000 </v>
    <v>       0.50000000       0.50000000       0.00000000 </v>
    <v>       0.00000000       0.00000000       0.25000000 </v>
    <v>       0.25000000       0.00000000       0.25000000 </v>
    <v>       0.50000000       0.00000000       0.25000000 </v>
    <v>       0.25000000       0.25000000       0.25000000 </v>
    <v>       0.50000000       0.25000000       0.25000000 </v>
    <v>      -0.25000000       0.25000000       0.25000000 </v>
    <v>       0.50000000       0.50000000       0.25000000 </v>
    <v>       0.00000000       0.00000000       0.50000000 </v>
    <v>       0.25000000       0.00000000       0.50000000 </v>
    <v>       0.50000000       0.00000000       0.50000000 </v>
    <v>       0.25000000       0.25000000       0.50000000 </v>
    <v>       0.50000000       0.25000000       0.50000000 </v>
    <v>      -0.25000000       0.25000000       0.50000000 </v>
    <v>       0.50000000       0.50000000       0.50000000 </v>
   </varray>
   <varray name="weights" >
    <v>       0.01562500 </v>
    <v>       0.06250000 </v>
    <v>       0.03125000 </v>
    <v>       0.03125000 </v>
    <v>       0.06250000 </v>
    <v>       0.03125000 </v>
    <v>       0.01562500 </v>
    <v>       0.03125000 </v>
    <v>       0.12500000 </v>
    <v>       0.06250000 </v>
    <v>       0.06250000 </v>
    <v>       0.12500000 </v>
    <v>       0.06250000 </v>
    <v>       0.03125000 </v>
    <v>       0.01562500 </v>
    <v>       0.06250000 </v>
    <v>       0.03125000 </v>
    <v>       0.03125000 </v>
    <v>       0.06250000 </v>
    <v>       0.03125000 </v>
    <v>       0.01562500 </v>
   </varray>
  </kpoints>
  <scstep>
   <time name="total">   18.75   18.75</time>
   <energy>
    <i name="e_fr_energy">   -342.27353801 </i>
    <i name="e_wo_entrp">   -342.27353801 </i>
    <i name="e_0_energy">   -342.27353801 </i>
   </energy>
  </scstep>
  <scstep>
   <time name="total">   14.35   14.35</time>
   <energy>
    <i name="e_fr_energy">   -299.91027393 </i>
    <i name="e_wo_entrp">   -299.91027393 </i>
    <i name="e_0_energy">   -299.91027393 </i>
   </energy>
  </scstep>
  <scstep>
   <time name="total">   14.76   14.76</time>
   <energy>
    <i name="e_fr_energy">   -299.88574590 </i>
    <i name="e_wo_entrp">   -299.88574590 </i>
    <i name="e_0_energy">   -299.88574590 </i>
   </energy>
  </scstep>
  <scstep>
   <time name="total">   14.78   14.78</time>
   <energy>
    <i name="e_fr_energy">   -300.38341389 </i>
    <i name="e_wo_entrp">   -300.38341389 </i>
    <i name="e_0_energy">   -300.38341389 </i>
   </energy>
  </scstep>
  <scstep>
   <time name="total">   14.97   14.97</time>
   <energy>
    <i name="e_fr_energy">   -300.51254215 </i>
    <i name="e_wo_entrp">   -300.51254215 </i>
    <i name="e_0_energy">   -300.51254215 </i>
   </energy>
  </scstep>
  <scstep>
   <time name="total">   15.14   15.14</time>
   <energy>
    <i name="e_fr_energy">   -300.46459220 </i>
    <i name="e_wo_entrp">   -300.46459220 </i>
    <i name="e_0_energy">   -300.46459220 </i>
   </energy>
  </scstep>
  <scstep>
   <time name="total">   15.22   15.22</time>
   <energy>
    <i name="e_fr_energy">   -300.44535436 </i>
    <i name="e_wo_entrp">   -300.44535436 </i>
    <i name="e_0_energy">   -300.44535436 </i>
   </energy>
  </scstep>
  <scstep>
   <time name="total">   15.40   15.40</time>
   <energy>
    <i name="e_fr_energy">   -300.44404348 </i>
    <i name="e_wo_entrp">   -300.44404348 </i>
    <i name="e_0_energy">   -300.44404348 </i>
   </energy>
  </scstep>
  <scstep>
   <time name="total">   15.96   15.96</time>
   <energy>
    <i name="e_fr_energy">   -300.44359827 </i>
    <i name="e_wo_entrp">   -300.44359827 </i>
    <i name="e_0_energy">   -300.44359827 </i>
   </energy>
  </scstep>
  <scstep>
   <time name="total">   16.32   16.32</time>
   <energy>
    <i name="e_fr_energy">   -300.44385076 </i>
    <i name="e_wo_entrp">   -300.44385076 </i>
    <i name="e_0_energy">   -300.44385076 </i>
   </energy>
  </scstep>
  <scstep>
   <time name="total">   16.30   16.30</time>
   <energy>
    <i name="e_fr_energy">   -300.44384119 </i>
    <i name="e_wo_entrp">   -300.44384119 </i>
    <i name="e_0_energy">   -300.44384119 </i>
   </energy>
  </scstep>
  <kpoints>
   <generation param="Gamma">
    <v type="int" name="divisions">       4        4        4 </v>
    <v name="usershift">      0.00000000       0.00000000       0.00000000 </v>
    <v name="genvec1">      0.25000000       0.00000000       0.00000000 </v>
    <v name="genvec2">      0.00000000       0.25000000       0.00000000 </v>
    <v name="genvec3">      0.00000000       0.00000000       0.25000000 </v>
    <v name="shift">      0.00000000       0.00000000       0.00000000 </v>
   </generation>
   <varray name="kpointlist" >
    <v>       0.00000000       0.00000000       0.00000000 </v>
    <v>       0.25000000       0.00000000       0.00000000 </v>
    <v>       0.50000000       0.00000000       0.00000000 </v>
    <v>       0.25000000       0.25000000       0.00000000 </v>
    <v>       0.50000000       0.25000000       0.00000000 </v>
    <v>       0.50000000       0.50000000       0.00000000 </v>
    <v>       0.00000000       0.00000000       0.25000000 </v>
    <v>       0.25000000       0.00000000       0.25000000 </v>
    <v>       0.50000000       0.00000000       0.25000000 </v>
    <v>       0.25000000       0.25000000       0.25000000 </v>
    <v>       0.50000000       0.25000000       0.25000000 </v>
    <v>       0.50000000       0.50000000       0.25000000 </v>
    <v>       0.00000000       0.00000000       0.50000000 </v>
    <v>       0.25000000       0.00000000       0.50000000 </v>
    <v>       0.50000000       0.00000000       0.50000000 </v>
    <v>       0.25000000       0.25000000       0.50000000 </v>
    <v>       0.50000000       0.25000000       0.50000000 </v>
    <v>       0.50000000       0.50000000       0.50000000 </v>
   </varray>
   <varray name="weights" >
    <v>       0.01562500 </v>
    <v>       0.06250000 </v>
    <v>       0.03125000 </v>
    <v>       0.06250000 </v>
    <v>       0.06250000 </v>
    <v>       0.01562500 </v>
    <v>       0.03125000 </v>
    <v>       0.12500000 </v>
    <v>       0.06250000 </v>
    <v>       0.12500000 </v>
    <v>       0.12500000 </v>
    <v>       0.03125000 </v>
    <v>       0.01562500 </v>
    <v>       0.06250000 </v>
    <v>       0.03125000 </v>
    <v>       0.06250000 </v>
    <v>       0.06250000 </v>
    <v>       0.01562500 </v>
   </varray>
  </kpoints>
  <dynmat>
   <varray name="hessian" >
    <v>      -2.84646630       0.00000000      -0.00000000       0.01101698      -0.00000000       0.00000000       0.00689857       0.00000000      -0.00000000       0.00559710       0.00000000      -0.00000000       0.00583601       0.00000000       0.00000000       0.00768770       0.00000000       0.00000000      -0.04341827      -0.00000000      -0.00000000       0.00356375       0.00000000       0.00000000      -0.01137192      -0.00772207       0.00091493       0.00259114      -0.00314206      -0.01492664       0.58869366      -0.04554011      -0.03795563      -0.00608320      -0.00772207      -0.00801571       0.02588682      -0.01594362      -0.01462514      -0.00237615      -0.00280345      -0.00245791      -0.01076315      -0.00112017      -0.00545278       0.00642326      -0.01594362      -0.00828088      -0.10144818       0.04848425      -0.05213516      -0.00291860       0.00274883      -0.00252573      -0.10144818       0.04848425       0.05213516      -0.00291860       0.00274883       0.00252573      -0.10144818      -0.04848425      -0.05213516      -0.00291860      -0.00274883      -0.00252573      -0.10144818      -0.04848425       0.05213516      -0.00291860      -0.00274883       0.00252573       0.58869366       0.04554011       0.03795563      -0.00608320       0.00772207       0.00801571      -0.01137192       0.00772207      -0.00091493       0.00259114       0.00314206       0.01492664      -0.01076315       0.00112017       0.00545278       0.00642326       0.01594362       0.00828088       0.02588682       0.01594362       0.01462514      -0.00237615       0.00280345       0.00245791       0.11227691      -0.04848425       0.11507846       0.11227691      -0.04848425      -0.11507846       0.00610753      -0.00274883      -0.00632426       0.00610753      -0.00274883       0.00632426       0.11227691       0.04848425      -0.11507846       0.11227691       0.04848425       0.11507846       0.00610753       0.00274883       0.00632426       0.00610753       0.00274883      -0.00632426      -0.01137192       0.00772207       0.00091493       0.00259114       0.00314206      -0.01492664       0.58869366       0.04554011      -0.03795563      -0.00608320       0.00772207      -0.00801571       0.02588682       0.01594362      -0.01462514      -0.00237615       0.00280345      -0.00245791      -0.01076315       0.00112017      -0.00545278       0.00642326       0.01594362      -0.00828088       0.09892797      -0.09756639       0.04972183       0.09892797       0.09756639       0.04972183       0.09892797       0.09756639      -0.04972183       0.09892797      -0.09756639      -0.04972183       0.00637502       0.00692392       0.00233639       0.00637502      -0.00692392       0.00233639       0.00637502      -0.00692392      -0.00233639       0.00637502       0.00692392      -0.00233639       0.58869366      -0.04554011       0.03795563      -0.00608320      -0.00772207       0.00801571      -0.01137192      -0.00772207      -0.00091493       0.00259114      -0.00314206       0.01492664      -0.01076315      -0.00112017       0.00545278       0.00642326      -0.01594362       0.00828088       0.02588682      -0.01594362       0.01462514      -0.00237615      -0.00280345       0.00245791 </v>
    <v>       0.00000000      -2.84646630       0.00000000      -0.00000000       0.00689857       0.00000000       0.00000000       0.01101698      -0.00000000       0.00000000       0.00559710      -0.00000000       0.00000000       0.00583601       0.00000000       0.00000000      -0.04341827       0.00000000      -0.00000000       0.00768770       0.00000000       0.00000000       0.00356375       0.00000000      -0.00772207      -0.00608320       0.00801571      -0.00314206       0.00259114       0.01492664      -0.04554011       0.58869366       0.03795563      -0.00772207      -0.01137192      -0.00091493      -0.01594362       0.00642326       0.00828088      -0.00280345      -0.00237615       0.00245791      -0.00112017      -0.01076315       0.00545278      -0.01594362       0.02588682       0.01462514      -0.04848425       0.11227691      -0.11507846      -0.00274883       0.00610753       0.00632426      -0.04848425       0.11227691       0.11507846      -0.00274883       0.00610753      -0.00632426       0.04848425       0.11227691       0.11507846       0.00274883       0.00610753      -0.00632426       0.04848425       0.11227691      -0.11507846       0.00274883       0.00610753       0.00632426       0.04554011       0.58869366       0.03795563       0.00772207      -0.01137192      -0.00091493       0.00772207      -0.00608320       0.00801571       0.00314206       0.00259114       0.01492664       0.00112017      -0.01076315       0.00545278       0.01594362       0.02588682       0.01462514       0.01594362       0.00642326       0.00828088       0.00280345      -0.00237615       0.00245791       0.04848425      -0.10144818       0.05213516       0.04848425      -0.10144818      -0.05213516       0.00274883      -0.00291860       0.00252573       0.00274883      -0.00291860      -0.00252573      -0.04848425      -0.10144818       0.05213516      -0.04848425      -0.10144818      -0.05213516      -0.00274883      -0.00291860       0.00252573      -0.00274883      -0.00291860      -0.00252573       0.00772207      -0.00608320      -0.00801571       0.00314206       0.00259114      -0.01492664       0.04554011       0.58869366      -0.03795563       0.00772207      -0.01137192       0.00091493       0.01594362       0.00642326      -0.00828088       0.00280345      -0.00237615      -0.00245791       0.00112017      -0.01076315      -0.00545278       0.01594362       0.02588682      -0.01462514      -0.09756639       0.09892797      -0.04972183       0.09756639       0.09892797       0.04972183       0.09756639       0.09892797      -0.04972183      -0.09756639       0.09892797       0.04972183       0.00692392       0.00637502      -0.00233639      -0.00692392       0.00637502       0.00233639      -0.00692392       0.00637502      -0.00233639       0.00692392       0.00637502       0.00233639      -0.04554011       0.58869366      -0.03795563      -0.00772207      -0.01137192       0.00091493      -0.00772207      -0.00608320      -0.00801571      -0.00314206       0.00259114      -0.01492664      -0.00112017      -0.01076315      -0.00545278      -0.01594362       0.02588682      -0.01462514      -0.01594362       0.00642326      -0.00828088      -0.00280345      -0.00237615      -0.00245791 </v>
    <v>      -0.00000000       0.00000000      -2.99450007       0.00000000       0.00000000       0.00927232      -0.00000000      -0.00000000       0.00927232      -0.00000000      -0.00000000      -0.04885712       0.00000000       0.00000000       0.01017649       0.00000000       0.00000000       0.00826166      -0.00000000       0.00000000       0.00826166       0.00000000       0.00000000       0.00403570       0.00091493       0.00801571      -0.01300262      -0.01492664       0.01492664       0.03046037      -0.03795563       0.03795563       0.62586642      -0.00801571      -0.00091493      -0.01300262      -0.01462514       0.00828088       0.00734177      -0.00245791       0.00245791      -0.00282137      -0.00545278       0.00545278      -0.00249879      -0.00828088       0.01462514       0.00734177       0.05213516      -0.11507846       0.10540731       0.00252573       0.00632426       0.00594033      -0.05213516       0.11507846       0.10540731      -0.00252573      -0.00632426       0.00594033       0.05213516       0.11507846       0.10540731       0.00252573      -0.00632426       0.00594033      -0.05213516      -0.11507846       0.10540731      -0.00252573       0.00632426       0.00594033       0.03795563       0.03795563       0.62586642       0.00801571      -0.00091493      -0.01300262      -0.00091493       0.00801571      -0.01300262       0.01492664       0.01492664       0.03046037       0.00545278       0.00545278      -0.00249879       0.00828088       0.01462514       0.00734177       0.01462514       0.00828088       0.00734177       0.00245791       0.00245791      -0.00282137       0.11507846      -0.05213516       0.10540731      -0.11507846       0.05213516       0.10540731      -0.00632426      -0.00252573       0.00594033       0.00632426       0.00252573       0.00594033      -0.11507846      -0.05213516       0.10540731       0.11507846       0.05213516       0.10540731       0.00632426      -0.00252573       0.00594033      -0.00632426       0.00252573       0.00594033       0.00091493      -0.00801571      -0.01300262      -0.01492664      -0.01492664       0.03046037      -0.03795563      -0.03795563       0.62586642      -0.00801571       0.00091493      -0.01300262      -0.01462514      -0.00828088       0.00734177      -0.00245791      -0.00245791      -0.00282137      -0.00545278      -0.00545278      -0.00249879      -0.00828088      -0.01462514       0.00734177      -0.04972183       0.04972183      -0.10934092      -0.04972183      -0.04972183      -0.10934092       0.04972183       0.04972183      -0.10934092       0.04972183      -0.04972183      -0.10934092      -0.00233639       0.00233639      -0.00452004      -0.00233639      -0.00233639      -0.00452004       0.00233639       0.00233639      -0.00452004       0.00233639      -0.00233639      -0.00452004       0.03795563      -0.03795563       0.62586642       0.00801571       0.00091493      -0.01300262      -0.00091493      -0.00801571      -0.01300262       0.01492664      -0.01492664       0.03046037       0.00545278      -0.00545278      -0.00249879       0.00828088      -0.01462514       0.00734177       0.01462514      -0.00828088       0.00734177       0.00245791      -0.00245791      -0.00282137 </v>
    <v>       0.01101698      -0.00000000       0.00000000      -2.84646630       0.00000000      -0.00000000       0.00559710       0.00000000      -0.00000000       0.00689857       0.00000000      -0.00000000       0.00768770       0.00000000       0.00000000       0.00583601       0.00000000       0.00000000       0.00356375       0.00000000       0.00000000      -0.04341827      -0.00000000      -0.00000000       0.00259114      -0.00314206      -0.01492664      -0.01137192      -0.00772207       0.00091493      -0.00608320      -0.00772207      -0.00801571       0.58869366      -0.04554011      -0.03795563      -0.00237615      -0.00280345      -0.00245791       0.02588682      -0.01594362      -0.01462514       0.00642326      -0.01594362      -0.00828088      -0.01076315      -0.00112017      -0.00545278      -0.00291860       0.00274883      -0.00252573      -0.10144818       0.04848425      -0.05213516      -0.00291860       0.00274883       0.00252573      -0.10144818       0.04848425       0.05213516      -0.00291860      -0.00274883      -0.00252573      -0.10144818      -0.04848425      -0.05213516      -0.00291860      -0.00274883       0.00252573      -0.10144818      -0.04848425       0.05213516      -0.00608320       0.00772207       0.00801571       0.58869366       0.04554011       0.03795563       0.00259114       0.00314206       0.01492664      -0.01137192       0.00772207      -0.00091493       0.00642326       0.01594362       0.00828088      -0.01076315       0.00112017       0.00545278      -0.00237615       0.00280345       0.00245791       0.02588682       0.01594362       0.01462514       0.11227691      -0.04848425      -0.11507846       0.11227691      -0.04848425       0.11507846       0.00610753      -0.00274883       0.00632426       0.00610753      -0.00274883      -0.00632426       0.11227691       0.04848425       0.11507846       0.11227691       0.04848425      -0.11507846       0.00610753       0.00274883      -0.00632426       0.00610753       0.00274883       0.00632426       0.00259114       0.00314206      -0.01492664      -0.01137192       0.00772207       0.00091493      -0.00608320       0.00772207      -0.00801571       0.58869366       0.04554011      -0.03795563      -0.00237615       0.00280345      -0.00245791       0.02588682       0.01594362      -0.01462514       0.00642326       0.01594362      -0.00828088      -0.01076315       0.00112017      -0.00545278       0.09892797       0.09756639       0.04972183       0.09892797      -0.09756639       0.04972183       0.09892797      -0.09756639      -0.04972183       0.09892797       0.09756639      -0.04972183       0.00637502      -0.00692392       0.00233639       0.00637502       0.00692392       0.00233639       0.00637502       0.00692392      -0.00233639       0.00637502      -0.00692392      -0.00233639      -0.00608320      -0.00772207       0.00801571       0.58869366      -0.04554011       0.03795563       0.00259114      -0.00314206       0.01492664      -0.01137192      -0.00772207      -0.00091493       0.00642326      -0.01594362       0.00828088      -0.01076315      -0.00112017       0.00545278      -0.00237615      -0.00280345       0.00245791       0.02588682      -0.01594362       0.01462514 </v>
    <v>      -0.00000000       0.00689857       0.00000000       0.00000000      -2.84646630       0.00000000       0.00000000       0.00559710      -0.00000000       0.00000000       0.01101698      -0.00000000       0.00000000      -0.04341827       0.00000000       0.00000000       0.00583601       0.00000000       0.00000000       0.00356375       0.00000000      -0.00000000       0.00768770       0.00000000      -0.00314206       0.00259114       0.01492664      -0.00772207      -0.00608320       0.00801571      -0.00772207      -0.01137192      -0.00091493      -0.04554011       0.58869366       0.03795563      -0.00280345      -0.00237615       0.00245791      -0.01594362       0.00642326       0.00828088      -0.01594362       0.02588682       0.01462514      -0.00112017      -0.01076315       0.00545278      -0.00274883       0.00610753       0.00632426      -0.04848425       0.11227691      -0.11507846      -0.00274883       0.00610753      -0.00632426      -0.04848425       0.11227691       0.11507846       0.00274883       0.00610753      -0.00632426       0.04848425       0.11227691       0.11507846       0.00274883       0.00610753       0.00632426       0.04848425       0.11227691      -0.11507846       0.00772207      -0.01137192      -0.00091493       0.04554011       0.58869366       0.03795563       0.00314206       0.00259114       0.01492664       0.00772207      -0.00608320       0.00801571       0.01594362       0.02588682       0.01462514       0.00112017      -0.01076315       0.00545278       0.00280345      -0.00237615       0.00245791       0.01594362       0.00642326       0.00828088       0.04848425      -0.10144818      -0.05213516       0.04848425      -0.10144818       0.05213516       0.00274883      -0.00291860      -0.00252573       0.00274883      -0.00291860       0.00252573      -0.04848425      -0.10144818      -0.05213516      -0.04848425      -0.10144818       0.05213516      -0.00274883      -0.00291860      -0.00252573      -0.00274883      -0.00291860       0.00252573       0.00314206       0.00259114      -0.01492664       0.00772207      -0.00608320      -0.00801571       0.00772207      -0.01137192       0.00091493       0.04554011       0.58869366      -0.03795563       0.00280345      -0.00237615      -0.00245791       0.01594362       0.00642326      -0.00828088       0.01594362       0.02588682      -0.01462514       0.00112017      -0.01076315      -0.00545278       0.09756639       0.09892797       0.04972183      -0.09756639       0.09892797      -0.04972183      -0.09756639       0.09892797       0.04972183       0.09756639       0.09892797      -0.04972183      -0.00692392       0.00637502       0.00233639       0.00692392       0.00637502      -0.00233639       0.00692392       0.00637502       0.00233639      -0.00692392       0.00637502      -0.00233639      -0.00772207      -0.01137192       0.00091493      -0.04554011       0.58869366      -0.03795563      -0.00314206       0.00259114      -0.01492664      -0.00772207      -0.00608320      -0.00801571      -0.01594362       0.02588682      -0.01462514      -0.00112017      -0.01076315      -0.00545278      -0.00280345      -0.00237615      -0.00245791      -0.01594362       0.00642326      -0.00828088 </v>
    <v>       0.00000000       0.00000000       0.00927232      -0.00000000       0.00000000      -2.99450007      -0.00000000      -0.00000000      -0.04885712      -0.00000000      -0.00000000       0.00927232       0.00000000       0.00000000       0.00826166       0.00000000       0.00000000       0.01017649       0.00000000       0.00000000       0.00403570      -0.00000000       0.00000000       0.00826166      -0.01492664       0.01492664       0.03046037       0.00091493       0.00801571      -0.01300262      -0.00801571      -0.00091493      -0.01300262      -0.03795563       0.03795563       0.62586642      -0.00245791       0.00245791      -0.00282137      -0.01462514       0.00828088       0.00734177      -0.00828088       0.01462514       0.00734177      -0.00545278       0.00545278      -0.00249879       0.00252573       0.00632426       0.00594033       0.05213516      -0.11507846       0.10540731      -0.00252573      -0.00632426       0.00594033      -0.05213516       0.11507846       0.10540731       0.00252573      -0.00632426       0.00594033       0.05213516       0.11507846       0.10540731      -0.00252573       0.00632426       0.00594033      -0.05213516      -0.11507846       0.10540731       0.00801571      -0.00091493      -0.01300262       0.03795563       0.03795563       0.62586642       0.01492664       0.01492664       0.03046037      -0.00091493       0.00801571      -0.01300262       0.00828088       0.01462514       0.00734177       0.00545278       0.00545278      -0.00249879       0.00245791       0.00245791      -0.00282137       0.01462514       0.00828088       0.00734177      -0.11507846       0.05213516       0.10540731       0.11507846      -0.05213516       0.10540731       0.00632426       0.00252573       0.00594033      -0.00632426      -0.00252573       0.00594033       0.11507846       0.05213516       0.10540731      -0.11507846      -0.05213516       0.10540731      -0.00632426       0.00252573       0.00594033       0.00632426      -0.00252573       0.00594033      -0.01492664      -0.01492664       0.03046037       0.00091493      -0.00801571      -0.01300262      -0.00801571       0.00091493      -0.01300262      -0.03795563      -0.03795563       0.62586642      -0.00245791      -0.00245791      -0.00282137      -0.01462514      -0.00828088       0.00734177      -0.00828088      -0.01462514       0.00734177      -0.00545278      -0.00545278      -0.00249879      -0.04972183      -0.04972183      -0.10934092      -0.04972183       0.04972183      -0.10934092       0.04972183      -0.04972183      -0.10934092       0.04972183       0.04972183      -0.10934092      -0.00233639      -0.00233639      -0.00452004      -0.00233639       0.00233639      -0.00452004       0.00233639      -0.00233639      -0.00452004       0.00233639       0.00233639      -0.00452004       0.00801571       0.00091493      -0.01300262       0.03795563      -0.03795563       0.62586642       0.01492664      -0.01492664       0.03046037      -0.00091493      -0.00801571      -0.01300262       0.00828088      -0.01462514       0.00734177       0.00545278      -0.00545278      -0.00249879       0.00245791      -0.00245791      -0.00282137       0.01462514      -0.00828088       0.00734177 </v>
    <v>       0.00689857       0.00000000      -0.00000000       0.00559710       0.00000000      -0.00000000      -2.84646630       0.00000000      -0.00000000       0.01101698      -0.00000000       0.00000000      -0.04341827      -0.00000000      -0.00000000       0.00356375       0.00000000       0.00000000       0.00583601       0.00000000       0.00000000       0.00768770       0.00000000       0.00000000       0.58869366      -0.04554011      -0.03795563      -0.00608320      -0.00772207      -0.00801571      -0.01137192      -0.00772207       0.00091493       0.00259114      -0.00314206      -0.01492664      -0.01076315      -0.00112017      -0.00545278       0.00642326      -0.01594362      -0.00828088       0.02588682      -0.01594362      -0.01462514      -0.00237615      -0.00280345      -0.00245791      -0.10144818       0.04848425       0.05213516      -0.00291860       0.00274883       0.00252573      -0.10144818       0.04848425      -0.05213516      -0.00291860       0.00274883      -0.00252573      -0.10144818      -0.04848425       0.05213516      -0.00291860      -0.00274883       0.00252573      -0.10144818      -0.04848425      -0.05213516      -0.00291860      -0.00274883      -0.00252573      -0.01137192       0.00772207      -0.00091493       0.00259114       0.00314206       0.01492664       0.58869366       0.04554011       0.03795563      -0.00608320       0.00772207       0.00801571       0.02588682       0.01594362       0.01462514      -0.00237615       0.00280345       0.00245791      -0.01076315       0.00112017       0.00545278       0.00642326       0.01594362       0.00828088       0.00610753      -0.00274883      -0.00632426       0.00610753      -0.00274883       0.00632426       0.11227691      -0.04848425       0.11507846       0.11227691      -0.04848425      -0.11507846       0.00610753       0.00274883       0.00632426       0.00610753       0.00274883      -0.00632426       0.11227691       0.04848425      -0.11507846       0.11227691       0.04848425       0.11507846       0.58869366       0.04554011      -0.03795563      -0.00608320       0.00772207      -0.00801571      -0.01137192       0.00772207       0.00091493       0.00259114       0.00314206      -0.01492664      -0.01076315       0.00112017      -0.00545278       0.00642326       0.01594362      -0.00828088       0.02588682       0.01594362      -0.01462514      -0.00237615       0.00280345      -0.00245791       0.09892797       0.09756639      -0.04972183       0.09892797      -0.09756639      -0.04972183       0.09892797      -0.09756639       0.04972183       0.09892797       0.09756639       0.04972183       0.00637502      -0.00692392      -0.00233639       0.00637502       0.00692392      -0.00233639       0.00637502       0.00692392       0.00233639       0.00637502      -0.00692392       0.00233639      -0.01137192      -0.00772207      -0.00091493       0.00259114      -0.00314206       0.01492664       0.58869366      -0.04554011       0.03795563      -0.00608320      -0.00772207       0.00801571       0.02588682      -0.01594362       0.01462514      -0.00237615      -0.00280345       0.00245791      -0.01076315      -0.00112017       0.00545278       0.00642326      -0.01594362       0.00828088 </v>
    <v>       0.00000000       0.01101698      -0.00000000       0.00000000       0.00559710      -0.00000000       0.00000000      -2.84646630       0.00000000      -0.00000000       0.00689857       0.00000000      -0.00000000       0.00768770       0.00000000       0.00000000       0.00356375       0.00000000       0.00000000       0.00583601       0.00000000       0.00000000      -0.04341827       0.00000000      -0.04554011       0.58869366       0.03795563      -0.00772207      -0.01137192      -0.00091493      -0.00772207      -0.00608320       0.00801571      -0.00314206       0.00259114       0.01492664      -0.00112017      -0.01076315       0.00545278      -0.01594362       0.02588682       0.01462514      -0.01594362       0.00642326       0.00828088      -0.00280345      -0.00237615       0.00245791      -0.04848425       0.11227691       0.11507846      -0.00274883       0.00610753      -0.00632426      -0.04848425       0.11227691      -0.11507846      -0.00274883       0.00610753       0.00632426       0.04848425       0.11227691      -0.11507846       0.00274883       0.00610753       0.00632426       0.04848425       0.11227691       0.11507846       0.00274883       0.00610753      -0.00632426       0.00772207      -0.00608320       0.00801571       0.00314206       0.00259114       0.01492664       0.04554011       0.58869366       0.03795563       0.00772207      -0.01137192      -0.00091493       0.01594362       0.00642326       0.00828088       0.00280345      -0.00237615       0.00245791       0.00112017      -0.01076315       0.00545278       0.01594362       0.02588682       0.01462514       0.00274883      -0.00291860       0.00252573       0.00274883      -0.00291860      -0.00252573       0.04848425      -0.10144818       0.05213516       0.04848425      -0.10144818      -0.05213516      -0.00274883      -0.00291860       0.00252573      -0.00274883      -0.00291860      -0.00252573      -0.04848425      -0.10144818       0.05213516      -0.04848425      -0.10144818      -0.05213516       0.04554011       0.58869366      -0.03795563       0.00772207      -0.01137192       0.00091493       0.00772207      -0.00608320      -0.00801571       0.00314206       0.00259114      -0.01492664       0.00112017      -0.01076315      -0.00545278       0.01594362       0.02588682      -0.01462514       0.01594362       0.00642326      -0.00828088       0.00280345      -0.00237615      -0.00245791       0.09756639       0.09892797      -0.04972183      -0.09756639       0.09892797       0.04972183      -0.09756639       0.09892797      -0.04972183       0.09756639       0.09892797       0.04972183      -0.00692392       0.00637502      -0.00233639       0.00692392       0.00637502       0.00233639       0.00692392       0.00637502      -0.00233639      -0.00692392       0.00637502       0.00233639      -0.00772207      -0.00608320      -0.00801571      -0.00314206       0.00259114      -0.01492664      -0.04554011       0.58869366      -0.03795563      -0.00772207      -0.01137192       0.00091493      -0.01594362       0.00642326      -0.00828088      -0.00280345      -0.00237615      -0.00245791      -0.00112017      -0.01076315      -0.00545278      -0.01594362       0.02588682      -0.01462514 </v>
[...]
      </set>
     </set>
    </set>
   </array>
  </eigenvalues>
  <separator name="orbital magnetization" >
   <v name="MAGDIPOLOUT">      0.00000000      0.00000000      0.00000000</v>
  </separator>
  <dos>
   <i name="efermi">      8.92982888 </i>
   <total>
    <array>
     <dimension dim="1">gridpoints</dimension>
     <dimension dim="2">spin</dimension>
     <field>energy</field>
     <field>total</field>
     <field>integrated</field>
     <set>
      <set comment="spin 1">
       <r>   -13.3665     0.0000     0.0000 </r>
       <r>   -13.2539     0.0000     0.0000 </r>
       <r>   -13.1414     0.0000     0.0000 </r>
       <r>   -13.0288     0.0000     0.0000 </r>
       <r>   -12.9162     0.0000     0.0000 </r>
       <r>   -12.8037     0.0000     0.0000 </r>
       <r>   -12.6911     0.0000     0.0000 </r>
       <r>   -12.5785     0.0000     0.0000 </r>
       <r>   -12.4659     0.0000     0.0000 </r>
       <r>   -12.3534     0.0000     0.0000 </r>
       <r>   -12.2408     0.0000     0.0000 </r>
       <r>   -12.1282     0.0000     0.0000 </r>
       <r>   -12.0156     0.0000     0.0000 </r>
       <r>   -11.9031     0.0127     0.0014 </r>
       <r>   -11.7905     0.2443     0.0289 </r>
       <r>   -11.6779     1.1695     0.1606 </r>
       <r>   -11.5654     2.1732     0.4052 </r>
       <r>   -11.4528     2.3597     0.6709 </r>
       <r>   -11.3402     1.8428     0.8783 </r>
       <r>   -11.2276     1.9090     1.0932 </r>
       <r>   -11.1151     5.4533     1.7071 </r>
       <r>   -11.0025     5.7340     2.3526 </r>
       <r>   -10.8899     1.6089     2.5337 </r>
       <r>   -10.7774     1.4960     2.7021 </r>
       <r>   -10.6648     4.4844     3.2069 </r>
       <r>   -10.5522     7.1515     4.0120 </r>
       <r>   -10.4396     5.1002     4.5861 </r>
       <r>   -10.3271     5.2689     5.1793 </r>
       <r>   -10.2145     3.6003     5.5846 </r>
       <r>   -10.1019     4.3663     6.0761 </r>
       <r>    -9.9893     9.1277     7.1036 </r>
       <r>    -9.8768     6.2289     7.8048 </r>
       <r>    -9.7642     1.1817     7.9378 </r>
       <r>    -9.6516     4.1316     8.4030 </r>
       <r>    -9.5391     9.6462     9.4888 </r>
       <r>    -9.4265     7.8122    10.3683 </r>
       <r>    -9.3139     7.4648    11.2086 </r>
       <r>    -9.2013     6.8065    11.9748 </r>
       <r>    -9.0888     8.7423    12.9590 </r>
       <r>    -8.9762     7.4417    13.7967 </r>
       <r>    -8.8636     5.3881    14.4033 </r>
       <r>    -8.7511     3.0343    14.7448 </r>
       <r>    -8.6385     5.3531    15.3474 </r>
       <r>    -8.5259    10.7025    16.5523 </r>
       <r>    -8.4133    11.8936    17.8911 </r>
       <r>    -8.3008     8.4110    18.8380 </r>
       <r>    -8.1882     5.8714    19.4990 </r>
       <r>    -8.0756    14.3302    21.1121 </r>
       <r>    -7.9630    10.6354    22.3094 </r>
       <r>    -7.8505     3.0025    22.6474 </r>
       <r>    -7.7379     6.1813    23.3432 </r>
       <r>    -7.6253     9.3037    24.3906 </r>
       <r>    -7.5128    12.7486    25.8257 </r>
       <r>    -7.4002    11.2910    27.0968 </r>
       <r>    -7.2876     8.4455    28.0475 </r>
       <r>    -7.1750    11.5398    29.3466 </r>
       <r>    -7.0625    11.2651    30.6147 </r>
       <r>    -6.9499     5.8176    31.2696 </r>
       <r>    -6.8373    11.0840    32.5173 </r>
       <r>    -6.7248    15.4517    34.2568 </r>
       <r>    -6.6122    15.5313    36.0052 </r>
       <r>    -6.4996    13.0998    37.4798 </r>
       <r>    -6.3870    21.9339    39.9490 </r>
       <r>    -6.2745    10.8283    41.1680 </r>
       <r>    -6.1619     8.5032    42.1252 </r>
       <r>    -6.0493     6.1962    42.8227 </r>
       <r>    -5.9367    14.1605    44.4168 </r>
       <r>    -5.8242     9.5282    45.4894 </r>
       <r>    -5.7116    12.5259    46.8995 </r>
       <r>    -5.5990    14.5859    48.5414 </r>
       <r>    -5.4865    12.1581    49.9101 </r>
       <r>    -5.3739     5.7351    50.5557 </r>
       <r>    -5.2613    12.1238    51.9205 </r>
       <r>    -5.1487     5.8906    52.5836 </r>
       <r>    -5.0362    14.7195    54.2406 </r>
       <r>    -4.9236     8.7222    55.2225 </r>
       <r>    -4.8110    17.0972    57.1472 </r>
       <r>    -4.6985     7.7477    58.0194 </r>
       <r>    -4.5859     7.2033    58.8303 </r>
       <r>    -4.4733     6.2331    59.5319 </r>
       <r>    -4.3607     2.6080    59.8255 </r>
       <r>    -4.2482     2.7991    60.1406 </r>
       <r>    -4.1356     2.9678    60.4747 </r>
       <r>    -4.0230     4.7692    61.0116 </r>
       <r>    -3.9104    12.5495    62.4243 </r>
       <r>    -3.7979     7.4204    63.2597 </r>
       <r>    -3.6853     9.9631    64.3812 </r>
       <r>    -3.5727     3.0335    64.7227 </r>
       <r>    -3.4602    10.3232    65.8848 </r>
       <r>    -3.3476    12.3593    67.2761 </r>
       <r>    -3.2350    11.3447    68.5532 </r>
       <r>    -3.1224    15.4118    70.2882 </r>
       <r>    -3.0099    11.9876    71.6377 </r>
       <r>    -2.8973     7.3620    72.4664 </r>
       <r>    -2.7847     7.0684    73.2621 </r>
       <r>    -2.6722    16.1926    75.0850 </r>
       <r>    -2.5596    16.1399    76.9019 </r>
       <r>    -2.4470    28.6581    80.1280 </r>
       <r>    -2.3344    19.3372    82.3048 </r>
       <r>    -2.2219    19.2324    84.4698 </r>
       <r>    -2.1093    28.2529    87.6503 </r>
       <r>    -1.9967    11.8712    88.9867 </r>
       <r>    -1.8841    12.4714    90.3906 </r>
       <r>    -1.7716    15.1034    92.0909 </r>
       <r>    -1.6590    12.1180    93.4550 </r>
       <r>    -1.5464    11.0582    94.6999 </r>
       <r>    -1.4339    12.1971    96.0729 </r>
       <r>    -1.3213     7.7280    96.9429 </r>
       <r>    -1.2087     4.3639    97.4341 </r>
       <r>    -1.0961     8.0476    98.3401 </r>
       <r>    -0.9836    15.2996   100.0624 </r>
       <r>    -0.8710    13.0769   101.5345 </r>
       <r>    -0.7584    10.2419   102.6874 </r>
       <r>    -0.6458     1.8351   102.8940 </r>
       <r>    -0.5333     3.8727   103.3300 </r>
       <r>    -0.4207     8.4243   104.2783 </r>
       <r>    -0.3081    11.1318   105.5314 </r>
       <r>    -0.1956    12.0902   106.8925 </r>
       <r>    -0.0830    17.8255   108.8991 </r>
       <r>     0.0296    12.4560   110.3013 </r>
       <r>     0.1422    17.7831   112.3032 </r>
       <r>     0.2547    13.7651   113.8528 </r>
       <r>     0.3673     3.8926   114.2910 </r>
       <r>     0.4799    11.9411   115.6352 </r>
       <r>     0.5924    24.1942   118.3588 </r>
       <r>     0.7050    13.1770   119.8422 </r>
       <r>     0.8176    13.7512   121.3902 </r>
       <r>     0.9302    29.7642   124.7408 </r>
       <r>     1.0427    34.6028   128.6361 </r>
       <r>     1.1553    19.2131   130.7990 </r>
       <r>     1.2679    11.9955   132.1493 </r>
       <r>     1.3805    10.4113   133.3214 </r>
       <r>     1.4930    16.7540   135.2074 </r>
       <r>     1.6056    16.0682   137.0162 </r>
       <r>     1.7182    11.1423   138.2705 </r>
       <r>     1.8307    20.9267   140.6263 </r>
       <r>     1.9433    25.0303   143.4440 </r>
       <r>     2.0559    22.5315   145.9805 </r>
       <r>     2.1685    29.6698   149.3205 </r>
       <r>     2.2810    29.1496   152.6019 </r>
       <r>     2.3936    32.5521   156.2663 </r>
       <r>     2.5062    20.4547   158.5690 </r>
       <r>     2.6187    20.5005   160.8768 </r>
       <r>     2.7313    13.5473   162.4018 </r>
       <r>     2.8439    15.6060   164.1586 </r>
       <r>     2.9565    22.6487   166.7082 </r>
       <r>     3.0690    37.6169   170.9429 </r>
       <r>     3.1816    36.1555   175.0130 </r>
       <r>     3.2942    26.2278   177.9655 </r>
       <r>     3.4068    29.4731   181.2833 </r>
       <r>     3.5193    33.3552   185.0382 </r>
       <r>     3.6319    22.8199   187.6071 </r>
       <r>     3.7445    26.5293   190.5936 </r>
       <r>     3.8570    18.5152   192.6779 </r>
       <r>     3.9696    16.4749   194.5325 </r>
       <r>     4.0822    28.9610   197.7927 </r>
       <r>     4.1948    27.6660   200.9071 </r>
       <r>     4.3073    24.6615   203.6833 </r>
       <r>     4.4199    28.3585   206.8757 </r>
       <r>     4.5325    18.7112   208.9820 </r>
       <r>     4.6450    25.7237   211.8778 </r>
       <r>     4.7576    21.8474   214.3372 </r>
       <r>     4.8702    25.0851   217.1611 </r>
       <r>     4.9828    32.0041   220.7639 </r>
       <r>     5.0953    16.7721   222.6520 </r>
       <r>     5.2079    27.0592   225.6981 </r>
       <r>     5.3205    19.6685   227.9122 </r>
       <r>     5.4331    20.4040   230.2091 </r>
       <r>     5.5456    11.7065   231.5270 </r>
       <r>     5.6582    17.4965   233.4966 </r>
       <r>     5.7708    21.4412   235.9103 </r>
       <r>     5.8833    25.3831   238.7677 </r>
       <r>     5.9959    21.7556   241.2168 </r>
       <r>     6.1085     9.9443   242.3362 </r>
       <r>     6.2211     8.8824   243.3361 </r>
       <r>     6.3336    12.0558   244.6933 </r>
       <r>     6.4462     9.9603   245.8145 </r>
       <r>     6.5588    10.3004   246.9741 </r>
       <r>     6.6713     9.3660   248.0284 </r>
       <r>     6.7839    13.6548   249.5656 </r>
       <r>     6.8965     9.6870   250.6561 </r>
       <r>     7.0091     7.3884   251.4878 </r>
       <r>     7.1216     3.6904   251.9032 </r>
       <r>     7.2342     4.2558   252.3823 </r>
       <r>     7.3468     4.9856   252.9435 </r>
       <r>     7.4594     5.3432   253.5450 </r>
       <r>     7.5719     5.5876   254.1740 </r>
       <r>     7.6845     6.8755   254.9480 </r>
       <r>     7.7971     2.2798   255.2047 </r>
       <r>     7.9096     2.1528   255.4470 </r>
       <r>     8.0222     0.8056   255.5377 </r>
       <r>     8.1348     1.0973   255.6612 </r>
       <r>     8.2474     2.2406   255.9135 </r>
       <r>     8.3599     0.4897   255.9686 </r>
       <r>     8.4725     0.0025   255.9689 </r>
       <r>     8.5851     0.1404   255.9847 </r>
       <r>     8.6976     0.1350   255.9999 </r>
       <r>     8.8102     0.0010   256.0000 </r>
       <r>     8.9228     0.0000   256.0000 </r>
       <r>     9.0354     0.0000   256.0000 </r>
       <r>     9.1479     0.0000   256.0000 </r>
       <r>     9.2605     0.0000   256.0000 </r>
       <r>     9.3731     0.0000   256.0000 </r>
       <r>     9.4857     0.0000   256.0000 </r>
       <r>     9.5982     0.0000   256.0000 </r>
       <r>     9.7108     0.0000   256.0000 </r>
       <r>     9.8234     0.0000   256.0000 </r>
       <r>     9.9359     0.0000   256.0000 </r>
       <r>    10.0485     0.0000   256.0000 </r>
       <r>    10.1611     0.0000   256.0000 </r>
       <r>    10.2737     0.0000   256.0000 </r>
       <r>    10.3862     0.0000   256.0000 </r>
       <r>    10.4988     0.0000   256.0000 </r>
       <r>    10.6114     0.0000   256.0000 </r>
       <r>    10.7239     0.0000   256.0000 </r>
       <r>    10.8365     0.0000   256.0000 </r>
       <r>    10.9491     0.0000   256.0000 </r>
       <r>    11.0617     0.0000   256.0000 </r>
       <r>    11.1742     0.0000   256.0000 </r>
       <r>    11.2868     0.0191   256.0021 </r>
       <r>    11.3994     0.4905   256.0574 </r>
       <r>    11.5120     0.7299   256.1395 </r>
       <r>    11.6245     0.4189   256.1867 </r>
       <r>    11.7371     0.2707   256.2172 </r>
       <r>    11.8497     0.4682   256.2699 </r>
       <r>    11.9622     2.3114   256.5301 </r>
       <r>    12.0748     3.7121   256.9479 </r>
       <r>    12.1874     3.9465   257.3922 </r>
       <r>    12.3000     4.7239   257.9240 </r>
       <r>    12.4125     3.3270   258.2985 </r>
       <r>    12.5251     2.9054   258.6256 </r>
       <r>    12.6377     3.3473   259.0024 </r>
       <r>    12.7503     4.6768   259.5289 </r>
       <r>    12.8628     1.5646   259.7050 </r>
       <r>    12.9754     9.4823   260.7725 </r>
       <r>    13.0880    13.4117   262.2822 </r>
       <r>    13.2005    14.8674   263.9559 </r>
       <r>    13.3131    17.3406   265.9080 </r>
       <r>    13.4257    13.0769   267.3801 </r>
       <r>    13.5383    11.8046   268.7089 </r>
       <r>    13.6508    12.5923   270.1265 </r>
       <r>    13.7634    11.9403   271.4706 </r>
       <r>    13.8760    16.4537   273.3229 </r>
       <r>    13.9885    19.0200   275.4640 </r>
       <r>    14.1011    14.7643   277.1260 </r>
       <r>    14.2137    24.6157   279.8971 </r>
       <r>    14.3263    19.2784   282.0673 </r>
       <r>    14.4388    13.6051   283.5988 </r>
       <r>    14.5514    25.3317   286.4505 </r>
       <r>    14.6640    25.2334   289.2911 </r>
       <r>    14.7766    26.4252   292.2658 </r>
       <r>    14.8891    29.4319   295.5790 </r>
       <r>    15.0017    37.8812   299.8434 </r>
       <r>    15.1143    22.1915   302.3415 </r>
       <r>    15.2268    19.8630   304.5776 </r>
       <r>    15.3394    29.8795   307.9412 </r>
       <r>    15.4520    39.3055   312.3659 </r>
       <r>    15.5646    38.9518   316.7508 </r>
       <r>    15.6771    25.4691   319.6179 </r>
       <r>    15.7897    36.7159   323.7511 </r>
       <r>    15.9023    41.5265   328.4258 </r>
       <r>    16.0148    31.0696   331.9234 </r>
       <r>    16.1274    28.7155   335.1559 </r>
       <r>    16.2400    28.8390   338.4024 </r>
       <r>    16.3526    26.7858   341.4178 </r>
       <r>    16.4651    50.9800   347.1567 </r>
       <r>    16.5777    32.9557   350.8666 </r>
       <r>    16.6903    31.1411   354.3722 </r>
       <r>    16.8029    40.0739   358.8834 </r>
       <r>    16.9154    18.7197   360.9907 </r>
       <r>    17.0280    16.2639   362.8216 </r>
       <r>    17.1406    25.1482   365.6526 </r>
       <r>    17.2531    29.7791   369.0049 </r>
       <r>    17.3657    32.6903   372.6849 </r>
       <r>    17.4783    30.6987   376.1407 </r>
       <r>    17.5909    27.4916   379.2355 </r>
       <r>    17.7034    15.1414   380.9400 </r>
       <r>    17.8160     7.5510   381.7901 </r>
       <r>    17.9286     3.9334   382.2328 </r>
       <r>    18.0411     5.2040   382.8187 </r>
       <r>    18.1537     4.0310   383.2724 </r>
       <r>    18.2663     1.4291   383.4333 </r>
       <r>    18.3789     1.8134   383.6375 </r>
       <r>    18.4914     0.9937   383.7493 </r>
       <r>    18.6040     0.0060   383.7500 </r>
       <r>    18.7166     0.0003   383.7500 </r>
       <r>    18.8292     0.3717   383.7919 </r>
       <r>    18.9417     1.7475   383.9886 </r>
       <r>    19.0543     0.1012   384.0000 </r>
       <r>    19.1669     0.0000   384.0000 </r>
       <r>    19.2794     0.0000   384.0000 </r>
       <r>    19.3920     0.0000   384.0000 </r>
       <r>    19.5046     0.0000   384.0000 </r>
       <r>    19.6172     0.0000   384.0000 </r>
       <r>    19.7297     0.0000   384.0000 </r>
       <r>    19.8423     0.0000   384.0000 </r>
       <r>    19.9549     0.0000   384.0000 </r>
       <r>    20.0674     0.0000   384.0000 </r>
       <r>    20.1800     0.0000   384.0000 </r>
       <r>    20.2926     0.0000   384.0000 </r>
       <r>    20.4052     0.0000   384.0000 </r>
      </set>
     </set>
    </array>
   </total>
  </dos>
 </calculation>
 <structure name="finalpos" >
  <crystal>
   <varray name="basis" >
    <v>       7.53044685       0.00000000       0.00000000 </v>
    <v>       0.00000000       7.53044685       0.00000000 </v>
    <v>       0.00000000       0.00000000       7.17999872 </v>
   </varray>
   <i name="volume">    407.16070905 </i>
   <varray name="rec_basis" >
    <v>       0.13279424       0.00000000       0.00000000 </v>
    <v>       0.00000000       0.13279424       0.00000000 </v>
    <v>       0.00000000       0.00000000       0.13927579 </v>
   </varray>
  </crystal>
  <varray name="positions" >
   <v>       0.12500000       0.37500000       0.12500000 </v>
   <v>       0.62500000       0.37500000       0.12500000 </v>
   <v>       0.12500000       0.87500000       0.12500000 </v>
   <v>       0.62500000       0.87500000       0.12500000 </v>
   <v>       0.12500000       0.37500000       0.62500000 </v>
   <v>       0.62500000       0.37500000       0.62500000 </v>
   <v>       0.12500000       0.87500000       0.62500000 </v>
   <v>       0.62500000       0.87500000       0.62500000 </v>
   <v>       0.00000000       0.00000000       0.25000000 </v>
   <v>       0.50000000       0.00000000       0.25000000 </v>
   <v>       0.00000000       0.50000000       0.25000000 </v>
   <v>       0.50000000       0.50000000       0.25000000 </v>
   <v>       0.00000000       0.00000000       0.75000000 </v>
   <v>       0.50000000       0.00000000       0.75000000 </v>
   <v>       0.00000000       0.50000000       0.75000000 </v>
   <v>       0.50000000       0.50000000       0.75000000 </v>
   <v>       0.12500000       0.12500000       0.37500000 </v>
   <v>       0.62500000       0.12500000       0.37500000 </v>
   <v>       0.12500000       0.62500000       0.37500000 </v>
   <v>       0.62500000       0.62500000       0.37500000 </v>
   <v>       0.12500000       0.12500000       0.87500000 </v>
   <v>       0.62500000       0.12500000       0.87500000 </v>
   <v>       0.12500000       0.62500000       0.87500000 </v>
   <v>       0.62500000       0.62500000       0.87500000 </v>
   <v>       0.00000000       0.25000000       0.00000000 </v>
   <v>       0.50000000       0.25000000       0.00000000 </v>
   <v>       0.00000000       0.75000000       0.00000000 </v>
   <v>       0.50000000       0.75000000       0.00000000 </v>
   <v>       0.00000000       0.25000000       0.50000000 </v>
   <v>       0.50000000       0.25000000       0.50000000 </v>
   <v>       0.00000000       0.75000000       0.50000000 </v>
   <v>       0.50000000       0.75000000       0.50000000 </v>
   <v>       0.37500000       0.37500000       0.37500000 </v>
   <v>       0.87500000       0.37500000       0.37500000 </v>
   <v>       0.37500000       0.87500000       0.37500000 </v>
   <v>       0.87500000       0.87500000       0.37500000 </v>
   <v>       0.37500000       0.37500000       0.87500000 </v>
   <v>       0.87500000       0.37500000       0.87500000 </v>
   <v>       0.37500000       0.87500000       0.87500000 </v>
   <v>       0.87500000       0.87500000       0.87500000 </v>
   <v>       0.25000000       0.00000000       0.00000000 </v>
   <v>       0.75000000       0.00000000       0.00000000 </v>
   <v>       0.25000000       0.50000000       0.00000000 </v>
   <v>       0.75000000       0.50000000       0.00000000 </v>
   <v>       0.25000000       0.00000000       0.50000000 </v>
   <v>       0.75000000       0.00000000       0.50000000 </v>
   <v>       0.25000000       0.50000000       0.50000000 </v>
   <v>       0.75000000       0.50000000       0.50000000 </v>
   <v>       0.37500000       0.12500000       0.12500000 </v>
   <v>       0.87500000       0.12500000       0.12500000 </v>
   <v>       0.37500000       0.62500000       0.12500000 </v>
   <v>       0.87500000       0.62500000       0.12500000 </v>
   <v>       0.37500000       0.12500000       0.62500000 </v>
   <v>       0.87500000       0.12500000       0.62500000 </v>
   <v>       0.37500000       0.62500000       0.62500000 </v>
   <v>       0.87500000       0.62500000       0.62500000 </v>
   <v>       0.25000000       0.25000000       0.25000000 </v>
   <v>       0.75000000       0.25000000       0.25000000 </v>
   <v>       0.25000000       0.75000000       0.25000000 </v>
   <v>       0.75000000       0.75000000       0.25000000 </v>
   <v>       0.25000000       0.25000000       0.75000000 </v>
   <v>       0.75000000       0.25000000       0.75000000 </v>
   <v>       0.25000000       0.75000000       0.75000000 </v>
   <v>       0.75000000       0.75000000       0.75000000 </v>
  </varray>
 </structure>
</modeling>
