   8   8   0   0
  0.6275679E+01  0.3748139E-09  0.3748139E-09  0.3573710E-09  0.2000000E-16
  1.000000000000000E-004
  CAR 
 unknown system                          
     21.00817812    -13.38197264  301      8.86057383      1.00000000
    -13.382  0.0000E+00  0.0000E+00
    -13.267  0.0000E+00  0.0000E+00
    -13.153  0.0000E+00  0.0000E+00
    -13.038  0.0000E+00  0.0000E+00
    -12.923  0.0000E+00  0.0000E+00
    -12.809  0.0000E+00  0.0000E+00
    -12.694  0.0000E+00  0.0000E+00
    -12.580  0.0000E+00  0.0000E+00
    -12.465  0.0000E+00  0.0000E+00
    -12.350  0.0000E+00  0.0000E+00
    -12.236  0.0000E+00  0.0000E+00
    -12.121  0.0000E+00  0.0000E+00
    -12.006  0.0000E+00  0.0000E+00
    -11.892  0.0000E+00  0.0000E+00
    -11.777  0.3768E-01  0.5236E-03
    -11.662  0.1651E+00  0.1509E-01
    -11.548  0.2579E+00  0.3940E-01
    -11.433  0.2930E+00  0.7066E-01
    -11.319  0.3443E+00  0.1072E+00
    -11.204  0.3868E+00  0.1495E+00
    -11.089  0.4182E+00  0.1956E+00
    -10.975  0.4524E+00  0.2454E+00
    -10.860  0.4923E+00  0.2996E+00
    -10.745  0.5186E+00  0.3575E+00
    -10.631  0.5433E+00  0.4184E+00
    -10.516  0.5719E+00  0.4823E+00
    -10.401  0.6027E+00  0.5496E+00
    -10.287  0.6282E+00  0.6203E+00
    -10.172  0.6522E+00  0.6937E+00
    -10.058  0.6747E+00  0.7697E+00
     -9.943  0.6984E+00  0.8484E+00
     -9.828  0.7235E+00  0.9299E+00
     -9.714  0.7495E+00  0.1014E+01
     -9.599  0.7712E+00  0.1101E+01
     -9.484  0.7919E+00  0.1191E+01
     -9.370  0.8127E+00  0.1283E+01
     -9.255  0.8347E+00  0.1378E+01
     -9.141  0.8580E+00  0.1475E+01
     -9.026  0.8820E+00  0.1574E+01
     -8.911  0.9028E+00  0.1677E+01
     -8.797  0.9240E+00  0.1781E+01
     -8.682  0.9454E+00  0.1888E+01
     -8.567  0.9671E+00  0.1998E+01
     -8.453  0.9896E+00  0.2110E+01
     -8.338  0.1024E+01  0.2225E+01
     -8.223  0.1059E+01  0.2345E+01
     -8.109  0.1124E+01  0.2470E+01
     -7.994  0.1161E+01  0.2601E+01
     -7.880  0.1193E+01  0.2736E+01
     -7.765  0.1188E+01  0.2873E+01
     -7.650  0.1178E+01  0.3008E+01
     -7.536  0.1152E+01  0.3142E+01
     -7.421  0.1165E+01  0.3274E+01
     -7.306  0.1182E+01  0.3409E+01
     -7.192  0.1199E+01  0.3545E+01
     -7.077  0.1246E+01  0.3685E+01
     -6.962  0.1334E+01  0.3833E+01
     -6.848  0.1378E+01  0.3989E+01
     -6.733  0.1506E+01  0.4153E+01
     -6.619  0.1762E+01  0.4340E+01
     -6.504  0.1830E+01  0.4546E+01
     -6.389  0.1637E+01  0.4739E+01
     -6.275  0.1708E+01  0.4930E+01
     -6.160  0.1590E+01  0.5120E+01
     -6.045  0.1528E+01  0.5299E+01
     -5.931  0.1518E+01  0.5474E+01
     -5.816  0.1521E+01  0.5648E+01
     -5.702  0.1432E+01  0.5816E+01
     -5.587  0.1368E+01  0.5976E+01
     -5.472  0.1351E+01  0.6132E+01
     -5.358  0.1304E+01  0.6284E+01
     -5.243  0.1282E+01  0.6433E+01
     -5.128  0.1237E+01  0.6578E+01
     -5.014  0.1184E+01  0.6718E+01
     -4.899  0.1138E+01  0.6853E+01
     -4.784  0.1110E+01  0.6982E+01
     -4.670  0.1065E+01  0.7106E+01
     -4.555  0.1049E+01  0.7228E+01
     -4.441  0.9997E+00  0.7347E+01
     -4.326  0.9404E+00  0.7458E+01
     -4.211  0.8817E+00  0.7562E+01
     -4.097  0.8104E+00  0.7659E+01
     -3.982  0.7353E+00  0.7748E+01
     -3.867  0.6643E+00  0.7831E+01
     -3.753  0.7654E+00  0.7915E+01
     -3.638  0.7874E+00  0.7999E+01
     -3.523  0.8153E+00  0.8093E+01
     -3.409  0.8014E+00  0.8185E+01
     -3.294  0.8898E+00  0.8279E+01
     -3.180  0.1064E+01  0.8393E+01
     -3.065  0.1198E+01  0.8522E+01
     -2.950  0.1398E+01  0.8670E+01
     -2.836  0.1691E+01  0.8846E+01
     -2.721  0.2015E+01  0.9057E+01
     -2.606  0.2792E+01  0.9318E+01
     -2.492  0.2912E+01  0.9661E+01
     -2.377  0.2780E+01  0.9984E+01
     -2.262  0.2596E+01  0.1030E+02
     -2.148  0.2201E+01  0.1057E+02
     -2.033  0.1952E+01  0.1081E+02
     -1.919  0.1800E+01  0.1102E+02
     -1.804  0.1685E+01  0.1122E+02
     -1.689  0.1609E+01  0.1141E+02
     -1.575  0.1598E+01  0.1159E+02
     -1.460  0.1565E+01  0.1178E+02
     -1.345  0.1388E+01  0.1195E+02
     -1.231  0.1297E+01  0.1210E+02
     -1.116  0.1231E+01  0.1225E+02
     -1.002  0.1196E+01  0.1239E+02
     -0.887  0.1169E+01  0.1252E+02
     -0.772  0.1143E+01  0.1265E+02
     -0.658  0.1112E+01  0.1278E+02
     -0.543  0.1055E+01  0.1291E+02
     -0.428  0.9902E+00  0.1302E+02
     -0.314  0.1031E+01  0.1314E+02
     -0.199  0.1149E+01  0.1326E+02
     -0.084  0.1276E+01  0.1340E+02
      0.030  0.1375E+01  0.1356E+02
      0.145  0.1527E+01  0.1372E+02
      0.259  0.1838E+01  0.1391E+02
      0.374  0.2187E+01  0.1414E+02
      0.489  0.2514E+01  0.1441E+02
      0.603  0.2619E+01  0.1471E+02
      0.718  0.2364E+01  0.1500E+02
      0.833  0.2155E+01  0.1525E+02
      0.947  0.2084E+01  0.1550E+02
      1.062  0.1870E+01  0.1573E+02
      1.177  0.1726E+01  0.1592E+02
      1.291  0.1893E+01  0.1613E+02
      1.406  0.2113E+01  0.1636E+02
      1.520  0.2525E+01  0.1662E+02
      1.635  0.2577E+01  0.1692E+02
      1.750  0.2539E+01  0.1721E+02
      1.864  0.2439E+01  0.1750E+02
      1.979  0.2406E+01  0.1777E+02
      2.094  0.2746E+01  0.1807E+02
      2.208  0.3230E+01  0.1841E+02
      2.323  0.3371E+01  0.1880E+02
      2.437  0.2892E+01  0.1915E+02
      2.552  0.2810E+01  0.1947E+02
      2.667  0.2705E+01  0.1979E+02
      2.781  0.2630E+01  0.2009E+02
      2.896  0.3144E+01  0.2042E+02
      3.011  0.4023E+01  0.2084E+02
      3.125  0.3747E+01  0.2129E+02
      3.240  0.3458E+01  0.2168E+02
      3.355  0.3525E+01  0.2208E+02
      3.469  0.3121E+01  0.2247E+02
      3.584  0.2904E+01  0.2281E+02
      3.698  0.3076E+01  0.2315E+02
      3.813  0.3139E+01  0.2350E+02
      3.928  0.3154E+01  0.2386E+02
      4.042  0.3253E+01  0.2424E+02
      4.157  0.3194E+01  0.2461E+02
      4.272  0.3185E+01  0.2497E+02
      4.386  0.3297E+01  0.2534E+02
      4.501  0.3182E+01  0.2572E+02
      4.616  0.2928E+01  0.2607E+02
      4.730  0.2799E+01  0.2639E+02
      4.845  0.2665E+01  0.2670E+02
      4.959  0.2681E+01  0.2701E+02
      5.074  0.2792E+01  0.2732E+02
      5.189  0.2879E+01  0.2764E+02
      5.303  0.3087E+01  0.2799E+02
      5.418  0.2849E+01  0.2834E+02
      5.533  0.2649E+01  0.2866E+02
      5.647  0.2527E+01  0.2895E+02
      5.762  0.2425E+01  0.2924E+02
      5.877  0.2153E+01  0.2950E+02
      5.991  0.2209E+01  0.2975E+02
      6.106  0.2319E+01  0.3001E+02
      6.220  0.1790E+01  0.3024E+02
      6.335  0.1573E+01  0.3043E+02
      6.450  0.1427E+01  0.3060E+02
      6.564  0.1331E+01  0.3076E+02
      6.679  0.1256E+01  0.3091E+02
      6.794  0.1174E+01  0.3105E+02
      6.908  0.1054E+01  0.3117E+02
      7.023  0.9403E+00  0.3129E+02
      7.137  0.8595E+00  0.3139E+02
      7.252  0.8007E+00  0.3149E+02
      7.367  0.7667E+00  0.3158E+02
      7.481  0.6615E+00  0.3166E+02
      7.596  0.5745E+00  0.3173E+02
      7.711  0.5068E+00  0.3179E+02
      7.825  0.4746E+00  0.3185E+02
      7.940  0.3448E+00  0.3189E+02
      8.055  0.2474E+00  0.3193E+02
      8.169  0.1929E+00  0.3195E+02
      8.284  0.1376E+00  0.3197E+02
      8.398  0.9019E-01  0.3199E+02
      8.513  0.6278E-01  0.3199E+02
      8.628  0.1840E-01  0.3200E+02
      8.742  0.2269E-02  0.3200E+02
      8.857  0.0000E+00  0.3200E+02
      8.972  0.0000E+00  0.3200E+02
      9.086  0.0000E+00  0.3200E+02
      9.201  0.0000E+00  0.3200E+02
      9.316  0.0000E+00  0.3200E+02
      9.430  0.0000E+00  0.3200E+02
      9.545  0.0000E+00  0.3200E+02
      9.659  0.0000E+00  0.3200E+02
      9.774  0.0000E+00  0.3200E+02
      9.889  0.0000E+00  0.3200E+02
     10.003  0.0000E+00  0.3200E+02
     10.118  0.0000E+00  0.3200E+02
     10.233  0.0000E+00  0.3200E+02
     10.347  0.0000E+00  0.3200E+02
     10.462  0.0000E+00  0.3200E+02
     10.576  0.0000E+00  0.3200E+02
     10.691  0.0000E+00  0.3200E+02
     10.806  0.0000E+00  0.3200E+02
     10.920  0.0000E+00  0.3200E+02
     11.035  0.0000E+00  0.3200E+02
     11.150  0.0000E+00  0.3200E+02
     11.264  0.0000E+00  0.3200E+02
     11.379  0.0000E+00  0.3200E+02
     11.494  0.0000E+00  0.3200E+02
     11.608  0.5541E-02  0.3200E+02
     11.723  0.5104E-01  0.3200E+02
     11.837  0.1237E+00  0.3201E+02
     11.952  0.1669E+00  0.3203E+02
     12.067  0.1879E+00  0.3205E+02
     12.181  0.2220E+00  0.3207E+02
     12.296  0.2782E+00  0.3210E+02
     12.411  0.3206E+00  0.3214E+02
     12.525  0.3690E+00  0.3218E+02
     12.640  0.4808E+00  0.3223E+02
     12.755  0.5602E+00  0.3228E+02
     12.869  0.6550E+00  0.3235E+02
     12.984  0.8140E+00  0.3244E+02
     13.098  0.9623E+00  0.3254E+02
     13.213  0.1053E+01  0.3266E+02
     13.328  0.1198E+01  0.3279E+02
     13.442  0.1418E+01  0.3294E+02
     13.557  0.1623E+01  0.3311E+02
     13.672  0.2033E+01  0.3332E+02
     13.786  0.1752E+01  0.3353E+02
     13.901  0.1817E+01  0.3373E+02
     14.016  0.1872E+01  0.3394E+02
     14.130  0.1973E+01  0.3416E+02
     14.245  0.2176E+01  0.3440E+02
     14.359  0.2372E+01  0.3466E+02
     14.474  0.2443E+01  0.3494E+02
     14.589  0.2524E+01  0.3522E+02
     14.703  0.2637E+01  0.3552E+02
     14.818  0.2663E+01  0.3582E+02
     14.933  0.2838E+01  0.3614E+02
     15.047  0.3001E+01  0.3647E+02
     15.162  0.3112E+01  0.3683E+02
     15.276  0.3345E+01  0.3719E+02
     15.391  0.4101E+01  0.3761E+02
     15.506  0.3785E+01  0.3808E+02
     15.620  0.4280E+01  0.3853E+02
     15.735  0.4758E+01  0.3905E+02
     15.850  0.4185E+01  0.3957E+02
     15.964  0.3876E+01  0.4003E+02
     16.079  0.4007E+01  0.4047E+02
     16.194  0.4277E+01  0.4094E+02
     16.308  0.3897E+01  0.4142E+02
     16.423  0.3726E+01  0.4185E+02
     16.537  0.3835E+01  0.4228E+02
     16.652  0.4059E+01  0.4274E+02
     16.767  0.3958E+01  0.4320E+02
     16.881  0.3777E+01  0.4364E+02
     16.996  0.3521E+01  0.4406E+02
     17.111  0.3155E+01  0.4444E+02
     17.225  0.3091E+01  0.4480E+02
     17.340  0.3018E+01  0.4515E+02
     17.455  0.2907E+01  0.4548E+02
     17.569  0.2894E+01  0.4581E+02
     17.684  0.2769E+01  0.4614E+02
     17.798  0.2564E+01  0.4645E+02
     17.913  0.2461E+01  0.4674E+02
     18.028  0.2340E+01  0.4701E+02
     18.142  0.2290E+01  0.4727E+02
     18.257  0.1629E+01  0.4750E+02
     18.372  0.1162E+01  0.4766E+02
     18.486  0.7553E+00  0.4777E+02
     18.601  0.5339E+00  0.4784E+02
     18.716  0.3809E+00  0.4789E+02
     18.830  0.2974E+00  0.4793E+02
     18.945  0.2195E+00  0.4796E+02
     19.059  0.1350E+00  0.4798E+02
     19.174  0.7027E-01  0.4799E+02
     19.289  0.4096E-01  0.4800E+02
     19.403  0.4113E-02  0.4800E+02
     19.518  0.0000E+00  0.4800E+02
     19.633  0.0000E+00  0.4800E+02
     19.747  0.0000E+00  0.4800E+02
     19.862  0.0000E+00  0.4800E+02
     19.976  0.0000E+00  0.4800E+02
     20.091  0.0000E+00  0.4800E+02
     20.206  0.0000E+00  0.4800E+02
     20.320  0.0000E+00  0.4800E+02
     20.435  0.0000E+00  0.4800E+02
     20.550  0.0000E+00  0.4800E+02
     20.664  0.0000E+00  0.4800E+02
     20.779  0.0000E+00  0.4800E+02
     20.894  0.0000E+00  0.4800E+02
     21.008  0.0000E+00  0.4800E+02
