       N       E                     dE             d eps       ncg     rms          rms(c)
DAV:   1     0.555151406302E+02    0.55515E+02   -0.14124E+04  9424   0.104E+03
DAV:   2    -0.694881949695E+02   -0.12500E+03   -0.11853E+03 13024   0.215E+02
DAV:   3    -0.737810403114E+02   -0.42928E+01   -0.42697E+01 12288   0.373E+01
DAV:   4    -0.738294734689E+02   -0.48433E-01   -0.48387E-01 12072   0.430E+00
DAV:   5    -0.738305972558E+02   -0.11238E-02   -0.11232E-02 12240   0.588E-01    0.838E+00
DAV:   6    -0.724753607053E+02    0.13552E+01   -0.91845E-01 11120   0.528E+00    0.468E+00
DAV:   7    -0.720162115718E+02    0.45915E+00   -0.10689E+00 11192   0.586E+00    0.661E-01
DAV:   8    -0.720224019190E+02   -0.61903E-02   -0.22199E-02 12112   0.849E-01    0.748E-02
DAV:   9    -0.720226268865E+02   -0.22497E-03   -0.43127E-04 11704   0.136E-01    0.270E-02
DAV:  10    -0.720226833324E+02   -0.56446E-04   -0.54675E-05 11920   0.541E-02    0.255E-03
DAV:  11    -0.720226837162E+02   -0.38380E-06   -0.10878E-06  8832   0.694E-03
   1 F= -.72022684E+02 E0= -.72022684E+02  d E =0.000000E+00
