  64  64   0   0
  0.5775562E+01  0.7179999E-09  0.7179998E-09  0.7179999E-09  0.5000000E-15
  1.000000000000000E-004
  CAR 
 unknown system                          
     22.79115334    -13.39506728  301      9.77919151      1.00000000
    -13.395  0.0000E+00  0.0000E+00
    -13.274  0.0000E+00  0.0000E+00
    -13.154  0.0000E+00  0.0000E+00
    -13.033  0.0000E+00  0.0000E+00
    -12.913  0.0000E+00  0.0000E+00
    -12.792  0.0000E+00  0.0000E+00
    -12.671  0.0000E+00  0.0000E+00
    -12.551  0.0000E+00  0.0000E+00
    -12.430  0.0000E+00  0.0000E+00
    -12.309  0.0000E+00  0.0000E+00
    -12.189  0.0000E+00  0.0000E+00
    -12.068  0.2540E-14  0.3063E-15
    -11.948  0.1262E-06  0.1522E-07
    -11.827  0.2924E-02  0.3528E-03
    -11.706  0.2353E+00  0.2873E-01
    -11.586  0.1223E+01  0.1763E+00
    -11.465  0.1422E+01  0.3478E+00
    -11.345  0.2804E+01  0.6860E+00
    -11.224  0.1583E+01  0.8770E+00
    -11.103  0.3517E+01  0.1301E+01
    -10.983  0.2899E+01  0.1651E+01
    -10.862  0.3767E+01  0.2105E+01
    -10.741  0.2437E+01  0.2399E+01
    -10.621  0.4581E+01  0.2952E+01
    -10.500  0.4366E+01  0.3478E+01
    -10.380  0.4856E+01  0.4064E+01
    -10.259  0.2659E+01  0.4385E+01
    -10.138  0.4734E+01  0.4956E+01
    -10.018  0.6050E+01  0.5686E+01
     -9.897  0.5586E+01  0.6359E+01
     -9.776  0.4399E+01  0.6890E+01
     -9.656  0.4877E+01  0.7478E+01
     -9.535  0.5501E+01  0.8142E+01
     -9.415  0.6117E+01  0.8880E+01
     -9.294  0.5195E+01  0.9506E+01
     -9.173  0.7531E+01  0.1041E+02
     -9.053  0.6319E+01  0.1118E+02
     -8.932  0.6335E+01  0.1194E+02
     -8.811  0.4538E+01  0.1249E+02
     -8.691  0.7051E+01  0.1334E+02
     -8.570  0.6601E+01  0.1414E+02
     -8.450  0.8237E+01  0.1513E+02
     -8.329  0.8610E+01  0.1617E+02
     -8.208  0.6659E+01  0.1697E+02
     -8.088  0.6543E+01  0.1776E+02
     -7.967  0.7351E+01  0.1865E+02
     -7.847  0.6309E+01  0.1941E+02
     -7.726  0.8931E+01  0.2048E+02
     -7.605  0.9751E+01  0.2166E+02
     -7.485  0.7972E+01  0.2262E+02
     -7.364  0.7818E+01  0.2357E+02
     -7.243  0.1023E+02  0.2480E+02
     -7.123  0.8654E+01  0.2584E+02
     -7.002  0.7954E+01  0.2680E+02
     -6.882  0.8077E+01  0.2778E+02
     -6.761  0.9006E+01  0.2886E+02
     -6.640  0.1063E+02  0.3014E+02
     -6.520  0.1086E+02  0.3145E+02
     -6.399  0.1228E+02  0.3294E+02
     -6.278  0.1120E+02  0.3429E+02
     -6.158  0.1115E+02  0.3563E+02
     -6.037  0.1162E+02  0.3703E+02
     -5.917  0.1233E+02  0.3852E+02
     -5.796  0.9416E+01  0.3966E+02
     -5.675  0.8704E+01  0.4071E+02
     -5.555  0.1285E+02  0.4226E+02
     -5.434  0.1303E+02  0.4383E+02
     -5.313  0.1260E+02  0.4535E+02
     -5.193  0.1013E+02  0.4657E+02
     -5.072  0.1006E+02  0.4778E+02
     -4.952  0.1036E+02  0.4903E+02
     -4.831  0.9339E+01  0.5016E+02
     -4.710  0.8914E+01  0.5123E+02
     -4.590  0.1113E+02  0.5258E+02
     -4.469  0.5203E+01  0.5320E+02
     -4.349  0.7580E+01  0.5412E+02
     -4.228  0.9365E+01  0.5525E+02
     -4.107  0.1042E+02  0.5651E+02
     -3.987  0.1186E+02  0.5794E+02
     -3.866  0.8712E+01  0.5899E+02
     -3.745  0.4137E+01  0.5949E+02
     -3.625  0.5266E+01  0.6012E+02
     -3.504  0.6977E+01  0.6096E+02
     -3.384  0.6153E+01  0.6171E+02
     -3.263  0.1006E+02  0.6292E+02
     -3.142  0.1069E+02  0.6421E+02
     -3.022  0.6696E+01  0.6502E+02
     -2.901  0.8383E+01  0.6603E+02
     -2.780  0.1188E+02  0.6746E+02
     -2.660  0.8038E+01  0.6843E+02
     -2.539  0.7933E+01  0.6939E+02
     -2.419  0.8174E+01  0.7037E+02
     -2.298  0.1040E+02  0.7163E+02
     -2.177  0.1382E+02  0.7330E+02
     -2.057  0.1379E+02  0.7496E+02
     -1.936  0.1295E+02  0.7652E+02
     -1.815  0.2087E+02  0.7904E+02
     -1.695  0.2351E+02  0.8187E+02
     -1.574  0.1827E+02  0.8408E+02
     -1.454  0.1603E+02  0.8601E+02
     -1.333  0.1820E+02  0.8821E+02
     -1.212  0.1005E+02  0.8942E+02
     -1.092  0.1197E+02  0.9086E+02
     -0.971  0.9488E+01  0.9200E+02
     -0.851  0.1116E+02  0.9335E+02
     -0.730  0.1019E+02  0.9458E+02
     -0.609  0.9908E+01  0.9577E+02
     -0.489  0.1281E+02  0.9732E+02
     -0.368  0.1257E+02  0.9884E+02
     -0.247  0.1019E+02  0.1001E+03
     -0.127  0.7987E+01  0.1010E+03
     -0.006  0.5885E+01  0.1017E+03
      0.114  0.7822E+01  0.1027E+03
      0.235  0.9993E+01  0.1039E+03
      0.356  0.9321E+01  0.1050E+03
      0.476  0.1136E+02  0.1064E+03
      0.597  0.8651E+01  0.1074E+03
      0.718  0.1314E+02  0.1090E+03
      0.838  0.1875E+02  0.1113E+03
      0.959  0.1956E+02  0.1136E+03
      1.079  0.1854E+02  0.1159E+03
      1.200  0.1511E+02  0.1177E+03
      1.321  0.1448E+02  0.1194E+03
      1.441  0.1464E+02  0.1212E+03
      1.562  0.1275E+02  0.1227E+03
      1.683  0.2130E+02  0.1253E+03
      1.803  0.1613E+02  0.1273E+03
      1.924  0.1713E+02  0.1293E+03
      2.044  0.1911E+02  0.1316E+03
      2.165  0.1832E+02  0.1338E+03
      2.286  0.1684E+02  0.1359E+03
      2.406  0.1628E+02  0.1378E+03
      2.527  0.1539E+02  0.1397E+03
      2.647  0.2349E+02  0.1425E+03
      2.768  0.1577E+02  0.1444E+03
      2.889  0.1840E+02  0.1466E+03
      3.009  0.2733E+02  0.1499E+03
      3.130  0.2467E+02  0.1529E+03
      3.251  0.2533E+02  0.1560E+03
      3.371  0.1472E+02  0.1577E+03
      3.492  0.2185E+02  0.1604E+03
      3.612  0.2526E+02  0.1634E+03
      3.733  0.2397E+02  0.1663E+03
      3.854  0.3078E+02  0.1700E+03
      3.974  0.2575E+02  0.1731E+03
      4.095  0.2308E+02  0.1759E+03
      4.216  0.2626E+02  0.1791E+03
      4.336  0.2328E+02  0.1819E+03
      4.457  0.1711E+02  0.1840E+03
      4.577  0.2661E+02  0.1872E+03
      4.698  0.2844E+02  0.1906E+03
      4.819  0.2232E+02  0.1933E+03
      4.939  0.2070E+02  0.1958E+03
      5.060  0.2465E+02  0.1988E+03
      5.181  0.2214E+02  0.2014E+03
      5.301  0.2378E+02  0.2043E+03
      5.422  0.2369E+02  0.2072E+03
      5.542  0.1940E+02  0.2095E+03
      5.663  0.2157E+02  0.2121E+03
      5.784  0.2038E+02  0.2146E+03
      5.904  0.2404E+02  0.2175E+03
      6.025  0.2068E+02  0.2200E+03
      6.145  0.2329E+02  0.2228E+03
      6.266  0.2142E+02  0.2253E+03
      6.387  0.1966E+02  0.2277E+03
      6.507  0.1827E+02  0.2299E+03
      6.628  0.1726E+02  0.2320E+03
      6.749  0.1841E+02  0.2342E+03
      6.869  0.2031E+02  0.2367E+03
      6.990  0.2383E+02  0.2395E+03
      7.110  0.7858E+01  0.2405E+03
      7.231  0.9461E+01  0.2416E+03
      7.352  0.1459E+02  0.2434E+03
      7.472  0.1145E+02  0.2448E+03
      7.593  0.1089E+02  0.2461E+03
      7.714  0.1144E+02  0.2475E+03
      7.834  0.7246E+01  0.2483E+03
      7.955  0.6461E+01  0.2491E+03
      8.075  0.7282E+01  0.2500E+03
      8.196  0.9096E+01  0.2511E+03
      8.317  0.6311E+01  0.2519E+03
      8.437  0.4479E+01  0.2524E+03
      8.558  0.4785E+01  0.2530E+03
      8.679  0.6627E+01  0.2538E+03
      8.799  0.4310E+01  0.2543E+03
      8.920  0.3338E+01  0.2547E+03
      9.040  0.2339E+01  0.2550E+03
      9.161  0.3291E+01  0.2554E+03
      9.282  0.3307E+01  0.2558E+03
      9.402  0.8501E+00  0.2559E+03
      9.523  0.8875E+00  0.2560E+03
      9.643  0.1214E+00  0.2560E+03
      9.764  0.5455E-03  0.2560E+03
      9.885  0.2364E-08  0.2560E+03
     10.005  0.0000E+00  0.2560E+03
     10.126  0.0000E+00  0.2560E+03
     10.247  0.0000E+00  0.2560E+03
     10.367  0.0000E+00  0.2560E+03
     10.488  0.0000E+00  0.2560E+03
     10.608  0.0000E+00  0.2560E+03
     10.729  0.0000E+00  0.2560E+03
     10.850  0.0000E+00  0.2560E+03
     10.970  0.0000E+00  0.2560E+03
     11.091  0.0000E+00  0.2560E+03
     11.212  0.0000E+00  0.2560E+03
     11.332  0.0000E+00  0.2560E+03
     11.453  0.0000E+00  0.2560E+03
     11.573  0.0000E+00  0.2560E+03
     11.694  0.0000E+00  0.2560E+03
     11.815  0.0000E+00  0.2560E+03
     11.935  0.0000E+00  0.2560E+03
     12.056  0.0000E+00  0.2560E+03
     12.177  0.0000E+00  0.2560E+03
     12.297  0.0000E+00  0.2560E+03
     12.418  0.0000E+00  0.2560E+03
     12.538  0.0000E+00  0.2560E+03
     12.659  0.0000E+00  0.2560E+03
     12.780  0.0000E+00  0.2560E+03
     12.900  0.0000E+00  0.2560E+03
     13.021  0.0000E+00  0.2560E+03
     13.141  0.2557E-16  0.2560E+03
     13.262  0.9929E-08  0.2560E+03
     13.383  0.2367E-02  0.2560E+03
     13.503  0.5197E+00  0.2561E+03
     13.624  0.1331E+01  0.2562E+03
     13.745  0.2832E+01  0.2566E+03
     13.865  0.7687E+01  0.2575E+03
     13.986  0.3831E+01  0.2580E+03
     14.106  0.5026E+01  0.2586E+03
     14.227  0.7634E+01  0.2595E+03
     14.348  0.5504E+01  0.2601E+03
     14.468  0.5524E+01  0.2608E+03
     14.589  0.1144E+02  0.2622E+03
     14.710  0.1020E+02  0.2634E+03
     14.830  0.1102E+02  0.2648E+03
     14.951  0.1162E+02  0.2662E+03
     15.071  0.1334E+02  0.2678E+03
     15.192  0.1434E+02  0.2695E+03
     15.313  0.1304E+02  0.2711E+03
     15.433  0.1086E+02  0.2724E+03
     15.554  0.1283E+02  0.2739E+03
     15.675  0.1536E+02  0.2758E+03
     15.795  0.2090E+02  0.2783E+03
     15.916  0.2039E+02  0.2808E+03
     16.036  0.1921E+02  0.2831E+03
     16.157  0.2091E+02  0.2856E+03
     16.278  0.1767E+02  0.2877E+03
     16.398  0.1714E+02  0.2898E+03
     16.519  0.1800E+02  0.2920E+03
     16.639  0.1671E+02  0.2940E+03
     16.760  0.1981E+02  0.2964E+03
     16.881  0.2101E+02  0.2989E+03
     17.001  0.3977E+02  0.3037E+03
     17.122  0.3546E+02  0.3080E+03
     17.243  0.3267E+02  0.3119E+03
     17.363  0.2625E+02  0.3151E+03
     17.484  0.2614E+02  0.3182E+03
     17.604  0.3279E+02  0.3222E+03
     17.725  0.3430E+02  0.3263E+03
     17.846  0.3571E+02  0.3306E+03
     17.966  0.2619E+02  0.3338E+03
     18.087  0.2975E+02  0.3374E+03
     18.208  0.2787E+02  0.3407E+03
     18.328  0.2864E+02  0.3442E+03
     18.449  0.2771E+02  0.3475E+03
     18.569  0.2722E+02  0.3508E+03
     18.690  0.2446E+02  0.3538E+03
     18.811  0.2959E+02  0.3573E+03
     18.931  0.2434E+02  0.3603E+03
     19.052  0.1893E+02  0.3626E+03
     19.173  0.2779E+02  0.3659E+03
     19.293  0.2264E+02  0.3686E+03
     19.414  0.2792E+02  0.3720E+03
     19.534  0.3016E+02  0.3757E+03
     19.655  0.2576E+02  0.3788E+03
     19.776  0.1731E+02  0.3809E+03
     19.896  0.1149E+02  0.3822E+03
     20.017  0.3736E+01  0.3827E+03
     20.137  0.1393E+01  0.3829E+03
     20.258  0.1974E+01  0.3831E+03
     20.379  0.2408E+01  0.3834E+03
     20.499  0.1383E+01  0.3836E+03
     20.620  0.1233E+01  0.3837E+03
     20.741  0.1482E+01  0.3839E+03
     20.861  0.6127E+00  0.3840E+03
     20.982  0.8177E-01  0.3840E+03
     21.102  0.4627E-01  0.3840E+03
     21.223  0.2500E+00  0.3840E+03
     21.344  0.1081E-01  0.3840E+03
     21.464  0.5038E-06  0.3840E+03
     21.585  0.1016E-13  0.3840E+03
     21.706  0.0000E+00  0.3840E+03
     21.826  0.0000E+00  0.3840E+03
     21.947  0.0000E+00  0.3840E+03
     22.067  0.0000E+00  0.3840E+03
     22.188  0.0000E+00  0.3840E+03
     22.309  0.0000E+00  0.3840E+03
     22.429  0.0000E+00  0.3840E+03
     22.550  0.0000E+00  0.3840E+03
     22.671  0.0000E+00  0.3840E+03
     22.791  0.0000E+00  0.3840E+03
