  64   64
1 1
    42.792974328080000     2.965900011780000     3.059092640120000
     2.965900011780000    42.970996445570002     3.152284067360000
     3.059092640120000     3.152284067360000    43.166095442529993
1 2
    -0.162057696840000     0.002062889250000     0.002127628540000
     0.002062889250000    -0.092522534650000     0.000178603570000
     0.002127628540000     0.000178603570000    -0.092511484530000
1 3
    -0.092708825260000     0.004144275440000     0.000114705050000
     0.004144275440000    -0.161871406230000     0.002132072610000
     0.000114705050000     0.002132072610000    -0.092511484530000
1 4
    -0.114225690990000    -0.017763067900000    -0.002705958190000
    -0.017763067900000    -0.115291907460000    -0.002788353650000
    -0.002705958190000    -0.002788353650000     0.563849788950000
1 5
    -0.092708825260000    -0.000013572430000     0.004145836870000
    -0.000013572430000    -0.092709666030000     0.004272072480000
     0.004145836870000     0.004272072480000    -0.161673224730000
1 6
    -0.114225690990000    -0.002155253840000    -0.017838256760000
    -0.002155253840000     0.563372351700000     0.018211198310000
    -0.017838256760000     0.018211198310000    -0.114814710430000
1 7
     0.562891911700000     0.018167358160000     0.018738120880000
     0.018167358160000    -0.113745010770000    -0.017283829000000
     0.018738120880000    -0.017283829000000    -0.114814710430000
1 8
    -0.052385496060000     0.003158772890000     0.003258103860000
     0.003158772890000    -0.052195842370000     0.003357314720000
     0.003258103860000     0.003357314720000    -0.051988052070000
1 9
     0.171230977980000     0.115075469240000    -0.034508683990000
     0.115075469240000     0.091889314730000    -0.100770608460000
    -0.034508683990000    -0.100770608460000     0.123827284390000
1 10
    -0.068766097860000     0.073748741100000     0.202053005630000
     0.073748741100000    -0.051458607190000    -0.194956306280000
     0.202053005630000    -0.194956306280000    -0.335076512170000
1 11
    -8.445020699310000     1.311890304770000     1.353111816550000
     1.311890304770000    -8.252298078699999    -1.199845571160000
     1.353111816550000    -1.199845571160000    -8.326554404660000
1 12
     0.023568824970000     0.072615142920000     0.074896872590000
     0.072615142920000     0.159925504120000    -0.001338746060000
     0.074896872590000    -0.001338746060000     0.159842748330000
1 13
    -0.385575560570000     0.205587722820000     0.212047478840000
     0.205587722820000    -0.112970901820000    -0.122889345400000
     0.212047478840000    -0.122889345400000    -0.120575906690000
1 14
     0.035706901350000     0.029253270940000     0.030172472770000
     0.029253270940000     0.031173229290000    -0.034504119810000
     0.030172472770000    -0.034504119810000     0.029038033820000
1 15
     0.171230977980000    -0.038051208330000     0.113953161400000
    -0.038051208330000     0.130026882150000    -0.099590527710000
     0.113953161400000    -0.099590527710000     0.085689596860000
1 16
    -0.068766097860000     0.199675428180000     0.079962511840000
     0.199675428180000    -0.322751664740000    -0.203350914290000
     0.079962511840000    -0.203350914290000    -0.063783334510000
1 17
     1.335350069860000    -0.645362080120000     0.668877095810000
     0.688516522130000    -1.429331340460000     1.448530923960000
    -0.624366732010000     1.405685765200000    -1.341015178120000
1 18
     0.048815826860000    -0.037199988760000     0.042513054610000
     0.043643289710000    -0.082818607530000    -0.071851603650000
    -0.035867368310000    -0.066486410060000    -0.087099087710000
1 19
     1.395025642370000    -0.615631131710000    -0.634975087430000
     0.840493026340000    -1.550311897740000    -1.677442447350000
     0.866902452810000    -1.677442447350000    -1.654121289200000
1 20
     0.057853503810000    -0.029112742240000    -0.030027500000000
     0.039002359420000    -0.083175214120000     0.081493073570000
     0.040227841750000     0.081493073570000    -0.078132035440000
1 21
     1.395025642370000     0.840493026340000     0.866902452810000
    -0.615631131710000    -1.550311897740000    -1.677442447350000
    -0.634975087430000    -1.677442447350000    -1.654121289200000
1 22
     0.057853503810000     0.039002359420000     0.040227841750000
    -0.029112742240000    -0.083175214120000     0.081493073570000
    -0.030027500000000     0.081493073570000    -0.078132035440000
1 23
     1.335350069860000     0.688516522130000    -0.624366732010000
    -0.645362080120000    -1.429331340460000     1.405685765200000
     0.668877095810000     1.448530923960000    -1.341015178120000
1 24
     0.048815826860000     0.043643289710000    -0.035867368310000
    -0.037199988760000    -0.082818607530000    -0.066486410060000
     0.042513054610000    -0.071851603650000    -0.087099087710000
1 25
   -10.345507536769999    -3.812259330629999    -3.932045754290000
    -3.812259330629999   -10.574342670199998    -4.051830136080000
    -3.932045754290000    -4.051830136080000   -10.825095356320000
1 26
     0.066200067820000    -0.080607982980000    -0.083140862660000
    -0.080607982980000     0.152997799540000     0.013425415360000
    -0.083140862660000     0.013425415360000     0.153828720520000
1 27
     0.157754035430000    -0.077860226510000     0.015913614120000
    -0.077860226510000     0.061443831930000    -0.082700659510000
     0.015913614120000    -0.082700659510000     0.153828720520000
1 28
    -0.060802444530000    -0.122116557660000    -0.231301352060000
    -0.122116557660000    -0.068132637720000    -0.238347605210000
    -0.231301352060000    -0.238347605210000    -0.333971259950000
1 29
     0.157754035430000     0.018314012470000    -0.077330781630000
     0.018314012470000     0.158853282150000    -0.079686499060000
    -0.077330781630000    -0.079686499060000     0.056419150190000
1 30
    -0.060802444530000    -0.227413871800000    -0.129211815690000
    -0.227413871800000    -0.318980811290000    -0.246109473740000
    -0.129211815690000    -0.246109473740000    -0.083123086380000
1 31
    -0.305109907940000    -0.234746347080000    -0.242122422290000
    -0.234746347080000    -0.074673467990000    -0.136536844150000
    -0.242122422290000    -0.136536844150000    -0.083123086380000
1 32
     0.040014166060000    -0.029999514370000    -0.030942137650000
    -0.029999514370000     0.038213356830000    -0.031884760930000
    -0.030942137650000    -0.031884760930000     0.036240189750000
1 33
    -1.554404285660000     0.751970515020000    -1.657638470330000
    -0.704153643030000     1.399117309630000    -0.685012312880000
    -1.702694734080000     0.816189008060000    -1.654121289200000
1 34
    -1.428137567170000     0.605574801850000     1.427812909840000
    -0.728303800400000     1.334155575910000     0.712031657930000
     1.423784180220000    -0.581915173720000    -1.341015178120000
1 35
    -0.083344809440000     0.034764518290000     0.082357144910000
    -0.033350583370000     0.058023099130000    -0.027569208630000
     0.080249574740000     0.042654544190000    -0.078132035440000
1 36
    -0.082893315950000     0.039690229390000    -0.073094622040000
    -0.041153049080000     0.048890655390000     0.040338463060000
    -0.065380437180000    -0.037845820230000    -0.087099087710000
1 37
    -1.428137567170000    -0.728303800400000     1.423784180220000
     0.605574801850000     1.334155575910000    -0.581915173720000
     1.427812909840000     0.712031657930000    -1.341015178120000
1 38
    -1.554404285660000    -0.704153643030000    -1.702694734080000
     0.751970515020000     1.399117309630000     0.816189008060000
    -1.657638470330000    -0.685012312880000    -1.654121289200000
1 39
    -0.082893315950000    -0.041153049080000    -0.065380437180000
     0.039690229390000     0.048890655390000    -0.037845820230000
    -0.073094622040000     0.040338463060000    -0.087099087710000
1 40
    -0.083344809440000    -0.033350583370000     0.080249574740000
     0.034764518290000     0.058023099130000     0.042654544190000
     0.082357144910000    -0.027569208630000    -0.078132035440000
1 41
     0.132346086140000    -0.101702061510000    -0.042383936360000
    -0.101702061510000     0.078911789560000     0.108129267720000
    -0.042383936360000     0.108129267720000     0.175689701400000
1 42
    -0.125545938380000    -0.135733428360000     0.209294317420000
    -0.135733428360000    -0.133693480120000     0.215670116550000
     0.209294317420000     0.215670116550000    -0.359882950580000
1 43
    -8.331151494799999    -1.279984884920000     1.276331739270000
    -1.279984884920000    -8.407982738939999     1.315213388140000
     1.276331739270000     1.315213388140000    -8.284738828820000
1 44
     0.085059259580000    -0.103121281270000     0.109352107630000
    -0.103121281270000     0.126198616120000    -0.039121028100000
     0.109352107630000    -0.039121028100000     0.175689701400000
1 45
    -0.334498302630000    -0.211488607010000     0.185247694870000
    -0.211488607010000    -0.068341148680000     0.073475731070000
     0.185247694870000     0.073475731070000    -0.052461645800000
1 46
     0.029422986370000    -0.036275742310000     0.027956082940000
    -0.036275742310000     0.027245392070000     0.028807782950000
     0.027956082940000     0.028807782950000     0.039249786020000
1 47
     0.155447923430000    -0.005951570610000     0.076425752780000
    -0.005951570610000     0.155090596180000     0.078753965020000
     0.076425752780000     0.078753965020000     0.032798437700000
1 48
    -0.055897152130000    -0.203126909140000     0.067885211120000
    -0.203126909140000    -0.346942179070000     0.187368597250000
     0.067885211120000     0.187368597250000    -0.052461645800000
1 49
    -1.428137567170000     1.445627504930000    -0.683921113530000
     1.408400491420000    -1.342477997810000     0.629209807430000
     0.649444258690000    -0.664737024220000     1.335619596700000
1 50
    -1.554404285660000    -1.680101922970000    -0.756477402550000
    -1.680101922970000    -1.655255007490000    -0.779522427810000
     0.700343994050000     0.721679013240000     1.400252469240000
1 51
    -1.554404285660000    -1.680101922970000     0.700343994050000
    -1.680101922970000    -1.655255007490000     0.721679013240000
    -0.756477402550000    -0.779522427810000     1.400252469240000
1 52
    -1.428137567170000     1.408400491420000     0.649444258690000
     1.445627504930000    -1.342477997810000    -0.664737024220000
    -0.683921113530000     0.629209807430000     1.335619596700000
1 53
    -0.082893315950000    -0.064076402910000    -0.043155402890000
    -0.074287194230000    -0.087046119200000     0.036132210860000
     0.037410661700000    -0.042052072430000     0.048837566770000
1 54
    -0.083344809440000     0.081242644220000    -0.030852655700000
     0.081242644220000    -0.078468103220000    -0.031792636560000
     0.037294995770000     0.038431116260000     0.058359166910000
1 55
    -0.083344809440000     0.081242644220000     0.037294995770000
     0.081242644220000    -0.078468103220000     0.038431116260000
    -0.030852655700000    -0.031792636560000     0.058359166910000
1 56
    -0.082893315950000    -0.074287194230000     0.037410661700000
    -0.064076402910000    -0.087046119200000    -0.042052072430000
    -0.043155402890000     0.036132210860000     0.048837566770000
1 57
    -8.331151494799999     1.315307914710000    -1.239898772970000
     1.315307914710000    -8.366167163100000     1.316507213060000
    -1.239898772970000     1.316507213060000    -8.326554404660000
1 58
     0.085059259580000     0.112489140610000    -0.099689978790000
     0.112489140610000     0.178060913020000    -0.037516238390000
    -0.099689978790000    -0.037516238390000     0.123827284390000
1 59
     0.155447923430000     0.076573247860000    -0.003585043280000
     0.076573247860000     0.028046405660000     0.074822884830000
    -0.003585043280000     0.074822884830000     0.159842748330000
1 60
    -0.055897152130000     0.074135014860000    -0.200930217350000
     0.074135014860000    -0.064327552920000     0.196113325910000
    -0.200930217350000     0.196113325910000    -0.335076512170000
1 61
     0.132346086140000    -0.039218317200000    -0.102964297500000
    -0.039218317200000     0.168911894100000     0.110914138180000
    -0.102964297500000     0.110914138180000     0.085689596860000
1 62
    -0.125545938380000     0.213392110290000    -0.129195480730000
     0.213392110290000    -0.373000524010000     0.208265335050000
    -0.129195480730000     0.208265335050000    -0.120575906690000
1 63
    -0.334498302630000     0.191699883960000    -0.205658227390000
     0.191699883960000    -0.057019580080000     0.073826091940000
    -0.205658227390000     0.073826091940000    -0.063783334510000
1 64
     0.029422986370000     0.029064698240000    -0.035393774580000
     0.029064698240000     0.037457144270000     0.029123792360000
    -0.035393774580000     0.029123792360000     0.029038033820000
2 1
    -0.162057696840000     0.002062889250000     0.002127628540000
     0.002062889250000    -0.092522534650000     0.000178603570000
     0.002127628540000     0.000178603570000    -0.092511484530000
2 2
    42.792974328080000     2.965900011780000     3.059092640120000
     2.965900011780000    42.970996445570002     3.152284067360000
     3.059092640120000     3.152284067360000    43.166095442529993
2 3
    -0.114225690990000    -0.017763067900000    -0.002705958190000
    -0.017763067900000    -0.115291907460000    -0.002788353650000
    -0.002705958190000    -0.002788353650000     0.563849788950000
2 4
    -0.092708825260000     0.004144275440000     0.000114705050000
     0.004144275440000    -0.161871406230000     0.002132072610000
     0.000114705050000     0.002132072610000    -0.092511484530000
2 5
    -0.114225690990000    -0.002155253840000    -0.017838256760000
    -0.002155253840000     0.563372351700000     0.018211198310000
    -0.017838256760000     0.018211198310000    -0.114814710430000
2 6
    -0.092708825260000    -0.000013572430000     0.004145836870000
    -0.000013572430000    -0.092709666030000     0.004272072480000
     0.004145836870000     0.004272072480000    -0.161673224730000
2 7
    -0.052385496060000     0.003158772890000     0.003258103860000
     0.003158772890000    -0.052195842370000     0.003357314720000
     0.003258103860000     0.003357314720000    -0.051988052070000
2 8
     0.562891911700000     0.018167358160000     0.018738120880000
     0.018167358160000    -0.113745010770000    -0.017283829000000
     0.018738120880000    -0.017283829000000    -0.114814710430000
2 9
    -0.068766097860000     0.073748741100000     0.202053005630000
     0.073748741100000    -0.051458607190000    -0.194956306280000
     0.202053005630000    -0.194956306280000    -0.335076512170000
2 10
     0.171230977980000     0.115075469240000    -0.034508683990000
     0.115075469240000     0.091889314730000    -0.100770608460000
    -0.034508683990000    -0.100770608460000     0.123827284390000
2 11
     0.023568824970000     0.072615142920000     0.074896872590000
     0.072615142920000     0.159925504120000    -0.001338746060000
     0.074896872590000    -0.001338746060000     0.159842748330000
2 12
    -8.445020699310000     1.311890304770000     1.353111816550000
     1.311890304770000    -8.252298078699999    -1.199845571160000
     1.353111816550000    -1.199845571160000    -8.326554404660000
2 13
     0.035706901350000     0.029253270940000     0.030172472770000
     0.029253270940000     0.031173229290000    -0.034504119810000
     0.030172472770000    -0.034504119810000     0.029038033820000
2 14
    -0.385575560570000     0.205587722820000     0.212047478840000
     0.205587722820000    -0.112970901820000    -0.122889345400000
     0.212047478840000    -0.122889345400000    -0.120575906690000
2 15
    -0.068766097860000     0.199675428180000     0.079962511840000
     0.199675428180000    -0.322751664740000    -0.203350914290000
     0.079962511840000    -0.203350914290000    -0.063783334510000
2 16
     0.171230977980000    -0.038051208330000     0.113953161400000
    -0.038051208330000     0.130026882150000    -0.099590527710000
     0.113953161400000    -0.099590527710000     0.085689596860000
2 17
     0.048815826860000    -0.037199988760000     0.042513054610000
     0.043643289710000    -0.082818607530000    -0.071851603650000
    -0.035867368310000    -0.066486410060000    -0.087099087710000
2 18
     1.335350069860000    -0.645362080120000     0.668877095810000
     0.688516522130000    -1.429331340460000     1.448530923960000
    -0.624366732010000     1.405685765200000    -1.341015178120000
2 19
     0.057853503810000    -0.029112742240000    -0.030027500000000
     0.039002359420000    -0.083175214120000     0.081493073570000
     0.040227841750000     0.081493073570000    -0.078132035440000
2 20
     1.395025642370000    -0.615631131710000    -0.634975087430000
     0.840493026340000    -1.550311897740000    -1.677442447350000
     0.866902452810000    -1.677442447350000    -1.654121289200000
2 21
     0.057853503810000     0.039002359420000     0.040227841750000
    -0.029112742240000    -0.083175214120000     0.081493073570000
    -0.030027500000000     0.081493073570000    -0.078132035440000
2 22
     1.395025642370000     0.840493026340000     0.866902452810000
    -0.615631131710000    -1.550311897740000    -1.677442447350000
    -0.634975087430000    -1.677442447350000    -1.654121289200000
2 23
     0.048815826860000     0.043643289710000    -0.035867368310000
    -0.037199988760000    -0.082818607530000    -0.066486410060000
     0.042513054610000    -0.071851603650000    -0.087099087710000
2 24
     1.335350069860000     0.688516522130000    -0.624366732010000
    -0.645362080120000    -1.429331340460000     1.405685765200000
     0.668877095810000     1.448530923960000    -1.341015178120000
2 25
     0.066200067820000    -0.080607982980000    -0.083140862660000
    -0.080607982980000     0.152997799540000     0.013425415360000
    -0.083140862660000     0.013425415360000     0.153828720520000
2 26
   -10.345507536769999    -3.812259330629999    -3.932045754290000
    -3.812259330629999   -10.574342670199998    -4.051830136080000
    -3.932045754290000    -4.051830136080000   -10.825095356320000
2 27
    -0.060802444530000    -0.122116557660000    -0.231301352060000
    -0.122116557660000    -0.068132637720000    -0.238347605210000
    -0.231301352060000    -0.238347605210000    -0.333971259950000
2 28
     0.157754035430000    -0.077860226510000     0.015913614120000
    -0.077860226510000     0.061443831930000    -0.082700659510000
     0.015913614120000    -0.082700659510000     0.153828720520000
2 29
    -0.060802444530000    -0.227413871800000    -0.129211815690000
    -0.227413871800000    -0.318980811290000    -0.246109473740000
    -0.129211815690000    -0.246109473740000    -0.083123086380000
2 30
     0.157754035430000     0.018314012470000    -0.077330781630000
     0.018314012470000     0.158853282150000    -0.079686499060000
    -0.077330781630000    -0.079686499060000     0.056419150190000
2 31
     0.040014166060000    -0.029999514370000    -0.030942137650000
    -0.029999514370000     0.038213356830000    -0.031884760930000
    -0.030942137650000    -0.031884760930000     0.036240189750000
2 32
    -0.305109907940000    -0.234746347080000    -0.242122422290000
    -0.234746347080000    -0.074673467990000    -0.136536844150000
    -0.242122422290000    -0.136536844150000    -0.083123086380000
2 33
    -1.428137567170000     0.605574801850000     1.427812909840000
    -0.728303800400000     1.334155575910000     0.712031657930000
     1.423784180220000    -0.581915173720000    -1.341015178120000
2 34
    -1.554404285660000     0.751970515020000    -1.657638470330000
    -0.704153643030000     1.399117309630000    -0.685012312880000
    -1.702694734080000     0.816189008060000    -1.654121289200000
2 35
    -0.082893315950000     0.039690229390000    -0.073094622040000
    -0.041153049080000     0.048890655390000     0.040338463060000
    -0.065380437180000    -0.037845820230000    -0.087099087710000
2 36
    -0.083344809440000     0.034764518290000     0.082357144910000
    -0.033350583370000     0.058023099130000    -0.027569208630000
     0.080249574740000     0.042654544190000    -0.078132035440000
2 37
    -1.554404285660000    -0.704153643030000    -1.702694734080000
     0.751970515020000     1.399117309630000     0.816189008060000
    -1.657638470330000    -0.685012312880000    -1.654121289200000
2 38
    -1.428137567170000    -0.728303800400000     1.423784180220000
     0.605574801850000     1.334155575910000    -0.581915173720000
     1.427812909840000     0.712031657930000    -1.341015178120000
2 39
    -0.083344809440000    -0.033350583370000     0.080249574740000
     0.034764518290000     0.058023099130000     0.042654544190000
     0.082357144910000    -0.027569208630000    -0.078132035440000
2 40
    -0.082893315950000    -0.041153049080000    -0.065380437180000
     0.039690229390000     0.048890655390000    -0.037845820230000
    -0.073094622040000     0.040338463060000    -0.087099087710000
2 41
    -0.125545938380000    -0.135733428360000     0.209294317420000
    -0.135733428360000    -0.133693480120000     0.215670116550000
     0.209294317420000     0.215670116550000    -0.359882950580000
2 42
     0.132346086140000    -0.101702061510000    -0.042383936360000
    -0.101702061510000     0.078911789560000     0.108129267720000
    -0.042383936360000     0.108129267720000     0.175689701400000
2 43
     0.085059259580000    -0.103121281270000     0.109352107630000
    -0.103121281270000     0.126198616120000    -0.039121028100000
     0.109352107630000    -0.039121028100000     0.175689701400000
2 44
    -8.331151494799999    -1.279984884920000     1.276331739270000
    -1.279984884920000    -8.407982738939999     1.315213388140000
     1.276331739270000     1.315213388140000    -8.284738828820000
2 45
     0.029422986370000    -0.036275742310000     0.027956082940000
    -0.036275742310000     0.027245392070000     0.028807782950000
     0.027956082940000     0.028807782950000     0.039249786020000
2 46
    -0.334498302630000    -0.211488607010000     0.185247694870000
    -0.211488607010000    -0.068341148680000     0.073475731070000
     0.185247694870000     0.073475731070000    -0.052461645800000
2 47
    -0.055897152130000    -0.203126909140000     0.067885211120000
    -0.203126909140000    -0.346942179070000     0.187368597250000
     0.067885211120000     0.187368597250000    -0.052461645800000
2 48
     0.155447923430000    -0.005951570610000     0.076425752780000
    -0.005951570610000     0.155090596180000     0.078753965020000
     0.076425752780000     0.078753965020000     0.032798437700000
2 49
    -1.554404285660000    -1.680101922970000    -0.756477402550000
    -1.680101922970000    -1.655255007490000    -0.779522427810000
     0.700343994050000     0.721679013240000     1.400252469240000
2 50
    -1.428137567170000     1.445627504930000    -0.683921113530000
     1.408400491420000    -1.342477997810000     0.629209807430000
     0.649444258690000    -0.664737024220000     1.335619596700000
2 51
    -1.428137567170000     1.408400491420000     0.649444258690000
     1.445627504930000    -1.342477997810000    -0.664737024220000
    -0.683921113530000     0.629209807430000     1.335619596700000
2 52
    -1.554404285660000    -1.680101922970000     0.700343994050000
    -1.680101922970000    -1.655255007490000     0.721679013240000
    -0.756477402550000    -0.779522427810000     1.400252469240000
2 53
    -0.083344809440000     0.081242644220000    -0.030852655700000
     0.081242644220000    -0.078468103220000    -0.031792636560000
     0.037294995770000     0.038431116260000     0.058359166910000
2 54
    -0.082893315950000    -0.064076402910000    -0.043155402890000
    -0.074287194230000    -0.087046119200000     0.036132210860000
     0.037410661700000    -0.042052072430000     0.048837566770000
2 55
    -0.082893315950000    -0.074287194230000     0.037410661700000
    -0.064076402910000    -0.087046119200000    -0.042052072430000
    -0.043155402890000     0.036132210860000     0.048837566770000
2 56
    -0.083344809440000     0.081242644220000     0.037294995770000
     0.081242644220000    -0.078468103220000     0.038431116260000
    -0.030852655700000    -0.031792636560000     0.058359166910000
2 57
     0.085059259580000     0.112489140610000    -0.099689978790000
     0.112489140610000     0.178060913020000    -0.037516238390000
    -0.099689978790000    -0.037516238390000     0.123827284390000
2 58
    -8.331151494799999     1.315307914710000    -1.239898772970000
     1.315307914710000    -8.366167163100000     1.316507213060000
    -1.239898772970000     1.316507213060000    -8.326554404660000
2 59
    -0.055897152130000     0.074135014860000    -0.200930217350000
     0.074135014860000    -0.064327552920000     0.196113325910000
    -0.200930217350000     0.196113325910000    -0.335076512170000
2 60
     0.155447923430000     0.076573247860000    -0.003585043280000
     0.076573247860000     0.028046405660000     0.074822884830000
    -0.003585043280000     0.074822884830000     0.159842748330000
2 61
    -0.125545938380000     0.213392110290000    -0.129195480730000
     0.213392110290000    -0.373000524010000     0.208265335050000
    -0.129195480730000     0.208265335050000    -0.120575906690000
2 62
     0.132346086140000    -0.039218317200000    -0.102964297500000
    -0.039218317200000     0.168911894100000     0.110914138180000
    -0.102964297500000     0.110914138180000     0.085689596860000
2 63
     0.029422986370000     0.029064698240000    -0.035393774580000
     0.029064698240000     0.037457144270000     0.029123792360000
    -0.035393774580000     0.029123792360000     0.029038033820000
2 64
    -0.334498302630000     0.191699883960000    -0.205658227390000
     0.191699883960000    -0.057019580080000     0.073826091940000
    -0.205658227390000     0.073826091940000    -0.063783334510000
3 1
    -0.092708825260000     0.004144275440000     0.000114705050000
     0.004144275440000    -0.161871406230000     0.002132072610000
     0.000114705050000     0.002132072610000    -0.092511484530000
3 2
    -0.114225690990000    -0.017763067900000    -0.002705958190000
    -0.017763067900000    -0.115291907460000    -0.002788353650000
    -0.002705958190000    -0.002788353650000     0.563849788950000
3 3
    42.792974328080000     2.965900011780000     3.059092640120000
     2.965900011780000    42.970996445570002     3.152284067360000
     3.059092640120000     3.152284067360000    43.166095442529993
3 4
    -0.162057696840000     0.002062889250000     0.002127628540000
     0.002062889250000    -0.092522534650000     0.000178603570000
     0.002127628540000     0.000178603570000    -0.092511484530000
3 5
     0.562891911700000     0.018167358160000     0.018738120880000
     0.018167358160000    -0.113745010770000    -0.017283829000000
     0.018738120880000    -0.017283829000000    -0.114814710430000
3 6
    -0.052385496060000     0.003158772890000     0.003258103860000
     0.003158772890000    -0.052195842370000     0.003357314720000
     0.003258103860000     0.003357314720000    -0.051988052070000
3 7
    -0.092708825260000    -0.000013572430000     0.004145836870000
    -0.000013572430000    -0.092709666030000     0.004272072480000
     0.004145836870000     0.004272072480000    -0.161673224730000
3 8
    -0.114225690990000    -0.002155253840000    -0.017838256760000
    -0.002155253840000     0.563372351700000     0.018211198310000
    -0.017838256760000     0.018211198310000    -0.114814710430000
3 9
    -8.445020699310000     1.311890304770000     1.353111816550000
     1.311890304770000    -8.252298078699999    -1.199845571160000
     1.353111816550000    -1.199845571160000    -8.326554404660000
3 10
     0.023568824970000     0.072615142920000     0.074896872590000
     0.072615142920000     0.159925504120000    -0.001338746060000
     0.074896872590000    -0.001338746060000     0.159842748330000
3 11
     0.171230977980000     0.115075469240000    -0.034508683990000
     0.115075469240000     0.091889314730000    -0.100770608460000
    -0.034508683990000    -0.100770608460000     0.123827284390000
3 12
    -0.068766097860000     0.073748741100000     0.202053005630000
     0.073748741100000    -0.051458607190000    -0.194956306280000
     0.202053005630000    -0.194956306280000    -0.335076512170000
3 13
     0.171230977980000    -0.038051208330000     0.113953161400000
    -0.038051208330000     0.130026882150000    -0.099590527710000
     0.113953161400000    -0.099590527710000     0.085689596860000
3 14
    -0.068766097860000     0.199675428180000     0.079962511840000
     0.199675428180000    -0.322751664740000    -0.203350914290000
     0.079962511840000    -0.203350914290000    -0.063783334510000
3 15
    -0.385575560570000     0.205587722820000     0.212047478840000
     0.205587722820000    -0.112970901820000    -0.122889345400000
     0.212047478840000    -0.122889345400000    -0.120575906690000
3 16
     0.035706901350000     0.029253270940000     0.030172472770000
     0.029253270940000     0.031173229290000    -0.034504119810000
     0.030172472770000    -0.034504119810000     0.029038033820000
3 17
     1.395025642370000    -0.615631131710000    -0.634975087430000
     0.840493026340000    -1.550311897740000    -1.677442447350000
     0.866902452810000    -1.677442447350000    -1.654121289200000
3 18
     0.057853503810000    -0.029112742240000    -0.030027500000000
     0.039002359420000    -0.083175214120000     0.081493073570000