       N       E                     dE             d eps       ncg     rms          rms(c)
DAV:   1     0.503878651004E+03    0.50388E+03   -0.11349E+05 12288   0.106E+03
DAV:   2    -0.557646090770E+03   -0.10615E+04   -0.10111E+04 16128   0.230E+02
DAV:   3    -0.599121040354E+03   -0.41475E+02   -0.41223E+02 16384   0.427E+01
DAV:   4    -0.599576741615E+03   -0.45570E+00   -0.45481E+00 16416   0.492E+00
DAV:   5    -0.599585837693E+03   -0.90961E-02   -0.90921E-02 15488   0.646E-01    0.264E+01
DAV:   6    -0.584986630225E+03    0.14599E+02   -0.97402E+00 14432   0.630E+00    0.145E+01
DAV:   7    -0.580068508601E+03    0.49181E+01   -0.11277E+01 15264   0.698E+00    0.197E+00
DAV:   8    -0.580130727297E+03   -0.62219E-01   -0.29714E-01 15488   0.110E+00    0.219E-01
DAV:   9    -0.580133038566E+03   -0.23113E-02   -0.41277E-03 15840   0.154E-01    0.889E-02
DAV:  10    -0.580133517189E+03   -0.47862E-03   -0.36341E-04 15008   0.499E-02    0.108E-02
DAV:  11    -0.580133533191E+03   -0.16002E-04   -0.15269E-05 16032   0.990E-03    0.349E-03
DAV:  12    -0.580133533202E+03   -0.10419E-07   -0.42296E-07 15744   0.157E-03    0.664E-04
DAV:  13    -0.580133533259E+03   -0.57049E-07   -0.16221E-08 12960   0.325E-04    0.249E-04
DAV:  14    -0.580133533298E+03   -0.38877E-07   -0.36698E-09 10720   0.184E-04    0.159E-04
DAV:  15    -0.580133533299E+03   -0.16862E-08   -0.40200E-10  9472   0.488E-05
   1 F= -.58013353E+03 E0= -.58013353E+03  d E =-.899588E-11
 Linear response reoptimize wavefunctions
DAV:   1    -0.580133533297E+03    0.20382E-08   -0.59794E-11  9216   0.209E-05
DAV:   2    -0.580133533297E+03    0.33651E-09   -0.87527E-12  9216   0.915E-06
DAV:   3    -0.580133533298E+03   -0.50750E-09   -0.22714E-12  9216   0.443E-06
 Linear response DOF=           1
 Linear response progress:
  Degree of freedom:   1/  1
       N       E                     dE             d eps       ncg     rms          rms(c)
RMM:   1    -0.145088515772E+00   -0.14509E+00    0.38129E-03 73321   0.735E-01
RMM:   2    -0.123526982414E+00    0.21562E-01   -0.71956E-03 44381   0.191E-01    0.178E-01
RMM:   3    -0.123373462518E+00    0.15352E-03   -0.88744E-04 46564   0.501E-02    0.905E-02
RMM:   4    -0.123629725793E+00   -0.25626E-03   -0.24144E-04 46715   0.273E-02    0.276E-02
RMM:   5    -0.123712559097E+00   -0.82833E-04   -0.15958E-05 47301   0.767E-03    0.658E-03
RMM:   6    -0.123695629089E+00    0.16930E-04   -0.31332E-06 47982   0.198E-03    0.137E-03
RMM:   7    -0.123687357317E+00    0.82718E-05   -0.39915E-06 48731   0.611E-04    0.384E-04
RMM:   8    -0.123686659976E+00    0.69734E-06   -0.26066E-06 50175   0.245E-04    0.880E-05
RMM:   9    -0.123686464122E+00    0.19585E-06   -0.27462E-06 52396   0.139E-04    0.373E-05
RMM:  10    -0.123686513809E+00   -0.49687E-07   -0.25282E-06 54488   0.129E-04    0.118E-05
RMM:  11    -0.123686575692E+00   -0.61883E-07   -0.31296E-06 55208   0.125E-04    0.465E-06
RMM:  12    -0.123686559681E+00    0.16011E-07   -0.28481E-06 55624   0.125E-04    0.192E-06
 Linear response finished
