 vasp.5.4.4.18Apr17-6-g9f103f2a35 (build Mar 12 2022 03:36:41) complex          
  
 executed on IFC19.0.3.199_CrayMP date 2022.12.02  01:25:24
 running on   32 total cores
 distrk:  each k-point on   32 cores,    1 groups
 distr:  one band on NCORES_PER_BAND=   1 cores,   32 groups


--------------------------------------------------------------------------------------------------------


 INCAR:
 POTCAR:   PAW_PBE C 08Apr2002                    

 ----------------------------------------------------------------------------- 
|                                                                             |
|           W    W    AA    RRRRR   N    N  II  N    N   GGGG   !!!           |
|           W    W   A  A   R    R  NN   N  II  NN   N  G    G  !!!           |
|           W    W  A    A  R    R  N N  N  II  N N  N  G       !!!           |
|           W WW W  AAAAAA  RRRRR   N  N N  II  N  N N  G  GGG   !            |
|           WW  WW  A    A  R   R   N   NN  II  N   NN  G    G                |
|           W    W  A    A  R    R  N    N  II  N    N   GGGG   !!!           |
|                                                                             |
|      For optimal performance we recommend to set                            |
|        NCORE= 4 - approx SQRT( number of cores)                             |
|      NCORE specifies how many cores store one orbital (NPAR=cpu/NCORE).     |
|      This setting can  greatly improve the performance of VASP for DFT.     |
|      The default,   NCORE=1            might be grossly inefficient         |
|      on modern multi-core architectures or massively parallel machines.     |
|      Do your own testing !!!!                                               |
|      Unfortunately you need to use the default for GW and RPA calculations. |
|      (for HF NCORE is supported but not extensively tested yet)             |
|                                                                             |
 ----------------------------------------------------------------------------- 

 POTCAR:   PAW_PBE C 08Apr2002                    
   VRHFIN =C: s2p2                                                              
   LEXCH  = PE                                                                  
   EATOM  =   147.1560 eV,   10.8157 Ry                                         
                                                                                
   TITEL  = PAW_PBE C 08Apr2002                                                 
   LULTRA =        F    use ultrasoft PP ?                                      
   IUNSCR =        0    unscreen: 0-lin 1-nonlin 2-no                           
   RPACOR =     .000    partial core radius                                     
   POMASS =   12.011; ZVAL   =    4.000    mass and valenz                      
   RCORE  =    1.500    outmost cutoff radius                                   
   RWIGS  =    1.630; RWIGS  =     .863    wigner-seitz radius (au A)           
   ENMAX  =  400.000; ENMIN  =  300.000 eV                                      
   ICORE  =        2    local potential                                         
   LCOR   =        T    correct aug charges                                     
   LPAW   =        T    paw PP                                                  
   EAUG   =  644.873                                                            
   DEXC   =     .000                                                            
   RMAX   =    2.266    core radius for proj-oper                               
   RAUG   =    1.300    factor for augmentation sphere                          
   RDEP   =    1.501    radius for radial grids                                 
   RDEPT  =    1.300    core radius for aug-charge                              
   QCUT   =   -5.516; QGAM   =   11.032    optimization parameters              
                                                                                
   Description                                                                  
     l     E      TYP  RCUT    TYP  RCUT                                        
     0   .000     23  1.200                                                     
     0   .000     23  1.200                                                     
     1   .000     23  1.500                                                     
     1  2.500     23  1.500                                                     
     2   .000      7  1.500                                                     
  local pseudopotential read in
  atomic valenz-charges read in
  non local Contribution for L=           0  read in
    real space projection operators read in
  non local Contribution for L=           0  read in
    real space projection operators read in
  non local Contribution for L=           1  read in
    real space projection operators read in
  non local Contribution for L=           1  read in
    real space projection operators read in
    PAW grid and wavefunctions read in
 
   number of l-projection  operators is LMAX  =           4
   number of lm-projection operators is LMMAX =           8
 

 ----------------------------------------------------------------------------- 
|                                                                             |
|  ADVICE TO THIS USER RUNNING 'VASP/VAMP'   (HEAR YOUR MASTER'S VOICE ...):  |
|                                                                             |
|      You have a (more or less) 'large supercell' and for larger cells       |
|      it might be more efficient to use real space projection operators      |
|      So try LREAL= Auto  in the INCAR   file.                               |
|      Mind: If you want to do a very accurate calculations keep the          |
|      reciprocal projection scheme          (i.e. LREAL=.FALSE.)             |
|                                                                             |
 ----------------------------------------------------------------------------- 

 PAW_PBE C 08Apr2002                    :
 energy of atom  1       EATOM= -147.1560
 kinetic energy error for atom=    0.0288 (will be added to EATOM!!)
 
 
 POSCAR: generated by phonopy                    
  positions in direct lattice
  No initial velocities read in
 exchange correlation table for  LEXCH =        8
   RHO(1)=    0.500       N(1)  =     2000
   RHO(2)=  100.500       N(2)  =     4000
 


--------------------------------------------------------------------------------------------------------


 ion  position               nearest neighbor table
   1  0.125  0.375  0.125-  25 1.51  43 1.57  57 1.57  11 1.57
   2  0.625  0.375  0.125-  26 1.51  44 1.57  58 1.57  12 1.57
   3  0.125  0.875  0.125-  27 1.51  41 1.57  59 1.57   9 1.57
   4  0.625  0.875  0.125-  28 1.51  42 1.57  60 1.57  10 1.57
   5  0.125  0.375  0.625-  29 1.51  47 1.57  61 1.57  15 1.57
   6  0.625  0.375  0.625-  30 1.51  48 1.57  62 1.57  16 1.57
   7  0.125  0.875  0.625-  31 1.51  45 1.57  63 1.57  13 1.57
   8  0.625  0.875  0.625-  32 1.51  46 1.57  64 1.57  14 1.57
   9  0.000  0.000  0.250-  17 1.51  36 1.57  50 1.57   3 1.57
  10  0.500  0.000  0.250-  18 1.51  35 1.57  49 1.57   4 1.57
  11  0.000  0.500  0.250-  19 1.51  34 1.57  52 1.57   1 1.57
  12  0.500  0.500  0.250-  20 1.51  33 1.57  51 1.57   2 1.57
  13  0.000  0.000  0.750-  21 1.51  40 1.57  54 1.57   7 1.57
  14  0.500  0.000  0.750-  22 1.51  39 1.57  53 1.57   8 1.57
  15  0.000  0.500  0.750-  23 1.51  38 1.57  56 1.57   5 1.57
  16  0.500  0.500  0.750-  24 1.51  37 1.57  55 1.57   6 1.57
  17  0.125  0.125  0.375-   9 1.51  45 1.57  57 1.57  29 1.57
  18  0.625  0.125  0.375-  10 1.51  46 1.57  58 1.57  30 1.57
  19  0.125  0.625  0.375-  11 1.51  47 1.57  59 1.57  31 1.57
  20  0.625  0.625  0.375-  12 1.51  48 1.57  60 1.57  32 1.57
  21  0.125  0.125  0.875-  13 1.51  41 1.57  61 1.57  25 1.57
  22  0.625  0.125  0.875-  14 1.51  42 1.57  62 1.57  26 1.57
  23  0.125  0.625  0.875-  15 1.51  43 1.57  63 1.57  27 1.57
  24  0.625  0.625  0.875-  16 1.51  44 1.57  64 1.57  28 1.57
  25  0.000  0.250  0.000-   1 1.51  38 1.57  50 1.57  21 1.57
  26  0.500  0.250  0.000-   2 1.51  37 1.57  49 1.57  22 1.57
  27  0.000  0.750  0.000-   3 1.51  40 1.57  52 1.57  23 1.57
  28  0.500  0.750  0.000-   4 1.51  39 1.57  51 1.57  24 1.57
  29  0.000  0.250  0.500-   5 1.51  34 1.57  54 1.57  17 1.57
  30  0.500  0.250  0.500-   6 1.51  33 1.57  53 1.57  18 1.57
  31  0.000  0.750  0.500-   7 1.51  36 1.57  56 1.57  19 1.57
  32  0.500  0.750  0.500-   8 1.51  35 1.57  55 1.57  20 1.57
  33  0.375  0.375  0.375-  57 1.51  30 1.57  12 1.57  47 1.57
  34  0.875  0.375  0.375-  58 1.51  29 1.57  11 1.57  48 1.57
  35  0.375  0.875  0.375-  59 1.51  32 1.57  10 1.57  45 1.57
  36  0.875  0.875  0.375-  60 1.51  31 1.57   9 1.57  46 1.57
  37  0.375  0.375  0.875-  61 1.51  26 1.57  16 1.57  43 1.57
  38  0.875  0.375  0.875-  62 1.51  25 1.57  15 1.57  44 1.57
  39  0.375  0.875  0.875-  63 1.51  28 1.57  14 1.57  41 1.57
  40  0.875  0.875  0.875-  64 1.51  27 1.57  13 1.57  42 1.57
  41  0.250  0.000  0.000-  49 1.51  21 1.57   3 1.57  39 1.57
  42  0.750  0.000  0.000-  50 1.51  22 1.57   4 1.57  40 1.57
  43  0.250  0.500  0.000-  51 1.51  23 1.57   1 1.57  37 1.57
  44  0.750  0.500  0.000-  52 1.51  24 1.57   2 1.57  38 1.57
  45  0.250  0.000  0.500-  53 1.51  17 1.57   7 1.57  35 1.57
  46  0.750  0.000  0.500-  54 1.51  18 1.57   8 1.57  36 1.57
  47  0.250  0.500  0.500-  55 1.51  19 1.57   5 1.57  33 1.57
  48  0.750  0.500  0.500-  56 1.51  20 1.57   6 1.57  34 1.57
  49  0.375  0.125  0.125-  41 1.51  26 1.57  10 1.57  57 1.57
  50  0.875  0.125  0.125-  42 1.51  25 1.57   9 1.57  58 1.57
  51  0.375  0.625  0.125-  43 1.51  28 1.57  12 1.57  59 1.57
  52  0.875  0.625  0.125-  44 1.51  27 1.57  11 1.57  60 1.57
  53  0.375  0.125  0.625-  45 1.51  30 1.57  14 1.57  61 1.57
  54  0.875  0.125  0.625-  46 1.51  29 1.57  13 1.57  62 1.57
  55  0.375  0.625  0.625-  47 1.51  32 1.57  16 1.57  63 1.57
  56  0.875  0.625  0.625-  48 1.51  31 1.57  15 1.57  64 1.57
  57  0.250  0.250  0.250-  33 1.51  17 1.57   1 1.57  49 1.57
  58  0.750  0.250  0.250-  34 1.51  18 1.57   2 1.57  50 1.57
  59  0.250  0.750  0.250-  35 1.51  19 1.57   3 1.57  51 1.57
  60  0.750  0.750  0.250-  36 1.51  20 1.57   4 1.57  52 1.57
  61  0.250  0.250  0.750-  37 1.51  21 1.57   5 1.57  53 1.57
  62  0.750  0.250  0.750-  38 1.51  22 1.57   6 1.57  54 1.57
  63  0.250  0.750  0.750-  39 1.51  23 1.57   7 1.57  55 1.57
  64  0.750  0.750  0.750-  40 1.51  24 1.57   8 1.57  56 1.57
 
  LATTYP: Found a trigonal (rhomboedric) cell.
 ALAT       =     7.1799977590
 COS(alpha) =    -0.0299999201
  
  Lattice vectors:
  
 A1 = (   7.1799987179,   0.0000000000,   0.0000000000)
 A2 = (  -0.2153993588,   7.1767660499,   0.0000000000)
 A3 = (  -0.2153993588,  -0.2219611324,   7.1733344794)


Analysis of symmetry for initial positions (statically):
=====================================================================
 Subroutine PRICEL returns following result:
 
  LATTYP: Found a trigonal (rhomboedric) cell.
 ALAT       =     2.5001453274
 COS(alpha) =     0.4690723421
  
  Lattice vectors:
  
 A1 = (  -0.1076996794,   1.7387012294,   1.7933336199)
 A2 = (   1.7411498398,  -0.0554902831,   1.7933336199)
 A3 = (   1.7411498398,   1.7941915125,  -0.0000000000)
 
  32 primitive cells build up your supercell.
 

 Routine SETGRP: Setting up the symmetry group for a 
 trigonal (rhombohedral) supercell.


 Subroutine GETGRP returns: Found 12 space group operations
 (whereof  6 operations were pure point group operations)
 out of a pool of 12 trial point group operations.


The static configuration has the point symmetry C_3v.
 The point group associated with its full space group is D_3d.


Analysis of symmetry for dynamics (positions and initial velocities):
=====================================================================
 Subroutine PRICEL returns following result:
 
  LATTYP: Found a trigonal (rhomboedric) cell.
 ALAT       =     2.5001453274
 COS(alpha) =     0.4690723421
  
  Lattice vectors:
  
 A1 = (  -0.1076996794,   1.7387012294,   1.7933336199)
 A2 = (   1.7411498398,  -0.0554902831,   1.7933336199)
 A3 = (   1.7411498398,   1.7941915125,  -0.0000000000)
 
  32 primitive cells build up your supercell.
 

 Routine SETGRP: Setting up the symmetry group for a 
 trigonal (rhombohedral) supercell.


 Subroutine GETGRP returns: Found 12 space group operations
 (whereof  6 operations were pure point group operations)
 out of a pool of 12 trial point group operations.


The dynamic configuration has the point symmetry C_3v.
 The point group associated with its full space group is D_3d.


 Subroutine INISYM returns: Found 12 space group operations
 (whereof  6 operations are pure point group operations),
 and found    32 'primitive' translations

 
 
 KPOINTS: kpt_density=3000                        

Automatic generation of k-mesh.
Space group operators:
 irot       det(A)        alpha          n_x          n_y          n_z        tau_x        tau_y        tau_z
    1     1.000000     0.000000     1.000000     0.000000     0.000000     0.000000     0.000000     0.000000
    2    -1.000000   180.000000     0.000000    -0.717958     0.696086     0.000000     0.000000     0.000000
    3     1.000000   120.000000    -0.559762    -0.576814    -0.594938     0.000000     0.000000     0.000000
    4    -1.000000   180.000000    -0.717635     0.696419    -0.000000     0.000000     0.000000     0.000000
    5     1.000000   120.000000     0.559762     0.576814     0.594939     0.000000     0.000000     0.000000
    6    -1.000000   180.000000     0.717635     0.021539    -0.696086     0.000000     0.000000     0.000000
    7    -1.000000     0.000000     1.000000     0.000000     0.000000     0.125000     0.125000     0.125000
    8     1.000000   180.000000     0.000000    -0.717958     0.696086     0.125000     0.125000     0.125000
    9    -1.000000   120.000000    -0.559762    -0.576814    -0.594938     0.125000     0.125000     0.125000
   10     1.000000   180.000000    -0.717635     0.696419    -0.000000     0.125000     0.125000     0.125000
   11    -1.000000   120.000000     0.559762     0.576814     0.594939     0.125000     0.125000     0.125000
   12     1.000000   180.000000     0.717635     0.021539    -0.696086     0.125000     0.125000     0.125000
 
 Subroutine IBZKPT returns following result:
 ===========================================
 
 Found     32 irreducible k-points:
 
 Following reciprocal coordinates:
            Coordinates               Weight
  0.000000  0.000000  0.000000      1.000000
  0.166667 -0.000000  0.000000      6.000000
  0.333333 -0.000000 -0.000000      6.000000
  0.500000  0.000000 -0.000000      3.000000
  0.166667  0.166667  0.000000      6.000000
  0.333333  0.166667 -0.000000     12.000000
  0.500000  0.166667 -0.000000     12.000000
 -0.333333  0.166667  0.000000     12.000000
 -0.166667  0.166667 -0.000000      6.000000
  0.333333  0.333333  0.000000      6.000000
  0.500000  0.333333 -0.000000     12.000000
 -0.333333  0.333333 -0.000000      6.000000
  0.500000  0.500000  0.000000      3.000000
  0.166667  0.166667  0.166667      2.000000
  0.333333  0.166667  0.166667      6.000000
  0.500000  0.166667  0.166667      6.000000
 -0.333333  0.166667  0.166667      6.000000
 -0.166667  0.166667  0.166667      6.000000
  0.333333  0.333333  0.166667      6.000000
  0.500000  0.333333  0.166667     12.000000
 -0.333333  0.333333  0.166667     12.000000
 -0.166667  0.333333  0.166667     12.000000
  0.500000  0.500000  0.166667      6.000000
 -0.333333  0.500000  0.166667     12.000000
 -0.166667  0.500000  0.166667      6.000000
 -0.333333 -0.333333  0.166667      6.000000
  0.333333  0.333333  0.333333      2.000000
  0.500000  0.333333  0.333333      6.000000
 -0.333333  0.333333  0.333333      6.000000
  0.500000  0.500000  0.333333      6.000000
 -0.333333  0.500000  0.333333      6.000000
  0.500000  0.500000  0.500000      1.000000
 
 Following cartesian coordinates:
            Coordinates               Weight
  0.000000  0.000000  0.000000      1.000000
  0.023213  0.000697  0.000719      6.000000
  0.046425  0.001393  0.001437      6.000000
  0.069638  0.002090  0.002156      3.000000
  0.023213  0.023920  0.001437      6.000000
  0.046425  0.024616  0.002156     12.000000
  0.069638  0.025313  0.002874     12.000000
 -0.046425  0.021830 -0.000719     12.000000
 -0.023213  0.022526 -0.000000      6.000000
  0.046425  0.047840  0.002874      6.000000
  0.069638  0.048536  0.003593     12.000000
 -0.046425  0.045053 -0.000000      6.000000
  0.069638  0.071759  0.004311      3.000000
  0.023213  0.023920  0.024671      2.000000
  0.046425  0.024616  0.025390      6.000000
  0.069638  0.025313  0.026109      6.000000
 -0.046425  0.021830  0.022516      6.000000
 -0.023213  0.022526  0.023234      6.000000
  0.046425  0.047840  0.026109      6.000000
  0.069638  0.048536  0.026827     12.000000
 -0.046425  0.045053  0.023234     12.000000
 -0.023213  0.045749  0.023953     12.000000
  0.069638  0.071759  0.027546      6.000000
 -0.046425  0.068276  0.023953     12.000000
 -0.023213  0.068973  0.024671      6.000000
 -0.046425 -0.047840  0.020360      6.000000
  0.046425  0.047840  0.049343      2.000000
  0.069638  0.048536  0.050061      6.000000
 -0.046425  0.045053  0.046468      6.000000
  0.069638  0.071759  0.050780      6.000000
 -0.046425  0.068276  0.047187      6.000000
  0.069638  0.071759  0.074014      1.000000
 
 
 Subroutine IBZKPT_HF returns following result:
 ==============================================
 
 Found    216 k-points in 1st BZ
 the following    216 k-points will be used (e.g. in the exchange kernel)
 Following reciprocal coordinates:   # in IRBZ
  0.000000  0.000000  0.000000    0.00462963   1 t-inv F
  0.166667 -0.000000  0.000000    0.00462963   2 t-inv F
  0.333333 -0.000000 -0.000000    0.00462963   3 t-inv F
  0.500000  0.000000 -0.000000    0.00462963   4 t-inv F
  0.166667  0.166667  0.000000    0.00462963   5 t-inv F
  0.333333  0.166667 -0.000000    0.00462963   6 t-inv F
  0.500000  0.166667 -0.000000    0.00462963   7 t-inv F
 -0.333333  0.166667  0.000000    0.00462963   8 t-inv F
 -0.166667  0.166667 -0.000000    0.00462963   9 t-inv F
  0.333333  0.333333  0.000000    0.00462963  10 t-inv F
  0.500000  0.333333 -0.000000    0.00462963  11 t-inv F
 -0.333333  0.333333 -0.000000    0.00462963  12 t-inv F
  0.500000  0.500000  0.000000    0.00462963  13 t-inv F
  0.166667  0.166667  0.166667    0.00462963  14 t-inv F
  0.333333  0.166667  0.166667    0.00462963  15 t-inv F
  0.500000  0.166667  0.166667    0.00462963  16 t-inv F
 -0.333333  0.166667  0.166667    0.00462963  17 t-inv F
 -0.166667  0.166667  0.166667    0.00462963  18 t-inv F
  0.333333  0.333333  0.166667    0.00462963  19 t-inv F
  0.500000  0.333333  0.166667    0.00462963  20 t-inv F
 -0.333333  0.333333  0.166667    0.00462963  21 t-inv F
 -0.166667  0.333333  0.166667    0.00462963  22 t-inv F
  0.500000  0.500000  0.166667    0.00462963  23 t-inv F
 -0.333333  0.500000  0.166667    0.00462963  24 t-inv F
 -0.166667  0.500000  0.166667    0.00462963  25 t-inv F
 -0.333333 -0.333333  0.166667    0.00462963  26 t-inv F
  0.333333  0.333333  0.333333    0.00462963  27 t-inv F
  0.500000  0.333333  0.333333    0.00462963  28 t-inv F
 -0.333333  0.333333  0.333333    0.00462963  29 t-inv F
  0.500000  0.500000  0.333333    0.00462963  30 t-inv F
 -0.333333  0.500000  0.333333    0.00462963  31 t-inv F
  0.500000  0.500000  0.500000    0.00462963  32 t-inv F
  0.000000  0.166667 -0.000000    0.00462963   2 t-inv F
 -0.000000  0.000000  0.166667    0.00462963   2 t-inv F
 -0.166667  0.000000 -0.000000    0.00462963   2 t-inv F
 -0.000000 -0.166667  0.000000    0.00462963   2 t-inv F
  0.000000 -0.000000 -0.166667    0.00462963   2 t-inv F
 -0.000000  0.333333 -0.000000    0.00462963   3 t-inv F
 -0.000000 -0.000000  0.333333    0.00462963   3 t-inv F
 -0.333333  0.000000  0.000000    0.00462963   3 t-inv F
  0.000000 -0.333333  0.000000    0.00462963   3 t-inv F
  0.000000  0.000000 -0.333333    0.00462963   3 t-inv F
 -0.000000  0.500000  0.000000    0.00462963   4 t-inv F
  0.000000 -0.000000  0.500000    0.00462963   4 t-inv F
  0.166667  0.000000  0.166667    0.00462963   5 t-inv F
  0.000000  0.166667  0.166667    0.00462963   5 t-inv F
 -0.166667 -0.166667 -0.000000    0.00462963   5 t-inv F
 -0.166667 -0.000000 -0.166667    0.00462963   5 t-inv F
 -0.000000 -0.166667 -0.166667    0.00462963   5 t-inv F
  0.333333 -0.000000  0.166667    0.00462963   6 t-inv F
 -0.000000  0.333333  0.166667    0.00462963   6 t-inv F
  0.166667  0.333333 -0.000000    0.00462963   6 t-inv F
  0.166667 -0.000000  0.333333    0.00462963   6 t-inv F
 -0.000000  0.166667  0.333333    0.00462963   6 t-inv F
 -0.333333 -0.166667  0.000000    0.00462963   6 t-inv F
 -0.333333  0.000000 -0.166667    0.00462963   6 t-inv F
  0.000000 -0.333333 -0.166667    0.00462963   6 t-inv F
 -0.166667 -0.333333  0.000000    0.00462963   6 t-inv F
 -0.166667  0.000000 -0.333333    0.00462963   6 t-inv F
  0.000000 -0.166667 -0.333333    0.00462963   6 t-inv F
  0.500000 -0.000000  0.166667    0.00462963   7 t-inv F
 -0.000000  0.500000  0.166667    0.00462963   7 t-inv F
  0.166667  0.500000 -0.000000    0.00462963   7 t-inv F
  0.166667 -0.000000  0.500000    0.00462963   7 t-inv F
 -0.000000  0.166667  0.500000    0.00462963   7 t-inv F
 -0.500000 -0.166667  0.000000    0.00462963   7 t-inv F
 -0.500000  0.000000 -0.166667    0.00462963   7 t-inv F
  0.000000 -0.500000 -0.166667    0.00462963   7 t-inv F
 -0.166667 -0.500000  0.000000    0.00462963   7 t-inv F
 -0.166667  0.000000 -0.500000    0.00462963   7 t-inv F
  0.000000 -0.166667 -0.500000    0.00462963   7 t-inv F
 -0.333333  0.000000  0.166667    0.00462963   8 t-inv F
  0.000000 -0.333333  0.166667    0.00462963   8 t-inv F
  0.166667 -0.333333  0.000000    0.00462963   8 t-inv F
  0.166667  0.000000 -0.333333    0.00462963   8 t-inv F
  0.000000  0.166667 -0.333333    0.00462963   8 t-inv F
  0.333333 -0.166667 -0.000000    0.00462963   8 t-inv F
  0.333333 -0.000000 -0.166667    0.00462963   8 t-inv F
 -0.000000  0.333333 -0.166667    0.00462963   8 t-inv F
 -0.166667  0.333333 -0.000000    0.00462963   8 t-inv F
 -0.166667 -0.000000  0.333333    0.00462963   8 t-inv F
 -0.000000 -0.166667  0.333333    0.00462963   8 t-inv F
 -0.166667 -0.000000  0.166667    0.00462963   9 t-inv F
 -0.000000 -0.166667  0.166667    0.00462963   9 t-inv F
  0.166667 -0.166667 -0.000000    0.00462963   9 t-inv F
  0.166667 -0.000000 -0.166667    0.00462963   9 t-inv F
 -0.000000  0.166667 -0.166667    0.00462963   9 t-inv F
  0.333333  0.000000  0.333333    0.00462963  10 t-inv F
  0.000000  0.333333  0.333333    0.00462963  10 t-inv F
 -0.333333 -0.333333 -0.000000    0.00462963  10 t-inv F
 -0.333333 -0.000000 -0.333333    0.00462963  10 t-inv F
 -0.000000 -0.333333 -0.333333    0.00462963  10 t-inv F
  0.500000 -0.000000  0.333333    0.00462963  11 t-inv F
 -0.000000  0.500000  0.333333    0.00462963  11 t-inv F
  0.333333  0.500000 -0.000000    0.00462963  11 t-inv F
  0.333333 -0.000000  0.500000    0.00462963  11 t-inv F
 -0.000000  0.333333  0.500000    0.00462963  11 t-inv F
 -0.500000 -0.333333  0.000000    0.00462963  11 t-inv F
 -0.500000  0.000000 -0.333333    0.00462963  11 t-inv F
  0.000000 -0.500000 -0.333333    0.00462963  11 t-inv F
 -0.333333 -0.500000  0.000000    0.00462963  11 t-inv F
 -0.333333  0.000000 -0.500000    0.00462963  11 t-inv F
  0.000000 -0.333333 -0.500000    0.00462963  11 t-inv F
 -0.333333 -0.000000  0.333333    0.00462963  12 t-inv F
 -0.000000 -0.333333  0.333333    0.00462963  12 t-inv F
  0.333333 -0.333333 -0.000000    0.00462963  12 t-inv F
  0.333333 -0.000000 -0.333333    0.00462963  12 t-inv F
 -0.000000  0.333333 -0.333333    0.00462963  12 t-inv F
  0.500000  0.000000  0.500000    0.00462963  13 t-inv F
  0.000000  0.500000  0.500000    0.00462963  13 t-inv F
 -0.166667 -0.166667 -0.166667    0.00462963  14 t-inv F
  0.166667  0.333333  0.166667    0.00462963  15 t-inv F
  0.166667  0.166667  0.333333    0.00462963  15 t-inv F
 -0.333333 -0.166667 -0.166667    0.00462963  15 t-inv F
 -0.166667 -0.333333 -0.166667    0.00462963  15 t-inv F
 -0.166667 -0.166667 -0.333333    0.00462963  15 t-inv F
  0.166667  0.500000  0.166667    0.00462963  16 t-inv F
  0.166667  0.166667  0.500000    0.00462963  16 t-inv F
 -0.500000 -0.166667 -0.166667    0.00462963  16 t-inv F
 -0.166667 -0.500000 -0.166667    0.00462963  16 t-inv F
 -0.166667 -0.166667 -0.500000    0.00462963  16 t-inv F
  0.166667 -0.333333  0.166667    0.00462963  17 t-inv F
  0.166667  0.166667 -0.333333    0.00462963  17 t-inv F
  0.333333 -0.166667 -0.166667    0.00462963  17 t-inv F
 -0.166667  0.333333 -0.166667    0.00462963  17 t-inv F
 -0.166667 -0.166667  0.333333    0.00462963  17 t-inv F
  0.166667 -0.166667  0.166667    0.00462963  18 t-inv F
  0.166667  0.166667 -0.166667    0.00462963  18 t-inv F
  0.166667 -0.166667 -0.166667    0.00462963  18 t-inv F
 -0.166667  0.166667 -0.166667    0.00462963  18 t-inv F
 -0.166667 -0.166667  0.166667    0.00462963  18 t-inv F
  0.333333  0.166667  0.333333    0.00462963  19 t-inv F
  0.166667  0.333333  0.333333    0.00462963  19 t-inv F
 -0.333333 -0.333333 -0.166667    0.00462963  19 t-inv F
 -0.333333 -0.166667 -0.333333    0.00462963  19 t-inv F
 -0.166667 -0.333333 -0.333333    0.00462963  19 t-inv F
  0.500000  0.166667  0.333333    0.00462963  20 t-inv F
  0.166667  0.500000  0.333333    0.00462963  20 t-inv F
  0.333333  0.500000  0.166667    0.00462963  20 t-inv F
  0.333333  0.166667  0.500000    0.00462963  20 t-inv F
  0.166667  0.333333  0.500000    0.00462963  20 t-inv F
 -0.500000 -0.333333 -0.166667    0.00462963  20 t-inv F
 -0.500000 -0.166667 -0.333333    0.00462963  20 t-inv F
 -0.166667 -0.500000 -0.333333    0.00462963  20 t-inv F
 -0.333333 -0.500000 -0.166667    0.00462963  20 t-inv F
 -0.333333 -0.166667 -0.500000    0.00462963  20 t-inv F
 -0.166667 -0.333333 -0.500000    0.00462963  20 t-inv F
 -0.333333  0.166667  0.333333    0.00462963  21 t-inv F
  0.166667 -0.333333  0.333333    0.00462963  21 t-inv F
  0.333333 -0.333333  0.166667    0.00462963  21 t-inv F
  0.333333  0.166667 -0.333333    0.00462963  21 t-inv F
  0.166667  0.333333 -0.333333    0.00462963  21 t-inv F
  0.333333 -0.333333 -0.166667    0.00462963  21 t-inv F
  0.333333 -0.166667 -0.333333    0.00462963  21 t-inv F
 -0.166667  0.333333 -0.333333    0.00462963  21 t-inv F
 -0.333333  0.333333 -0.166667    0.00462963  21 t-inv F
 -0.333333 -0.166667  0.333333    0.00462963  21 t-inv F
 -0.166667 -0.333333  0.333333    0.00462963  21 t-inv F
 -0.166667  0.166667  0.333333    0.00462963  22 t-inv F
  0.166667 -0.166667  0.333333    0.00462963  22 t-inv F
  0.333333 -0.166667  0.166667    0.00462963  22 t-inv F
  0.333333  0.166667 -0.166667    0.00462963  22 t-inv F
  0.166667  0.333333 -0.166667    0.00462963  22 t-inv F
  0.166667 -0.333333 -0.166667    0.00462963  22 t-inv F
  0.166667 -0.166667 -0.333333    0.00462963  22 t-inv F
 -0.166667  0.166667 -0.333333    0.00462963  22 t-inv F
 -0.333333  0.166667 -0.166667    0.00462963  22 t-inv F
 -0.333333 -0.166667  0.166667    0.00462963  22 t-inv F
 -0.166667 -0.333333  0.166667    0.00462963  22 t-inv F
  0.500000  0.166667  0.500000    0.00462963  23 t-inv F
  0.166667  0.500000  0.500000    0.00462963  23 t-inv F
 -0.500000 -0.500000 -0.166667    0.00462963  23 t-inv F
 -0.500000 -0.166667 -0.500000    0.00462963  23 t-inv F
 -0.166667 -0.500000 -0.500000    0.00462963  23 t-inv F
 -0.333333  0.166667  0.500000    0.00462963  24 t-inv F
  0.166667 -0.333333  0.500000    0.00462963  24 t-inv F
  0.500000 -0.333333  0.166667    0.00462963  24 t-inv F
  0.500000  0.166667 -0.333333    0.00462963  24 t-inv F
  0.166667  0.500000 -0.333333    0.00462963  24 t-inv F
  0.333333 -0.500000 -0.166667    0.00462963  24 t-inv F
  0.333333 -0.166667 -0.500000    0.00462963  24 t-inv F
 -0.166667  0.333333 -0.500000    0.00462963  24 t-inv F
 -0.500000  0.333333 -0.166667    0.00462963  24 t-inv F
 -0.500000 -0.166667  0.333333    0.00462963  24 t-inv F
 -0.166667 -0.500000  0.333333    0.00462963  24 t-inv F
 -0.166667  0.166667  0.500000    0.00462963  25 t-inv F
  0.166667 -0.166667  0.500000    0.00462963  25 t-inv F
  0.500000 -0.166667  0.166667    0.00462963  25 t-inv F
  0.500000  0.166667 -0.166667    0.00462963  25 t-inv F
  0.166667  0.500000 -0.166667    0.00462963  25 t-inv F
 -0.333333  0.166667 -0.333333    0.00462963  26 t-inv F
  0.166667 -0.333333 -0.333333    0.00462963  26 t-inv F
  0.333333  0.333333 -0.166667    0.00462963  26 t-inv F
  0.333333 -0.166667  0.333333    0.00462963  26 t-inv F
 -0.166667  0.333333  0.333333    0.00462963  26 t-inv F
 -0.333333 -0.333333 -0.333333    0.00462963  27 t-inv F
  0.333333  0.500000  0.333333    0.00462963  28 t-inv F
  0.333333  0.333333  0.500000    0.00462963  28 t-inv F
 -0.500000 -0.333333 -0.333333    0.00462963  28 t-inv F
 -0.333333 -0.500000 -0.333333    0.00462963  28 t-inv F
 -0.333333 -0.333333 -0.500000    0.00462963  28 t-inv F
  0.333333 -0.333333  0.333333    0.00462963  29 t-inv F
  0.333333  0.333333 -0.333333    0.00462963  29 t-inv F
  0.333333 -0.333333 -0.333333    0.00462963  29 t-inv F
 -0.333333  0.333333 -0.333333    0.00462963  29 t-inv F
 -0.333333 -0.333333  0.333333    0.00462963  29 t-inv F
  0.500000  0.333333  0.500000    0.00462963  30 t-inv F
  0.333333  0.500000  0.500000    0.00462963  30 t-inv F
 -0.500000 -0.500000 -0.333333    0.00462963  30 t-inv F
 -0.500000 -0.333333 -0.500000    0.00462963  30 t-inv F
 -0.333333 -0.500000 -0.500000    0.00462963  30 t-inv F
 -0.333333  0.333333  0.500000    0.00462963  31 t-inv F
  0.333333 -0.333333  0.500000    0.00462963  31 t-inv F
  0.500000 -0.333333  0.333333    0.00462963  31 t-inv F
  0.500000  0.333333 -0.333333    0.00462963  31 t-inv F
  0.333333  0.500000 -0.333333    0.00462963  31 t-inv F


--------------------------------------------------------------------------------------------------------




 Dimension of arrays:
   k-points           NKPTS =     32   k-points in BZ     NKDIM =     32   number of bands    NBANDS=    192
   number of dos      NEDOS =    301   number of ions     NIONS =     64
   non local maximal  LDIM  =      4   non local SUM 2l+1 LMDIM =      8
   total plane-waves  NPLWV = 110592
   max r-space proj   IRMAX =      1   max aug-charges    IRDMAX=  28442
   dimension x,y,z NGX =    48 NGY =   48 NGZ =   48
   dimension x,y,z NGXF=    96 NGYF=   96 NGZF=   96
   support grid    NGXF=   192 NGYF=  192 NGZF=  192
   ions per type =              64
   NGX,Y,Z   is equivalent  to a cutoff of  11.11, 11.11, 11.11 a.u.
   NGXF,Y,Z  is equivalent  to a cutoff of  22.23, 22.23, 22.23 a.u.

 SYSTEM =  unknown system                          
 POSCAR =  generated by phonopy                    

 Startparameter for this run:
   NWRITE =      2    write-flag & timer
   PREC   = accura    normal or accurate (medium, high low for compatibility)
   ISTART =      0    job   : 0-new  1-cont  2-samecut
   ICHARG =      2    charge: 1-file 2-atom 10-const
   ISPIN  =      1    spin polarized calculation?
   LNONCOLLINEAR =      F non collinear calculations
   LSORBIT =      F    spin-orbit coupling
   INIWAV =      1    electr: 0-lowe 1-rand  2-diag
   LASPH  =      F    aspherical Exc in radial PAW
   METAGGA=      F    non-selfconsistent MetaGGA calc.

 Electronic Relaxation 1
   ENCUT  =  400.0 eV  29.40 Ry    5.42 a.u.  11.71 11.71 11.71*2*pi/ulx,y,z
   ENINI  =  400.0     initial cutoff
   ENAUG  =  644.9 eV  augmentation charge cutoff
   NELM   =     60;   NELMIN=  2; NELMDL= -5     # of ELM steps 
   EDIFF  = 0.1E-07   stopping-criterion for ELM
   LREAL  =      F    real-space projection
   NLSPLINE    = F    spline interpolate recip. space projectors
   LCOMPAT=      F    compatible to vasp.4.4
   GGA_COMPAT  = T    GGA compatible to vasp.4.4-vasp.4.6
   LMAXPAW     = -100 max onsite density
   LMAXMIX     =    2 max onsite mixed and CHGCAR
   VOSKOWN=      0    Vosko Wilk Nusair interpolation
   ROPT   =    0.00000
 Ionic relaxation
   EDIFFG = 0.1E-06   stopping-criterion for IOM
   NSW    =      1    number of steps for IOM
   NBLOCK =      1;   KBLOCK =      1    inner block; outer block 
   IBRION =      8    ionic relax: 0-MD 1-quasi-New 2-CG
   NFREE  =      0    steps in history (QN), initial steepest desc. (CG)
   ISIF   =      2    stress and relaxation
   IWAVPR =     11    prediction:  0-non 1-charg 2-wave 3-comb
   ISYM   =      2    0-nonsym 1-usesym 2-fastsym
   LCORR  =      T    Harris-Foulkes like correction to forces

   POTIM  = 0.5000    time-step for ionic-motion
   TEIN   =    0.0    initial temperature
   TEBEG  =    0.0;   TEEND  =   0.0 temperature during run
   SMASS  =  -3.00    Nose mass-parameter (am)
   estimated Nose-frequenzy (Omega)   =  0.10E-29 period in steps =****** mass=  -0.118E-26a.u.
   SCALEE = 1.0000    scale energy and forces
   NPACO  =    256;   APACO  = 16.0  distance and # of slots for P.C.
   PSTRESS=    0.0 pullay stress

  Mass of Ions in am
   POMASS =  12.01
  Ionic Valenz
   ZVAL   =   4.00
  Atomic Wigner-Seitz radii
   RWIGS  =  -1.00
  virtual crystal weights 
   VCA    =   1.00
   NELECT =     256.0000    total number of electrons
   NUPDOWN=      -1.0000    fix difference up-down

 DOS related values:
   EMIN   =  10.00;   EMAX   =-10.00  energy-range for DOS
   EFERMI =   0.00
   ISMEAR =     0;   SIGMA  =   0.06  broadening in eV -4-tet -1-fermi 0-gaus

 Electronic relaxation 2 (details)
   IALGO  =     38    algorithm
   LDIAG  =      T    sub-space diagonalisation (order eigenvalues)
   LSUBROT=      F    optimize rotation matrix (better conditioning)
   TURBO    =      0    0=normal 1=particle mesh
   IRESTART =      0    0=no restart 2=restart with 2 vectors
   NREBOOT  =      0    no. of reboots
   NMIN     =      0    reboot dimension
   EREF     =   0.00    reference energy to select bands
   IMIX   =      4    mixing-type and parameters
     AMIX     =   0.40;   BMIX     =  1.00
     AMIX_MAG =   1.60;   BMIX_MAG =  1.00
     AMIN     =   0.10
     WC   =   100.;   INIMIX=   1;  MIXPRE=   1;  MAXMIX= -45

 Intra band minimization:
   WEIMIN = 0.0010     energy-eigenvalue tresh-hold
   EBREAK =  0.13E-10  absolut break condition
   DEPER  =   0.30     relativ break condition  

   TIME   =   0.40     timestep for ELM

  volume/ion in A,a.u.               =       5.78        38.98
  Fermi-wavevector in a.u.,A,eV,Ry     =   1.448427  2.737131 28.544234  2.097942
  Thomas-Fermi vector in A             =   2.566270
 
 Write flags
   LWAVE        =      F    write WAVECAR
   LDOWNSAMPLE  =      F    k-point downsampling of WAVECAR
   LCHARG       =      F    write CHGCAR
   LVTOT        =      F    write LOCPOT, total local potential
   LVHAR        =      F    write LOCPOT, Hartree potential only
   LELF         =      F    write electronic localiz. function (ELF)
   LORBIT       =      0    0 simple, 1 ext, 2 COOP (PROOUT), +10 PAW based schemes


 Dipole corrections
   LMONO  =      F    monopole corrections only (constant potential shift)
   LDIPOL =      F    correct potential (dipole corrections)
   IDIPOL =      0    1-x, 2-y, 3-z, 4-all directions 
   EPSILON=  1.0000000 bulk dielectric constant

 Exchange correlation treatment:
   GGA     =    --    GGA type
   LEXCH   =     8    internal setting for exchange type
   VOSKOWN=      0    Vosko Wilk Nusair interpolation
   LHFCALC =     F    Hartree Fock is set to
   LHFONE  =     F    Hartree Fock one center treatment
   AEXX    =    0.0000 exact exchange contribution

 Linear response parameters
   LEPSILON=     F    determine dielectric tensor
   LRPA    =     F    only Hartree local field effects (RPA)
   LNABLA  =     F    use nabla operator in PAW spheres
   LVEL    =     F    velocity operator in full k-point grid
   LINTERFAST=   F  fast interpolation
   KINTER  =     0    interpolate to denser k-point grid
   CSHIFT  =0.1000    complex shift for real part using Kramers Kronig
   OMEGAMAX=  -1.0    maximum frequency
   DEG_THRESHOLD= 0.2000000E-02 threshold for treating states as degnerate
   RTIME   =   -0.100 relaxation time in fs
  (WPLASMAI=    0.000 imaginary part of plasma frequency in eV, 0.658/RTIME)
   DFIELD  = 0.0000000 0.0000000 0.0000000 field for delta impulse in time
 
 Orbital magnetization related:
   ORBITALMAG=     F  switch on orbital magnetization
   LCHIMAG   =     F  perturbation theory with respect to B field
   DQ        =  0.001000  dq finite difference perturbation B field
   LLRAUG    =     F  two centre corrections for induced B field



--------------------------------------------------------------------------------------------------------


 linear response using symmetry
 charge density and potential will be updated during run
 non-spin polarized calculation
 Variant of blocked Davidson
 Davidson routine will perform the subspace rotation
 perform sub-space diagonalisation
    after iterative eigenvector-optimisation
 modified Broyden-mixing scheme, WC =      100.0
 initial mixing is a Kerker type mixing with AMIX =  0.4000 and BMIX =      1.0000
 Hartree-type preconditioning will be used
 using additional bands           64
 reciprocal scheme for non local part
 calculate Harris-corrections to forces 
   (improved forces if not selfconsistent)
 use gradient corrections 
 use of overlap-Matrix (Vanderbilt PP)
 Gauss-broadening in eV      SIGMA  =   0.06


--------------------------------------------------------------------------------------------------------


  energy-cutoff  :      400.00
  volume of cell :      369.64
      direct lattice vectors                 reciprocal lattice vectors
     7.179998718  0.000000000  0.000000000     0.139275791  0.004180144  0.004311488
    -0.215399359  7.176766050  0.000000000     0.000000000  0.139338526  0.004311487
    -0.215399359 -0.221961132  7.173334479     0.000000000  0.000000000  0.139405182

  length of vectors
     7.179998718  7.179997759  7.179999386     0.139405195  0.139405214  0.139405182


 
 k-points in units of 2pi/SCALE and weight: kpt_density=3000                        
   0.00000000  0.00000000  0.00000000       0.005
   0.02321263  0.00069669  0.00071858       0.028
   0.04642526  0.00139338  0.00143716       0.028
   0.06963790  0.00209007  0.00215574       0.014
   0.02321263  0.02391978  0.00143716       0.028
   0.04642526  0.02461647  0.00215574       0.056
   0.06963790  0.02531316  0.00287433       0.056
  -0.04642526  0.02182971 -0.00071858       0.056
  -0.02321263  0.02252640 -0.00000000       0.028
   0.04642526  0.04783956  0.00287432       0.028
   0.06963790  0.04853625  0.00359291       0.056
  -0.04642526  0.04505279 -0.00000000       0.028
   0.06963790  0.07175933  0.00431149       0.014
   0.02321263  0.02391978  0.02467136       0.009
   0.04642526  0.02461647  0.02538994       0.028
   0.06963790  0.02531316  0.02610852       0.028
  -0.04642526  0.02182971  0.02251562       0.028
  -0.02321263  0.02252640  0.02323420       0.028
   0.04642526  0.04783956  0.02610852       0.028
   0.06963790  0.04853625  0.02682710       0.056
  -0.04642526  0.04505279  0.02323420       0.056
  -0.02321263  0.04574948  0.02395278       0.056
   0.06963790  0.07175933  0.02754568       0.028
  -0.04642526  0.06827588  0.02395278       0.056
  -0.02321263  0.06897257  0.02467136       0.028
  -0.04642526 -0.04783956  0.02035987       0.028
   0.04642526  0.04783956  0.04934272       0.009
   0.06963790  0.04853625  0.05006130       0.028
  -0.04642526  0.04505279  0.04646839       0.028
   0.06963790  0.07175933  0.05077988       0.028
  -0.04642526  0.06827588  0.04718697       0.028
   0.06963790  0.07175933  0.07401408       0.005
 
 k-points in reciprocal lattice and weights: kpt_density=3000                        
   0.00000000  0.00000000  0.00000000       0.005
   0.16666667 -0.00000000  0.00000000       0.028
   0.33333333 -0.00000000 -0.00000000       0.028
   0.50000000  0.00000000 -0.00000000       0.014
   0.16666667  0.16666667  0.00000000       0.028
   0.33333333  0.16666667 -0.00000000       0.056
   0.50000000  0.16666667 -0.00000000       0.056
  -0.33333333  0.16666667  0.00000000       0.056
  -0.16666667  0.16666667 -0.00000000       0.028
   0.33333333  0.33333333  0.00000000       0.028
   0.50000000  0.33333333 -0.00000000       0.056
  -0.33333333  0.33333333 -0.00000000       0.028
   0.50000000  0.50000000  0.00000000       0.014
   0.16666667  0.16666667  0.16666667       0.009
   0.33333333  0.16666667  0.16666667       0.028
   0.50000000  0.16666667  0.16666667       0.028
  -0.33333333  0.16666667  0.16666667       0.028
  -0.16666667  0.16666667  0.16666667       0.028
   0.33333333  0.33333333  0.16666667       0.028
   0.50000000  0.33333333  0.16666667       0.056
  -0.33333333  0.33333333  0.16666667       0.056
  -0.16666667  0.33333333  0.16666667       0.056
   0.50000000  0.50000000  0.16666667       0.028
  -0.33333333  0.50000000  0.16666667       0.056
  -0.16666667  0.50000000  0.16666667       0.028
  -0.33333333 -0.33333333  0.16666667       0.028
   0.33333333  0.33333333  0.33333333       0.009
   0.50000000  0.33333333  0.33333333       0.028
  -0.33333333  0.33333333  0.33333333       0.028
   0.50000000  0.50000000  0.33333333       0.028
  -0.33333333  0.50000000  0.33333333       0.028
   0.50000000  0.50000000  0.50000000       0.005
 
 position of ions in fractional coordinates (direct lattice) 
   0.12500000  0.37500000  0.12500000
   0.62500000  0.37500000  0.12500000
   0.12500000  0.87500000  0.12500000
   0.62500000  0.87500000  0.12500000
   0.12500000  0.37500000  0.62500000
   0.62500000  0.37500000  0.62500000
   0.12500000  0.87500000  0.62500000
   0.62500000  0.87500000  0.62500000
   0.00000000  0.00000000  0.25000000
   0.50000000  0.00000000  0.25000000
   0.00000000  0.50000000  0.25000000
   0.50000000  0.50000000  0.25000000
   0.00000000  0.00000000  0.75000000
   0.50000000  0.00000000  0.75000000
   0.00000000  0.50000000  0.75000000
   0.50000000  0.50000000  0.75000000
   0.12500000  0.12500000  0.37500000
   0.62500000  0.12500000  0.37500000
   0.12500000  0.62500000  0.37500000
   0.62500000  0.62500000  0.37500000
   0.12500000  0.12500000  0.87500000
   0.62500000  0.12500000  0.87500000
   0.12500000  0.62500000  0.87500000
   0.62500000  0.62500000  0.87500000
   0.00000000  0.25000000  0.00000000
   0.50000000  0.25000000  0.00000000
   0.00000000  0.75000000  0.00000000
   0.50000000  0.75000000  0.00000000
   0.00000000  0.25000000  0.50000000
   0.50000000  0.25000000  0.50000000
   0.00000000  0.75000000  0.50000000
   0.50000000  0.75000000  0.50000000
   0.37500000  0.37500000  0.37500000
   0.87500000  0.37500000  0.37500000
   0.37500000  0.87500000  0.37500000
   0.87500000  0.87500000  0.37500000
   0.37500000  0.37500000  0.87500000
   0.87500000  0.37500000  0.87500000
   0.37500000  0.87500000  0.87500000
   0.87500000  0.87500000  0.87500000
   0.25000000  0.00000000  0.00000000
   0.75000000  0.00000000  0.00000000
   0.25000000  0.50000000  0.00000000
   0.75000000  0.50000000  0.00000000
   0.25000000  0.00000000  0.50000000
   0.75000000  0.00000000  0.50000000
   0.25000000  0.50000000  0.50000000
   0.75000000  0.50000000  0.50000000
   0.37500000  0.12500000  0.12500000
   0.87500000  0.12500000  0.12500000
   0.37500000  0.62500000  0.12500000
   0.87500000  0.62500000  0.12500000
   0.37500000  0.12500000  0.62500000
   0.87500000  0.12500000  0.62500000
   0.37500000  0.62500000  0.62500000
   0.87500000  0.62500000  0.62500000
   0.25000000  0.25000000  0.25000000
   0.75000000  0.25000000  0.25000000
   0.25000000  0.75000000  0.25000000
   0.75000000  0.75000000  0.25000000
   0.25000000  0.25000000  0.75000000
   0.75000000  0.25000000  0.75000000
   0.25000000  0.75000000  0.75000000
   0.75000000  0.75000000  0.75000000
 
 position of ions in cartesian coordinates  (Angst):
   0.78980016  2.66354213  0.89666681
   4.37979952  2.66354213  0.89666681
   0.68210048  6.25192515  0.89666681
   4.27209984  6.25192515  0.89666681
   0.68210048  2.55256156  4.48333405
   4.27209984  2.55256156  4.48333405
   0.57440080  6.14094459  4.48333405
   4.16440016  6.14094459  4.48333405
  -0.05384984 -0.05549028  1.79333362
   3.53614952 -0.05549028  1.79333362
  -0.16154952  3.53289274  1.79333362
   3.42844984  3.53289274  1.79333362
  -0.16154952 -0.16647085  5.38000086
   3.42844984 -0.16647085  5.38000086
  -0.26924920  3.42191218  5.38000086
   3.32075016  3.42191218  5.38000086
   0.78980016  0.81386033  2.69000043
   4.37979952  0.81386033  2.69000043
   0.68210048  4.40224336  2.69000043
   4.27209984  4.40224336  2.69000043
   0.68210048  0.70287977  6.27666767
   4.27209984  0.70287977  6.27666767
   0.57440080  4.29126279  6.27666767
   4.16440016  4.29126279  6.27666767
  -0.05384984  1.79419151  0.00000000
   3.53614952  1.79419151  0.00000000
  -0.16154952  5.38257454  0.00000000
   3.42844984  5.38257454  0.00000000
  -0.16154952  1.68321095  3.58666724
   3.42844984  1.68321095  3.58666724
  -0.26924920  5.27159397  3.58666724
   3.32075016  5.27159397  3.58666724
   2.53095000  2.60805184  2.69000043
   6.12094936  2.60805184  2.69000043
   2.42325032  6.19643487  2.69000043
   6.01324968  6.19643487  2.69000043
   2.42325032  2.49707128  6.27666767
   6.01324968  2.49707128  6.27666767
   2.31555064  6.08545430  6.27666767
   5.90555000  6.08545430  6.27666767
   1.79499968  0.00000000  0.00000000
   5.38499904  0.00000000  0.00000000
   1.68730000  3.58838302  0.00000000
   5.27729936  3.58838302  0.00000000
   1.68730000 -0.11098057  3.58666724
   5.27729936 -0.11098057  3.58666724
   1.57960032  3.47740246  3.58666724
   5.16959968  3.47740246  3.58666724
   2.63864968  0.86935061  0.89666681
   6.22864904  0.86935061  0.89666681
   2.53095000  4.45773364  0.89666681
   6.12094936  4.45773364  0.89666681
   2.53095000  0.75837005  4.48333405
   6.12094936  0.75837005  4.48333405
   2.42325032  4.34675307  4.48333405
   6.01324968  4.34675307  4.48333405
   1.68730000  1.73870123  1.79333362
   5.27729936  1.73870123  1.79333362
   1.57960032  5.32708425  1.79333362
   5.16959968  5.32708425  1.79333362
   1.57960032  1.62772066  5.38000086
   5.16959968  1.62772066  5.38000086
   1.47190064  5.21610369  5.38000086
   5.06190000  5.21610369  5.38000086
 


--------------------------------------------------------------------------------------------------------


 k-point  1 :   0.0000 0.0000 0.0000  plane waves:    6751
 k-point  2 :   0.1667-0.0000 0.0000  plane waves:    6724
 k-point  3 :   0.3333-0.0000-0.0000  plane waves:    6725
 k-point  4 :   0.5000 0.0000-0.0000  plane waves:    6728
 k-point  5 :   0.1667 0.1667 0.0000  plane waves:    6728
 k-point  6 :   0.3333 0.1667-0.0000  plane waves:    6708
 k-point  7 :   0.5000 0.1667-0.0000  plane waves:    6717
 k-point  8 :  -0.3333 0.1667 0.0000  plane waves:    6723
 k-point  9 :  -0.1667 0.1667-0.0000  plane waves:    6717
 k-point 10 :   0.3333 0.3333 0.0000  plane waves:    6719
 k-point 11 :   0.5000 0.3333-0.0000  plane waves:    6716
 k-point 12 :  -0.3333 0.3333-0.0000  plane waves:    6707
 k-point 13 :   0.5000 0.5000 0.0000  plane waves:    6716
 k-point 14 :   0.1667 0.1667 0.1667  plane waves:    6715
 k-point 15 :   0.3333 0.1667 0.1667  plane waves:    6702
 k-point 16 :   0.5000 0.1667 0.1667  plane waves:    6698
 k-point 17 :  -0.3333 0.1667 0.1667  plane waves:    6707
 k-point 18 :  -0.1667 0.1667 0.1667  plane waves:    6720
 k-point 19 :   0.3333 0.3333 0.1667  plane waves:    6697
 k-point 20 :   0.5000 0.3333 0.1667  plane waves:    6724
 k-point 21 :  -0.3333 0.3333 0.1667  plane waves:    6711
 k-point 22 :  -0.1667 0.3333 0.1667  plane waves:    6711
 k-point 23 :   0.5000 0.5000 0.1667  plane waves:    6739
 k-point 24 :  -0.3333 0.5000 0.1667  plane waves:    6714
 k-point 25 :  -0.1667 0.5000 0.1667  plane waves:    6694
 k-point 26 :  -0.3333-0.3333 0.1667  plane waves:    6718
 k-point 27 :   0.3333 0.3333 0.3333  plane waves:    6682
 k-point 28 :   0.5000 0.3333 0.3333  plane waves:    6699
 k-point 29 :  -0.3333 0.3333 0.3333  plane waves:    6719
 k-point 30 :   0.5000 0.5000 0.3333  plane waves:    6703
 k-point 31 :  -0.3333 0.5000 0.3333  plane waves:    6712
 k-point 32 :   0.5000 0.5000 0.5000  plane waves:    6698

 maximum and minimum number of plane-waves per node :      6751     6682

 maximum number of plane-waves:      6751
 maximum index in each direction: 
   IXMAX=   12   IYMAX=   12   IZMAX=   11
   IXMIN=  -12   IYMIN=  -12   IZMIN=  -12


 serial   3D FFT for wavefunctions
 parallel 3D FFT for charge:
    minimum data exchange during FFTs selected (reduces bandwidth)


 total amount of memory used by VASP MPI-rank0    83596. kBytes
=======================================================================

   base      :      30000. kBytes
   nonl-proj :      20742. kBytes
   fftplans  :       4537. kBytes
   grid      :       5806. kBytes
   one-center:        196. kBytes
   wavefun   :      22315. kBytes
 
     INWAV:  cpu time    0.0003: real time    0.0007
 Broyden mixing: mesh for mixing (old mesh)
   NGX = 23   NGY = 23   NGZ = 23
  (NGX  = 96   NGY  = 96   NGZ  = 96)
  gives a total of  12167 points

 initial charge density was supplied:
 charge density of overlapping atoms calculated
 number of electron     256.0000000 magnetization 
 keeping initial charge density in first step


--------------------------------------------------------------------------------------------------------


 Maximum index for augmentation-charges         1097 (set IRDMAX)


--------------------------------------------------------------------------------------------------------


 First call to EWALD:  gamma=   0.247
 Maximum number of real-space cells 3x 3x 3
 Maximum number of reciprocal cells 3x 3x 3

    FEWALD:  cpu time    0.0083: real time    0.0083


--------------------------------------- Iteration      1(   1)  ---------------------------------------


    POTLOK:  cpu time    0.0689: real time    0.0917
    SETDIJ:  cpu time    0.0418: real time    0.0420
     EDDAV:  cpu time   21.9537: real time   21.9621
       DOS:  cpu time    0.0076: real time    0.0076
    --------------------------------------------
      LOOP:  cpu time   22.0720: real time   22.1034

 eigenvalue-minimisations  : 12288
 total energy-change (2. order) : 0.5038787E+03  (-0.1134880E+05)
 number of electron     256.0000000 magnetization 
 augmentation part      256.0000000 magnetization 

 Free energy of the ion-electron system (eV)
  ---------------------------------------------------
  alpha Z        PSCENC =       902.89574185
  Ewald energy   TEWEN  =    -11062.07651133
  -Hartree energ DENC   =      -578.97708266
  -exchange      EXHF   =         0.00000000
  -V(xc)+E(xc)   XCENC  =       911.51918721
  PAW double counting   =      2421.21235816    -2494.84305711
  entropy T*S    EENTRO =        -0.01190153
  eigenvalues    EBANDS =       988.01758864
  atomic energy  EATOM  =      9416.14232778
  Solvation  Ediel_sol  =         0.00000000
  ---------------------------------------------------
  free energy    TOTEN  =       503.87865100 eV

  energy without entropy =      503.89055254  energy(sigma->0) =      503.88460177


--------------------------------------------------------------------------------------------------------




--------------------------------------- Iteration      1(   2)  ---------------------------------------


     EDDAV:  cpu time   27.2666: real time   27.2683
       DOS:  cpu time    0.0052: real time    0.0052
    --------------------------------------------
      LOOP:  cpu time   27.2717: real time   27.2735

 eigenvalue-minimisations  : 16128
 total energy-change (2. order) :-0.1061525E+04  (-0.1011072E+04)
 number of electron     256.0000000 magnetization 
 augmentation part      256.0000000 magnetization 

 Free energy of the ion-electron system (eV)
  ---------------------------------------------------
  alpha Z        PSCENC =       902.89574185
  Ewald energy   TEWEN  =    -11062.07651133
  -Hartree energ DENC   =      -578.97708266
  -exchange      EXHF   =         0.00000000
  -V(xc)+E(xc)   XCENC  =       911.51918721
  PAW double counting   =      2421.21235816    -2494.84305711
  entropy T*S    EENTRO =        -0.00000000
  eigenvalues    EBANDS =       -73.51905467
  atomic energy  EATOM  =      9416.14232778
  Solvation  Ediel_sol  =         0.00000000
  ---------------------------------------------------
  free energy    TOTEN  =      -557.64609077 eV

  energy without entropy =     -557.64609077  energy(sigma->0) =     -557.64609077


--------------------------------------------------------------------------------------------------------




--------------------------------------- Iteration      1(   3)  ---------------------------------------


     EDDAV:  cpu time   28.0932: real time   28.0950
       DOS:  cpu time    0.0038: real time    0.0038
    --------------------------------------------
      LOOP:  cpu time   28.0969: real time   28.0987

 eigenvalue-minimisations  : 16384
 total energy-change (2. order) :-0.4147495E+02  (-0.4122264E+02)
 number of electron     256.0000000 magnetization 
 augmentation part      256.0000000 magnetization 

 Free energy of the ion-electron system (eV)
  ---------------------------------------------------
  alpha Z        PSCENC =       902.89574185
  Ewald energy   TEWEN  =    -11062.07651133
  -Hartree energ DENC   =      -578.97708266
  -exchange      EXHF   =         0.00000000
  -V(xc)+E(xc)   XCENC  =       911.51918721
  PAW double counting   =      2421.21235816    -2494.84305711
  entropy T*S    EENTRO =        -0.00000000
  eigenvalues    EBANDS =      -114.99400425
  atomic energy  EATOM  =      9416.14232778
  Solvation  Ediel_sol  =         0.00000000
  ---------------------------------------------------
  free energy    TOTEN  =      -599.12104035 eV

  energy without entropy =     -599.12104035  energy(sigma->0) =     -599.12104035


--------------------------------------------------------------------------------------------------------




--------------------------------------- Iteration      1(   4)  ---------------------------------------


     EDDAV:  cpu time   28.3479: real time   28.3496
       DOS:  cpu time    0.0038: real time    0.0038
    --------------------------------------------
      LOOP:  cpu time   28.3517: real time   28.3534

 eigenvalue-minimisations  : 16416
 total energy-change (2. order) :-0.4557013E+00  (-0.4548065E+00)
 number of electron     256.0000000 magnetization 
 augmentation part      256.0000000 magnetization 

 Free energy of the ion-electron system (eV)
  ---------------------------------------------------
  alpha Z        PSCENC =       902.89574185
  Ewald energy   TEWEN  =    -11062.07651133
  -Hartree energ DENC   =      -578.97708266
  -exchange      EXHF   =         0.00000000
  -V(xc)+E(xc)   XCENC  =       911.51918721
  PAW double counting   =      2421.21235816    -2494.84305711
  entropy T*S    EENTRO =        -0.00000000
  eigenvalues    EBANDS =      -115.44970551
  atomic energy  EATOM  =      9416.14232778
  Solvation  Ediel_sol  =         0.00000000
  ---------------------------------------------------
  free energy    TOTEN  =      -599.57674162 eV

  energy without entropy =     -599.57674162  energy(sigma->0) =     -599.57674162


--------------------------------------------------------------------------------------------------------




--------------------------------------- Iteration      1(   5)  ---------------------------------------


     EDDAV:  cpu time   26.4875: real time   26.4892
       DOS:  cpu time    0.0044: real time    0.0044
    CHARGE:  cpu time    0.6464: real time    0.6466
    MIXING:  cpu time    0.0037: real time    0.0037
    --------------------------------------------
      LOOP:  cpu time   27.1419: real time   27.1438

 eigenvalue-minimisations  : 15488
 total energy-change (2. order) :-0.9096078E-02  (-0.9092095E-02)
 number of electron     255.9999994 magnetization 
 augmentation part        6.2008875 magnetization 

 Broyden mixing:
  rms(total) = 0.26428E+01    rms(broyden)= 0.26423E+01
  rms(prec ) = 0.38648E+01
  weight for this iteration     100.00

 Free energy of the ion-electron system (eV)
  ---------------------------------------------------
  alpha Z        PSCENC =       902.89574185
  Ewald energy   TEWEN  =    -11062.07651133
  -Hartree energ DENC   =      -578.97708266
  -exchange      EXHF   =         0.00000000
  -V(xc)+E(xc)   XCENC  =       911.51918721
  PAW double counting   =      2421.21235816    -2494.84305711
  entropy T*S    EENTRO =        -0.00000000
  eigenvalues    EBANDS =      -115.45880159
  atomic energy  EATOM  =      9416.14232778
  Solvation  Ediel_sol  =         0.00000000
  ---------------------------------------------------
  free energy    TOTEN  =      -599.58583769 eV

  energy without entropy =     -599.58583769  energy(sigma->0) =     -599.58583769


--------------------------------------------------------------------------------------------------------




--------------------------------------- Iteration      1(   6)  ---------------------------------------


    POTLOK:  cpu time    0.0617: real time    0.0621
    SETDIJ:  cpu time    0.0396: real time    0.0396
     EDDAV:  cpu time   26.2666: real time   26.2680
       DOS:  cpu time    0.0037: real time    0.0037
    CHARGE:  cpu time    0.6485: real time    0.6485
    MIXING:  cpu time    0.0038: real time    0.0038
    --------------------------------------------
      LOOP:  cpu time   27.0239: real time   27.0257

 eigenvalue-minimisations  : 14432
 total energy-change (2. order) : 0.1459921E+02  (-0.9740209E+00)
 number of electron     255.9999994 magnetization 
 augmentation part        6.0582517 magnetization 

 Broyden mixing:
  rms(total) = 0.14523E+01    rms(broyden)= 0.14523E+01
  rms(prec ) = 0.21036E+01
  weight for this iteration     100.00

 eigenvalues of (default mixing * dielectric matrix)
  average eigenvalue GAMMA=   2.1724
  2.1724

 Free energy of the ion-electron system (eV)
  ---------------------------------------------------
  alpha Z        PSCENC =       902.89574185
  Ewald energy   TEWEN  =    -11062.07651133
  -Hartree energ DENC   =      -699.19367148
  -exchange      EXHF   =         0.00000000
  -V(xc)+E(xc)   XCENC  =       922.72171321
  PAW double counting   =      3128.24775354    -3206.05266577
  entropy T*S    EENTRO =        -0.00000000
  eigenvalues    EBANDS =        12.32868197
  atomic energy  EATOM  =      9416.14232778
  Solvation  Ediel_sol  =         0.00000000
  ---------------------------------------------------
  free energy    TOTEN  =      -584.98663022 eV

  energy without entropy =     -584.98663022  energy(sigma->0) =     -584.98663022


--------------------------------------------------------------------------------------------------------




--------------------------------------- Iteration      1(   7)  ---------------------------------------


    POTLOK:  cpu time    0.0640: real time    0.0643
    SETDIJ:  cpu time    0.0469: real time    0.0469
     EDDAV:  cpu time   26.2550: real time   26.2563
       DOS:  cpu time    0.0039: real time    0.0039
    CHARGE:  cpu time    0.6415: real time    0.6415
    MIXING:  cpu time    0.0043: real time    0.0043
    --------------------------------------------
      LOOP:  cpu time   27.0156: real time   27.0172

 eigenvalue-minimisations  : 15264
 total energy-change (2. order) : 0.4918122E+01  (-0.1127698E+01)
 number of electron     255.9999995 magnetization 
 augmentation part        5.9081347 magnetization 

 Broyden mixing:
  rms(total) = 0.19662E+00    rms(broyden)= 0.19566E+00
  rms(prec ) = 0.24118E+00
  weight for this iteration     100.00

 eigenvalues of (default mixing * dielectric matrix)
  average eigenvalue GAMMA=   2.2726
  2.0290  2.5162

 Free energy of the ion-electron system (eV)
  ---------------------------------------------------
  alpha Z        PSCENC =       902.89574185
  Ewald energy   TEWEN  =    -11062.07651133
  -Hartree energ DENC   =      -853.09968425
  -exchange      EXHF   =         0.00000000
  -V(xc)+E(xc)   XCENC  =       937.24257223
  PAW double counting   =      4089.61975931    -4171.39267519
  entropy T*S    EENTRO =        -0.00000000
  eigenvalues    EBANDS =       160.59996100
  atomic energy  EATOM  =      9416.14232778
  Solvation  Ediel_sol  =         0.00000000
  ---------------------------------------------------
  free energy    TOTEN  =      -580.06850860 eV

  energy without entropy =     -580.06850860  energy(sigma->0) =     -580.06850860


--------------------------------------------------------------------------------------------------------




--------------------------------------- Iteration      1(   8)  ---------------------------------------


    POTLOK:  cpu time    0.0697: real time    0.0712
    SETDIJ:  cpu time    0.0402: real time    0.0402
     EDDAV:  cpu time   26.5796: real time   26.5810
       DOS:  cpu time    0.0035: real time    0.0035
    CHARGE:  cpu time    0.6515: real time    0.6515
    MIXING:  cpu time    0.0045: real time    0.0045
    --------------------------------------------
      LOOP:  cpu time   27.3490: real time   27.3519

 eigenvalue-minimisations  : 15488
 total energy-change (2. order) :-0.6221870E-01  (-0.2971433E-01)
 number of electron     255.9999995 magnetization 
 augmentation part        5.9160499 magnetization 

 Broyden mixing:
  rms(total) = 0.21897E-01    rms(broyden)= 0.21611E-01
  rms(prec ) = 0.26643E-01
  weight for this iteration     100.00

 eigenvalues of (default mixing * dielectric matrix)
  average eigenvalue GAMMA=   2.0842
  1.4586  2.6688  2.1251

 Free energy of the ion-electron system (eV)
  ---------------------------------------------------
  alpha Z        PSCENC =       902.89574185
  Ewald energy   TEWEN  =    -11062.07651133
  -Hartree energ DENC   =      -855.61501378
  -exchange      EXHF   =         0.00000000
  -V(xc)+E(xc)   XCENC  =       937.51332463
  PAW double counting   =      4153.39265061    -4234.11103267
  entropy T*S    EENTRO =        -0.00000000
  eigenvalues    EBANDS =       161.72778562
  atomic energy  EATOM  =      9416.14232778
  Solvation  Ediel_sol  =         0.00000000
  ---------------------------------------------------
  free energy    TOTEN  =      -580.13072730 eV

  energy without entropy =     -580.13072730  energy(sigma->0) =     -580.13072730


--------------------------------------------------------------------------------------------------------




--------------------------------------- Iteration      1(   9)  ---------------------------------------


    POTLOK:  cpu time    0.0592: real time    0.0629
    SETDIJ:  cpu time    0.0429: real time    0.0429
     EDDAV:  cpu time   27.8599: real time   27.8613
       DOS:  cpu time    0.0045: real time    0.0045
    CHARGE:  cpu time    0.6416: real time    0.6416
    MIXING:  cpu time    0.0058: real time    0.0058
    --------------------------------------------
      LOOP:  cpu time   28.6138: real time   28.6190

 eigenvalue-minimisations  : 15840
 total energy-change (2. order) :-0.2311269E-02  (-0.4127737E-03)
 number of electron     255.9999995 magnetization 
 augmentation part        5.9148771 magnetization 

 Broyden mixing:
  rms(total) = 0.88896E-02    rms(broyden)= 0.88678E-02
  rms(prec ) = 0.11136E-01
  weight for this iteration     100.00

 eigenvalues of (default mixing * dielectric matrix)
  average eigenvalue GAMMA=   1.9961
  0.9529  2.6982  2.3616  1.9716

 Free energy of the ion-electron system (eV)
  ---------------------------------------------------
  alpha Z        PSCENC =       902.89574185
  Ewald energy   TEWEN  =    -11062.07651133
  -Hartree energ DENC   =      -855.47420624
  -exchange      EXHF   =         0.00000000
  -V(xc)+E(xc)   XCENC  =       937.49925342
  PAW double counting   =      4151.00715118    -4231.63809544
  entropy T*S    EENTRO =        -0.00000000
  eigenvalues    EBANDS =       161.51130021
  atomic energy  EATOM  =      9416.14232778
  Solvation  Ediel_sol  =         0.00000000
  ---------------------------------------------------
  free energy    TOTEN  =      -580.13303857 eV

  energy without entropy =     -580.13303857  energy(sigma->0) =     -580.13303857


--------------------------------------------------------------------------------------------------------




--------------------------------------- Iteration      1(  10)  ---------------------------------------


    POTLOK:  cpu time    0.0676: real time    0.0680
    SETDIJ:  cpu time    0.0397: real time    0.0397
     EDDAV:  cpu time   26.5399: real time   26.5412
       DOS:  cpu time    0.0039: real time    0.0039
    CHARGE:  cpu time    0.6465: real time    0.6465
    MIXING:  cpu time    0.0075: real time    0.0075
    --------------------------------------------
      LOOP:  cpu time   27.3051: real time   27.3068

 eigenvalue-minimisations  : 15008
 total energy-change (2. order) :-0.4786235E-03  (-0.3634083E-04)
 number of electron     255.9999995 magnetization 
 augmentation part        5.9146240 magnetization 

 Broyden mixing:
  rms(total) = 0.10849E-02    rms(broyden)= 0.10727E-02
  rms(prec ) = 0.15007E-02
  weight for this iteration     100.00

 eigenvalues of (default mixing * dielectric matrix)
  average eigenvalue GAMMA=   1.9532
  2.9249  2.5486  2.0569  0.9819  1.2539

 Free energy of the ion-electron system (eV)
  ---------------------------------------------------
  alpha Z        PSCENC =       902.89574185
  Ewald energy   TEWEN  =    -11062.07651133
  -Hartree energ DENC   =      -855.86508609
  -exchange      EXHF   =         0.00000000
  -V(xc)+E(xc)   XCENC  =       937.53324186
  PAW double counting   =      4147.85979601    -4228.50168984
  entropy T*S    EENTRO =        -0.00000000
  eigenvalues    EBANDS =       161.87866256
  atomic energy  EATOM  =      9416.14232778
  Solvation  Ediel_sol  =         0.00000000
  ---------------------------------------------------
  free energy    TOTEN  =      -580.13351719 eV

  energy without entropy =     -580.13351719  energy(sigma->0) =     -580.13351719


--------------------------------------------------------------------------------------------------------




--------------------------------------- Iteration      1(  11)  ---------------------------------------


    POTLOK:  cpu time    0.0623: real time    0.0627
    SETDIJ:  cpu time    0.0397: real time    0.0397
     EDDAV:  cpu time   27.8608: real time   27.8621
       DOS:  cpu time    0.0042: real time    0.0042
    CHARGE:  cpu time    0.6426: real time    0.6426
    MIXING:  cpu time    0.0052: real time    0.0052
    --------------------------------------------
      LOOP:  cpu time   28.6147: real time   28.6165

 eigenvalue-minimisations  : 16032
 total energy-change (2. order) :-0.1600210E-04  (-0.1526879E-05)
 number of electron     255.9999995 magnetization 
 augmentation part        5.9144759 magnetization 

 Broyden mixing:
  rms(total) = 0.34856E-03    rms(broyden)= 0.34510E-03
  rms(prec ) = 0.42056E-03
  weight for this iteration     100.00

 eigenvalues of (default mixing * dielectric matrix)
  average eigenvalue GAMMA=   1.9658
  2.8925  2.4803  2.3949  2.0357  0.9697  1.0217

 Free energy of the ion-electron system (eV)
  ---------------------------------------------------
  alpha Z        PSCENC =       902.89574185
  Ewald energy   TEWEN  =    -11062.07651133
  -Hartree energ DENC   =      -855.98258259
  -exchange      EXHF   =         0.00000000
  -V(xc)+E(xc)   XCENC  =       937.54386867
  PAW double counting   =      4147.77196130    -4228.41750170
  entropy T*S    EENTRO =        -0.00000000
  eigenvalues    EBANDS =       161.98916282
  atomic energy  EATOM  =      9416.14232778
  Solvation  Ediel_sol  =         0.00000000
  ---------------------------------------------------
  free energy    TOTEN  =      -580.13353319 eV

  energy without entropy =     -580.13353319  energy(sigma->0) =     -580.13353319


--------------------------------------------------------------------------------------------------------




--------------------------------------- Iteration      1(  12)  ---------------------------------------


    POTLOK:  cpu time    0.0609: real time    0.0612
    SETDIJ:  cpu time    0.0407: real time    0.0407
     EDDAV:  cpu time   27.4090: real time   27.4104
       DOS:  cpu time    0.0040: real time    0.0040
    CHARGE:  cpu time    0.6888: real time    0.6888
    MIXING:  cpu time    0.0052: real time    0.0052
    --------------------------------------------
      LOOP:  cpu time   28.2087: real time   28.2104

 eigenvalue-minimisations  : 15744
 total energy-change (2. order) :-0.1041917E-07  (-0.4229576E-07)
 number of electron     255.9999995 magnetization 
 augmentation part        5.9144814 magnetization 

 Broyden mixing:
  rms(total) = 0.66360E-04    rms(broyden)= 0.64012E-04
  rms(prec ) = 0.78475E-04
  weight for this iteration     100.00

 eigenvalues of (default mixing * dielectric matrix)
  average eigenvalue GAMMA=   1.9308
  2.8674  1.0023  1.0023  2.5251  2.2276  2.0729  1.8183

 Free energy of the ion-electron system (eV)
  ---------------------------------------------------
  alpha Z        PSCENC =       902.89574185
  Ewald energy   TEWEN  =    -11062.07651133
  -Hartree energ DENC   =      -855.97113515
  -exchange      EXHF   =         0.00000000
  -V(xc)+E(xc)   XCENC  =       937.54279167
  PAW double counting   =      4147.82040062    -4228.46464265
  entropy T*S    EENTRO =        -0.00000000
  eigenvalues    EBANDS =       161.97749400
  atomic energy  EATOM  =      9416.14232778
  Solvation  Ediel_sol  =         0.00000000
  ---------------------------------------------------
  free energy    TOTEN  =      -580.13353320 eV

  energy without entropy =     -580.13353320  energy(sigma->0) =     -580.13353320


--------------------------------------------------------------------------------------------------------




--------------------------------------- Iteration      1(  13)  ---------------------------------------


    POTLOK:  cpu time    0.0709: real time    0.0713
    SETDIJ:  cpu time    0.0450: real time    0.0450
     EDDAV:  cpu time   24.9157: real time   24.9170
       DOS:  cpu time    0.0040: real time    0.0040
    CHARGE:  cpu time    0.6453: real time    0.6453
    MIXING:  cpu time    0.0052: real time    0.0052
    --------------------------------------------
      LOOP:  cpu time   25.6861: real time   25.6878

 eigenvalue-minimisations  : 12960
 total energy-change (2. order) :-0.5704896E-07  (-0.1622148E-08)
 number of electron     255.9999995 magnetization 
 augmentation part        5.9144809 magnetization 

 Broyden mixing:
  rms(total) = 0.24939E-04    rms(broyden)= 0.19299E-04
  rms(prec ) = 0.22513E-04
  weight for this iteration     100.00
  WARNING: grid for Broyden might be to small

 eigenvalues of (default mixing * dielectric matrix)
  average eigenvalue GAMMA=   1.9075
  2.9528  2.6061  2.4694  2.1172  2.0058  1.0013  1.0013  1.1063

 Free energy of the ion-electron system (eV)
  ---------------------------------------------------
  alpha Z        PSCENC =       902.89574185
  Ewald energy   TEWEN  =    -11062.07651133
  -Hartree energ DENC   =      -855.96777229
  -exchange      EXHF   =         0.00000000
  -V(xc)+E(xc)   XCENC  =       937.54248371
  PAW double counting   =      4147.81973150    -4228.46376093
  entropy T*S    EENTRO =        -0.00000000
  eigenvalues    EBANDS =       161.97422645
  atomic energy  EATOM  =      9416.14232778
  Solvation  Ediel_sol  =         0.00000000
  ---------------------------------------------------
  free energy    TOTEN  =      -580.13353326 eV

  energy without entropy =     -580.13353326  energy(sigma->0) =     -580.13353326


--------------------------------------------------------------------------------------------------------




--------------------------------------- Iteration      1(  14)  ---------------------------------------


    POTLOK:  cpu time    0.0708: real time    0.0712
    SETDIJ:  cpu time    0.0425: real time    0.0425
     EDDAV:  cpu time   22.2438: real time   22.2449
       DOS:  cpu time    0.0100: real time    0.0100
    CHARGE:  cpu time    0.6461: real time    0.6462
    MIXING:  cpu time    0.0052: real time    0.0052
    --------------------------------------------
      LOOP:  cpu time   23.0184: real time   23.0199

 eigenvalue-minimisations  : 10720
 total energy-change (2. order) :-0.3887726E-07  (-0.3669750E-09)
 number of electron     255.9999995 magnetization 
 augmentation part        5.9144817 magnetization 

 Broyden mixing:
  rms(total) = 0.15941E-04    rms(broyden)= 0.25571E-05
  rms(prec ) = 0.32398E-05
  weight for this iteration     100.00
  WARNING: grid for Broyden might be to small

 eigenvalues of (default mixing * dielectric matrix)
  average eigenvalue GAMMA=   1.8592
  2.9284  2.6233  2.4959  2.0243  2.0243  1.6620  0.9979  0.9979  0.9789

 Free energy of the ion-electron system (eV)
  ---------------------------------------------------
  alpha Z        PSCENC =       902.89574185
  Ewald energy   TEWEN  =    -11062.07651133
  -Hartree energ DENC   =      -855.96749439
  -exchange      EXHF   =         0.00000000
  -V(xc)+E(xc)   XCENC  =       937.54246061
  PAW double counting   =      4147.82336876    -4228.46729842
  entropy T*S    EENTRO =        -0.00000000
  eigenvalues    EBANDS =       161.97387184
  atomic energy  EATOM  =      9416.14232778
  Solvation  Ediel_sol  =         0.00000000
  ---------------------------------------------------
  free energy    TOTEN  =      -580.13353330 eV

  energy without entropy =     -580.13353330  energy(sigma->0) =     -580.13353330


--------------------------------------------------------------------------------------------------------




--------------------------------------- Iteration      1(  15)  ---------------------------------------


    POTLOK:  cpu time    0.0571: real time    0.0574
    SETDIJ:  cpu time    0.0397: real time    0.0397
     EDDAV:  cpu time   19.4604: real time   19.4614
       DOS:  cpu time    0.0039: real time    0.0039
    --------------------------------------------
      LOOP:  cpu time   19.5611: real time   19.5624

 eigenvalue-minimisations  :  9472
 total energy-change (2. order) :-0.1686203E-08  (-0.4020034E-10)
 number of electron     255.9999995 magnetization 
 augmentation part        5.9144817 magnetization 

 Free energy of the ion-electron system (eV)
  ---------------------------------------------------
  alpha Z        PSCENC =       902.89574185
  Ewald energy   TEWEN  =    -11062.07651133
  -Hartree energ DENC   =      -855.96776534
  -exchange      EXHF   =         0.00000000
  -V(xc)+E(xc)   XCENC  =       937.54248605
  PAW double counting   =      4147.82475049    -4228.46870435
  entropy T*S    EENTRO =        -0.00000000
  eigenvalues    EBANDS =       161.97414155
  atomic energy  EATOM  =      9416.14232778
  Solvation  Ediel_sol  =         0.00000000
  ---------------------------------------------------
  free energy    TOTEN  =      -580.13353330 eV

  energy without entropy =     -580.13353330  energy(sigma->0) =     -580.13353330


--------------------------------------------------------------------------------------------------------




 average (electrostatic) potential at core
  the test charge radii are     0.6991
  (the norm of the test charge is              1.0000)
       1 -45.6405       2 -45.6405       3 -45.6405       4 -45.6405       5 -45.6405
       6 -45.6405       7 -45.6405       8 -45.6405       9 -45.6405      10 -45.6405
      11 -45.6405      12 -45.6405      13 -45.6405      14 -45.6405      15 -45.6405
      16 -45.6405      17 -45.6405      18 -45.6405      19 -45.6405      20 -45.6405
      21 -45.6405      22 -45.6405      23 -45.6405      24 -45.6405      25 -45.6405
      26 -45.6405      27 -45.6405      28 -45.6405      29 -45.6405      30 -45.6405
      31 -45.6405      32 -45.6405      33 -45.6405      34 -45.6405      35 -45.6405
      36 -45.6405      37 -45.6405      38 -45.6405      39 -45.6405      40 -45.6405
      41 -45.6405      42 -45.6405      43 -45.6405      44 -45.6405      45 -45.6405
      46 -45.6405      47 -45.6405      48 -45.6405      49 -45.6405      50 -45.6405
      51 -45.6405      52 -45.6405      53 -45.6405      54 -45.6405      55 -45.6405
      56 -45.6405      57 -45.6405      58 -45.6405      59 -45.6405      60 -45.6405
      61 -45.6405      62 -45.6405      63 -45.6405      64 -45.6405
 
 
 
 E-fermi :   9.7792     XC(G=0): -13.1324     alpha+bet :-17.3818


 k-point     1 :       0.0000    0.0000    0.0000
  band No.  band energies     occupation 
      1     -11.7502      2.00000
      2      -9.4949      2.00000
      3      -9.4949      2.00000
      4      -9.4949      2.00000
      5      -9.4949      2.00000
      6      -9.4949      2.00000
      7      -9.4949      2.00000
      8      -7.5006      2.00000
      9      -7.5006      2.00000
     10      -7.5006      2.00000
     11      -7.5006      2.00000
     12      -7.5006      2.00000
     13      -7.5006      2.00000
     14      -7.1914      2.00000
     15      -7.1914      2.00000
     16      -7.1914      2.00000
     17      -7.1914      2.00000
     18      -7.1914      2.00000
     19      -7.1914      2.00000
     20      -6.2932      2.00000
     21      -6.2932      2.00000
     22      -6.2932      2.00000
     23      -5.4145      2.00000
     24      -3.7367      2.00000
     25      -3.6654      2.00000
     26      -3.6654      2.00000
     27      -3.6654      2.00000
     28      -3.3406      2.00000
     29      -3.3406      2.00000
     30      -3.3406      2.00000
     31      -2.9658      2.00000
     32      -2.9658      2.00000
     33      -2.9658      2.00000
     34      -2.7807      2.00000
     35      -2.7807      2.00000
     36      -2.7807      2.00000
     37      -2.7807      2.00000
     38      -2.7807      2.00000
     39      -2.7807      2.00000
     40      -1.9946      2.00000
     41      -1.9946      2.00000
     42      -1.9946      2.00000
     43      -1.9946      2.00000
     44      -1.9946      2.00000
     45      -1.9946      2.00000
     46       0.7329      2.00000
     47       0.7329      2.00000
     48       0.7329      2.00000
     49       0.7329      2.00000
     50       0.7329      2.00000
     51       0.7329      2.00000
     52       0.9849      2.00000
     53       0.9849      2.00000
     54       0.9849      2.00000
     55       0.9849      2.00000
     56       0.9849      2.00000
     57       0.9849      2.00000
     58       1.3404      2.00000
     59       1.3404      2.00000
     60       1.3404      2.00000
     61       1.3404      2.00000
     62       1.3404      2.00000
     63       1.3404      2.00000
     64       1.3415      2.00000
     65       1.3415      2.00000
     66       1.3415      2.00000
     67       1.3415      2.00000
     68       1.3415      2.00000
     69       1.3415      2.00000
     70       1.9054      2.00000
     71       1.9054      2.00000
     72       1.9054      2.00000
     73       1.9054      2.00000
     74       1.9055      2.00000
     75       1.9055      2.00000
     76       2.1765      2.00000
     77       2.1765      2.00000
[...]
      4.272100  0.702880  6.276668    -0.108005    0.104813   -0.000000  
      0.574401  4.291263  6.276668    -0.108005    0.104813   -0.000000  
      4.164400  4.291263  6.276668    -0.108005    0.104813   -0.000000  
     -0.053850  1.794192  0.000000    -0.126430    0.122693   -0.000000  
      3.536150  1.794192  0.000000    -0.126430    0.122693   -0.000000  
     -0.161550  5.382575  0.000000    -0.126430    0.122693   -0.000000  
      3.428450  5.382575  0.000000    -0.126430    0.122693   -0.000000  
     -0.161550  1.683211  3.586667     0.126430   -0.122693    0.000000  
      3.428450  1.683211  3.586667     0.126430   -0.122693    0.000000  
     -0.269249  5.271594  3.586667     0.126430   -0.122693    0.000000  
      3.320750  5.271594  3.586667     0.126430   -0.122693    0.000000  
      2.530950  2.608052  2.690000     0.108005   -0.104813    0.000000  
      6.120949  2.608052  2.690000     0.108005   -0.104813    0.000000  
      2.423250  6.196435  2.690000     0.108005   -0.104813    0.000000  
      6.013250  6.196435  2.690000     0.108005   -0.104813    0.000000  
      2.423250  2.497071  6.276668    -0.108005    0.104813   -0.000000  
      6.013250  2.497071  6.276668    -0.108005    0.104813   -0.000000  
      2.315551  6.085454  6.276668    -0.108005    0.104813   -0.000000  
      5.905550  6.085454  6.276668    -0.108005    0.104813   -0.000000  
      1.795000  0.000000  0.000000    -0.126430    0.122693   -0.000000  
      5.384999  0.000000  0.000000    -0.126430    0.122693   -0.000000  
      1.687300  3.588383  0.000000    -0.126430    0.122693   -0.000000  
      5.277299  3.588383  0.000000    -0.126430    0.122693   -0.000000  
      1.687300 -0.110981  3.586667     0.126430   -0.122693    0.000000  
      5.277299 -0.110981  3.586667     0.126430   -0.122693    0.000000  
      1.579600  3.477402  3.586667     0.126430   -0.122693    0.000000  
      5.169600  3.477402  3.586667     0.126430   -0.122693    0.000000  
      2.638650  0.869351  0.896667    -0.066547    0.064580   -0.000000  
      6.228649  0.869351  0.896667    -0.066547    0.064580   -0.000000  
      2.530950  4.457734  0.896667    -0.066547    0.064580   -0.000000  
      6.120949  4.457734  0.896667    -0.066547    0.064580   -0.000000  
      2.530950  0.758370  4.483334     0.066547   -0.064580    0.000000  
      6.120949  0.758370  4.483334     0.066547   -0.064580    0.000000  
      2.423250  4.346753  4.483334     0.066547   -0.064580    0.000000  
      6.013250  4.346753  4.483334     0.066547   -0.064580    0.000000  
      1.687300  1.738701  1.793334     0.010442   -0.010134   -0.000000  
      5.277299  1.738701  1.793334     0.010442   -0.010134   -0.000000  
      1.579600  5.327084  1.793334     0.010442   -0.010134   -0.000000  
      5.169600  5.327084  1.793334     0.010442   -0.010134   -0.000000  
      1.579600  1.627721  5.380001    -0.010442    0.010134    0.000000  
      5.169600  1.627721  5.380001    -0.010442    0.010134    0.000000  
      1.471901  5.216104  5.380001    -0.010442    0.010134    0.000000  
      5.061900  5.216104  5.380001    -0.010442    0.010134    0.000000  
 
 190 f  =    0.000003 THz     0.000016 2PiTHz    0.000086 cm-1     0.000011 meV
             X         Y         Z           dx          dy          dz
      0.789800  2.663542  0.896667     0.016114    0.021441    0.122089  
      4.379800  2.663542  0.896667     0.016114    0.021441    0.122089  
      0.682100  6.251925  0.896667     0.016114    0.021441    0.122089  
      4.272100  6.251925  0.896667     0.016114    0.021441    0.122089  
      0.682100  2.552562  4.483334     0.016114    0.021441    0.122089  
      4.272100  2.552562  4.483334     0.016114    0.021441    0.122089  
      0.574401  6.140945  4.483334     0.016114    0.021441    0.122089  
      4.164400  6.140945  4.483334     0.016114    0.021441    0.122089  
     -0.053850 -0.055490  1.793334     0.016114    0.021441    0.122089  
      3.536150 -0.055490  1.793334     0.016114    0.021441    0.122089  
     -0.161550  3.532893  1.793334     0.016114    0.021441    0.122089  
      3.428450  3.532893  1.793334     0.016114    0.021441    0.122089  
     -0.161550 -0.166471  5.380001     0.016114    0.021441    0.122089  
      3.428450 -0.166471  5.380001     0.016114    0.021441    0.122089  
     -0.269249  3.421912  5.380001     0.016114    0.021441    0.122089  
      3.320750  3.421912  5.380001     0.016114    0.021441    0.122089  
      0.789800  0.813860  2.690000     0.016114    0.021441    0.122089  
      4.379800  0.813860  2.690000     0.016114    0.021441    0.122089  
      0.682100  4.402243  2.690000     0.016114    0.021441    0.122089  
      4.272100  4.402243  2.690000     0.016114    0.021441    0.122089  
      0.682100  0.702880  6.276668     0.016114    0.021441    0.122089  
      4.272100  0.702880  6.276668     0.016114    0.021441    0.122089  
      0.574401  4.291263  6.276668     0.016114    0.021441    0.122089  
      4.164400  4.291263  6.276668     0.016114    0.021441    0.122089  
     -0.053850  1.794192  0.000000     0.016114    0.021441    0.122089  
      3.536150  1.794192  0.000000     0.016114    0.021441    0.122089  
     -0.161550  5.382575  0.000000     0.016114    0.021441    0.122089  
      3.428450  5.382575  0.000000     0.016114    0.021441    0.122089  
     -0.161550  1.683211  3.586667     0.016114    0.021441    0.122089  
      3.428450  1.683211  3.586667     0.016114    0.021441    0.122089  
     -0.269249  5.271594  3.586667     0.016114    0.021441    0.122089  
      3.320750  5.271594  3.586667     0.016114    0.021441    0.122089  
      2.530950  2.608052  2.690000     0.016114    0.021441    0.122089  
      6.120949  2.608052  2.690000     0.016114    0.021441    0.122089  
      2.423250  6.196435  2.690000     0.016114    0.021441    0.122089  
      6.013250  6.196435  2.690000     0.016114    0.021441    0.122089  
      2.423250  2.497071  6.276668     0.016114    0.021441    0.122089  
      6.013250  2.497071  6.276668     0.016114    0.021441    0.122089  
      2.315551  6.085454  6.276668     0.016114    0.021441    0.122089  
      5.905550  6.085454  6.276668     0.016114    0.021441    0.122089  
      1.795000  0.000000  0.000000     0.016114    0.021441    0.122089  
      5.384999  0.000000  0.000000     0.016114    0.021441    0.122089  
      1.687300  3.588383  0.000000     0.016114    0.021441    0.122089  
      5.277299  3.588383  0.000000     0.016114    0.021441    0.122089  
      1.687300 -0.110981  3.586667     0.016114    0.021441    0.122089  
      5.277299 -0.110981  3.586667     0.016114    0.021441    0.122089  
      1.579600  3.477402  3.586667     0.016114    0.021441    0.122089  
      5.169600  3.477402  3.586667     0.016114    0.021441    0.122089  
      2.638650  0.869351  0.896667     0.016114    0.021441    0.122089  
      6.228649  0.869351  0.896667     0.016114    0.021441    0.122089  
      2.530950  4.457734  0.896667     0.016114    0.021441    0.122089  
      6.120949  4.457734  0.896667     0.016114    0.021441    0.122089  
      2.530950  0.758370  4.483334     0.016114    0.021441    0.122089  
      6.120949  0.758370  4.483334     0.016114    0.021441    0.122089  
      2.423250  4.346753  4.483334     0.016114    0.021441    0.122089  
      6.013250  4.346753  4.483334     0.016114    0.021441    0.122089  
      1.687300  1.738701  1.793334     0.016114    0.021441    0.122089  
      5.277299  1.738701  1.793334     0.016114    0.021441    0.122089  
      1.579600  5.327084  1.793334     0.016114    0.021441    0.122089  
      5.169600  5.327084  1.793334     0.016114    0.021441    0.122089  
      1.579600  1.627721  5.380001     0.016114    0.021441    0.122089  
      5.169600  1.627721  5.380001     0.016114    0.021441    0.122089  
      1.471901  5.216104  5.380001     0.016114    0.021441    0.122089  
      5.061900  5.216104  5.380001     0.016114    0.021441    0.122089  
 
 191 f  =    0.000002 THz     0.000013 2PiTHz    0.000068 cm-1     0.000008 meV
             X         Y         Z           dx          dy          dz
      0.789800  2.663542  0.896667    -0.014311   -0.121971    0.023309  
      4.379800  2.663542  0.896667    -0.014311   -0.121971    0.023309  
      0.682100  6.251925  0.896667    -0.014311   -0.121971    0.023309  
      4.272100  6.251925  0.896667    -0.014311   -0.121971    0.023309  
      0.682100  2.552562  4.483334    -0.014311   -0.121971    0.023309  
      4.272100  2.552562  4.483334    -0.014311   -0.121971    0.023309  
      0.574401  6.140945  4.483334    -0.014311   -0.121971    0.023309  
      4.164400  6.140945  4.483334    -0.014311   -0.121971    0.023309  
     -0.053850 -0.055490  1.793334    -0.014311   -0.121971    0.023309  
      3.536150 -0.055490  1.793334    -0.014311   -0.121971    0.023309  
     -0.161550  3.532893  1.793334    -0.014311   -0.121971    0.023309  
      3.428450  3.532893  1.793334    -0.014311   -0.121971    0.023309  
     -0.161550 -0.166471  5.380001    -0.014311   -0.121971    0.023309  
      3.428450 -0.166471  5.380001    -0.014311   -0.121971    0.023309  
     -0.269249  3.421912  5.380001    -0.014311   -0.121971    0.023309  
      3.320750  3.421912  5.380001    -0.014311   -0.121971    0.023309  
      0.789800  0.813860  2.690000    -0.014311   -0.121971    0.023309  
      4.379800  0.813860  2.690000    -0.014311   -0.121971    0.023309  
      0.682100  4.402243  2.690000    -0.014311   -0.121971    0.023309  
      4.272100  4.402243  2.690000    -0.014311   -0.121971    0.023309  
      0.682100  0.702880  6.276668    -0.014311   -0.121971    0.023309  
      4.272100  0.702880  6.276668    -0.014311   -0.121971    0.023309  
      0.574401  4.291263  6.276668    -0.014311   -0.121971    0.023309  
      4.164400  4.291263  6.276668    -0.014311   -0.121971    0.023309  
     -0.053850  1.794192  0.000000    -0.014311   -0.121971    0.023309  
      3.536150  1.794192  0.000000    -0.014311   -0.121971    0.023309  
     -0.161550  5.382575  0.000000    -0.014311   -0.121971    0.023309  
      3.428450  5.382575  0.000000    -0.014311   -0.121971    0.023309  
     -0.161550  1.683211  3.586667    -0.014311   -0.121971    0.023309  
      3.428450  1.683211  3.586667    -0.014311   -0.121971    0.023309  
     -0.269249  5.271594  3.586667    -0.014311   -0.121971    0.023309  
      3.320750  5.271594  3.586667    -0.014311   -0.121971    0.023309  
      2.530950  2.608052  2.690000    -0.014311   -0.121971    0.023309  
      6.120949  2.608052  2.690000    -0.014311   -0.121971    0.023309  
      2.423250  6.196435  2.690000    -0.014311   -0.121971    0.023309  
      6.013250  6.196435  2.690000    -0.014311   -0.121971    0.023309  
      2.423250  2.497071  6.276668    -0.014311   -0.121971    0.023309  
      6.013250  2.497071  6.276668    -0.014311   -0.121971    0.023309  
      2.315551  6.085454  6.276668    -0.014311   -0.121971    0.023309  
      5.905550  6.085454  6.276668    -0.014311   -0.121971    0.023309  
      1.795000  0.000000  0.000000    -0.014311   -0.121971    0.023309  
      5.384999  0.000000  0.000000    -0.014311   -0.121971    0.023309  
      1.687300  3.588383  0.000000    -0.014311   -0.121971    0.023309  
      5.277299  3.588383  0.000000    -0.014311   -0.121971    0.023309  
      1.687300 -0.110981  3.586667    -0.014311   -0.121971    0.023309  
      5.277299 -0.110981  3.586667    -0.014311   -0.121971    0.023309  
      1.579600  3.477402  3.586667    -0.014311   -0.121971    0.023309  
      5.169600  3.477402  3.586667    -0.014311   -0.121971    0.023309  
      2.638650  0.869351  0.896667    -0.014311   -0.121971    0.023309  
      6.228649  0.869351  0.896667    -0.014311   -0.121971    0.023309  
      2.530950  4.457734  0.896667    -0.014311   -0.121971    0.023309  
      6.120949  4.457734  0.896667    -0.014311   -0.121971    0.023309  
      2.530950  0.758370  4.483334    -0.014311   -0.121971    0.023309  
      6.120949  0.758370  4.483334    -0.014311   -0.121971    0.023309  
      2.423250  4.346753  4.483334    -0.014311   -0.121971    0.023309  
      6.013250  4.346753  4.483334    -0.014311   -0.121971    0.023309  
      1.687300  1.738701  1.793334    -0.014311   -0.121971    0.023309  
      5.277299  1.738701  1.793334    -0.014311   -0.121971    0.023309  
      1.579600  5.327084  1.793334    -0.014311   -0.121971    0.023309  
      5.169600  5.327084  1.793334    -0.014311   -0.121971    0.023309  
      1.579600  1.627721  5.380001    -0.014311   -0.121971    0.023309  
      5.169600  1.627721  5.380001    -0.014311   -0.121971    0.023309  
      1.471901  5.216104  5.380001    -0.014311   -0.121971    0.023309  
      5.061900  5.216104  5.380001    -0.014311   -0.121971    0.023309  
 
 192 f/i=    0.000000 THz     0.000001 2PiTHz    0.000007 cm-1     0.000001 meV
             X         Y         Z           dx          dy          dz
      0.789800  2.663542  0.896667     0.123128   -0.016983   -0.013269  
      4.379800  2.663542  0.896667     0.123128   -0.016983   -0.013269  
      0.682100  6.251925  0.896667     0.123128   -0.016983   -0.013269  
      4.272100  6.251925  0.896667     0.123128   -0.016983   -0.013269  
      0.682100  2.552562  4.483334     0.123128   -0.016983   -0.013269  
      4.272100  2.552562  4.483334     0.123128   -0.016983   -0.013269  
      0.574401  6.140945  4.483334     0.123128   -0.016983   -0.013269  
      4.164400  6.140945  4.483334     0.123128   -0.016983   -0.013269  
     -0.053850 -0.055490  1.793334     0.123128   -0.016983   -0.013269  
      3.536150 -0.055490  1.793334     0.123128   -0.016983   -0.013269  
     -0.161550  3.532893  1.793334     0.123128   -0.016983   -0.013269  
      3.428450  3.532893  1.793334     0.123128   -0.016983   -0.013269  
     -0.161550 -0.166471  5.380001     0.123128   -0.016983   -0.013269  
      3.428450 -0.166471  5.380001     0.123128   -0.016983   -0.013269  
     -0.269249  3.421912  5.380001     0.123128   -0.016983   -0.013269  
      3.320750  3.421912  5.380001     0.123128   -0.016983   -0.013269  
      0.789800  0.813860  2.690000     0.123128   -0.016983   -0.013269  
      4.379800  0.813860  2.690000     0.123128   -0.016983   -0.013269  
      0.682100  4.402243  2.690000     0.123128   -0.016983   -0.013269  
      4.272100  4.402243  2.690000     0.123128   -0.016983   -0.013269  
      0.682100  0.702880  6.276668     0.123128   -0.016983   -0.013269  
      4.272100  0.702880  6.276668     0.123128   -0.016983   -0.013269  
      0.574401  4.291263  6.276668     0.123128   -0.016983   -0.013269  
      4.164400  4.291263  6.276668     0.123128   -0.016983   -0.013269  
     -0.053850  1.794192  0.000000     0.123128   -0.016983   -0.013269  
      3.536150  1.794192  0.000000     0.123128   -0.016983   -0.013269  
     -0.161550  5.382575  0.000000     0.123128   -0.016983   -0.013269  
      3.428450  5.382575  0.000000     0.123128   -0.016983   -0.013269  
     -0.161550  1.683211  3.586667     0.123128   -0.016983   -0.013269  
      3.428450  1.683211  3.586667     0.123128   -0.016983   -0.013269  
     -0.269249  5.271594  3.586667     0.123128   -0.016983   -0.013269  
      3.320750  5.271594  3.586667     0.123128   -0.016983   -0.013269  
      2.530950  2.608052  2.690000     0.123128   -0.016983   -0.013269  
      6.120949  2.608052  2.690000     0.123128   -0.016983   -0.013269  
      2.423250  6.196435  2.690000     0.123128   -0.016983   -0.013269  
      6.013250  6.196435  2.690000     0.123128   -0.016983   -0.013269  
      2.423250  2.497071  6.276668     0.123128   -0.016983   -0.013269  
      6.013250  2.497071  6.276668     0.123128   -0.016983   -0.013269  
      2.315551  6.085454  6.276668     0.123128   -0.016983   -0.013269  
      5.905550  6.085454  6.276668     0.123128   -0.016983   -0.013269  
      1.795000  0.000000  0.000000     0.123128   -0.016983   -0.013269  
      5.384999  0.000000  0.000000     0.123128   -0.016983   -0.013269  
      1.687300  3.588383  0.000000     0.123128   -0.016983   -0.013269  
      5.277299  3.588383  0.000000     0.123128   -0.016983   -0.013269  
      1.687300 -0.110981  3.586667     0.123128   -0.016983   -0.013269  
      5.277299 -0.110981  3.586667     0.123128   -0.016983   -0.013269  
      1.579600  3.477402  3.586667     0.123128   -0.016983   -0.013269  
      5.169600  3.477402  3.586667     0.123128   -0.016983   -0.013269  
      2.638650  0.869351  0.896667     0.123128   -0.016983   -0.013269  
      6.228649  0.869351  0.896667     0.123128   -0.016983   -0.013269  
      2.530950  4.457734  0.896667     0.123128   -0.016983   -0.013269  
      6.120949  4.457734  0.896667     0.123128   -0.016983   -0.013269  
      2.530950  0.758370  4.483334     0.123128   -0.016983   -0.013269  
      6.120949  0.758370  4.483334     0.123128   -0.016983   -0.013269  
      2.423250  4.346753  4.483334     0.123128   -0.016983   -0.013269  
      6.013250  4.346753  4.483334     0.123128   -0.016983   -0.013269  
      1.687300  1.738701  1.793334     0.123128   -0.016983   -0.013269  
      5.277299  1.738701  1.793334     0.123128   -0.016983   -0.013269  
      1.579600  5.327084  1.793334     0.123128   -0.016983   -0.013269  
      5.169600  5.327084  1.793334     0.123128   -0.016983   -0.013269  
      1.579600  1.627721  5.380001     0.123128   -0.016983   -0.013269  
      5.169600  1.627721  5.380001     0.123128   -0.016983   -0.013269  
      1.471901  5.216104  5.380001     0.123128   -0.016983   -0.013269  
      5.061900  5.216104  5.380001     0.123128   -0.016983   -0.013269  
 


--------------------------------------------------------------------------------------------------------



 ELASTIC MODULI CONTR FROM IONIC RELAXATION (kBar)
 Direction    XX          YY          ZZ          XY          YZ          ZX
 --------------------------------------------------------------------------------
 XX         -24.2585    -26.2496    -28.6937    -36.8959    -39.4932    -38.0577
 YY         -26.2496    -28.8930    -31.3528    -40.3118    -42.8360    -41.8398
 ZZ         -28.6937    -31.3528    -34.4410    -44.2987    -46.8129    -45.4268
 XY         -36.8959    -40.3118    -44.2987    -56.9786    -60.1956    -58.4078
 YZ         -39.4932    -42.8360    -46.8129    -60.1956    -64.3206    -62.0950
 ZX         -38.0577    -41.8398    -45.4268    -58.4078    -62.0950    -60.5932
 --------------------------------------------------------------------------------



--------------------------------------------------------------------------------------------------------


     LOOP+:  cpu time 1286.3283: real time 1286.6385
    4ORBIT:  cpu time    0.0000: real time    0.0000

 total amount of memory used by VASP MPI-rank0    83596. kBytes
=======================================================================

   base      :      30000. kBytes
   nonl-proj :      20742. kBytes
   fftplans  :       4537. kBytes
   grid      :       5806. kBytes
   one-center:        196. kBytes
   wavefun   :      22315. kBytes
 
  
  
 General timing and accounting informations for this job:
 ========================================================
  
                  Total CPU time used (sec):     1299.128
                            User time (sec):     1291.740
                          System time (sec):        7.388
                         Elapsed time (sec):     1299.736
  
                   Maximum memory used (kb):      432512.
                   Average memory used (kb):           0.
  
                          Minor page faults:        39334
                          Major page faults:           36
                 Voluntary context switches:          848
