# Thermal properties / unit cell (natom)

unit:
  temperature:   K
  free_energy:   kJ/mol
  entropy:       J/K/mol
  heat_capacity: J/K/mol

natom: 8    
cutoff_frequency:    0.000
num_modes: 2654208
num_integrated_modes: 2654208

zero_point_energy:     136.4043683
high_T_entropy:        436.5508209

thermal_properties:
- temperature:         0.0000000
  free_energy:       136.4043683
  entropy:             0.0000000
  heat_capacity:       0.0000000
  energy:            136.4043683

- temperature:         2.0000000
  free_energy:       136.4043683
  entropy:             0.0000000
  heat_capacity:       0.0000000
  energy:            136.4043683

- temperature:         4.0000000
  free_energy:       136.4043683
  entropy:             0.0000094
  heat_capacity:       0.0000580
  energy:            136.4043683

- temperature:         6.0000000
  free_energy:       136.4043682
  entropy:             0.0000746
  heat_capacity:       0.0003176
  energy:            136.4043686

- temperature:         8.0000000
  free_energy:       136.4043679
  entropy:             0.0002275
  heat_capacity:       0.0008122
  energy:            136.4043697

- temperature:        10.0000000
  free_energy:       136.4043672
  entropy:             0.0004878
  heat_capacity:       0.0016074
  energy:            136.4043721

- temperature:        12.0000000
  free_energy:       136.4043659
  entropy:             0.0008786
  heat_capacity:       0.0027861
  energy:            136.4043764

- temperature:        14.0000000
  free_energy:       136.4043636
  entropy:             0.0014251
  heat_capacity:       0.0044306
  energy:            136.4043836

- temperature:        16.0000000
  free_energy:       136.4043601
  entropy:             0.0021532
  heat_capacity:       0.0066218
  energy:            136.4043945

- temperature:        18.0000000
  free_energy:       136.4043548
  entropy:             0.0030894
  heat_capacity:       0.0094408
  energy:            136.4044105

- temperature:        20.0000000
  free_energy:       136.4043475
  entropy:             0.0042601
  heat_capacity:       0.0129697
  energy:            136.4044327

- temperature:        22.0000000
  free_energy:       136.4043376
  entropy:             0.0056923
  heat_capacity:       0.0172914
  energy:            136.4044629

- temperature:        24.0000000
  free_energy:       136.4043246
  entropy:             0.0074131
  heat_capacity:       0.0224904
  energy:            136.4045025

- temperature:        26.0000000
  free_energy:       136.4043078
  entropy:             0.0094499
  heat_capacity:       0.0286528
  energy:            136.4045535

- temperature:        28.0000000
  free_energy:       136.4042865
  entropy:             0.0118305
  heat_capacity:       0.0358667
  energy:            136.4046178

- temperature:        30.0000000
  free_energy:       136.4042602
  entropy:             0.0145832
  heat_capacity:       0.0442223
  energy:            136.4046977

- temperature:        32.0000000
  free_energy:       136.4042279
  entropy:             0.0177365
  heat_capacity:       0.0538123
  energy:            136.4047955

- temperature:        34.0000000
  free_energy:       136.4041890
  entropy:             0.0213195
  heat_capacity:       0.0647325
  energy:            136.4049138

- temperature:        36.0000000
  free_energy:       136.4041424
  entropy:             0.0253620
  heat_capacity:       0.0770819
  energy:            136.4050554

- temperature:        38.0000000
  free_energy:       136.4040872
  entropy:             0.0298944
  heat_capacity:       0.0909634
  energy:            136.4052232

- temperature:        40.0000000
  free_energy:       136.4040224
  entropy:             0.0349476
  heat_capacity:       0.1064846
  energy:            136.4054203

- temperature:        42.0000000
  free_energy:       136.4039470
  entropy:             0.0405536
  heat_capacity:       0.1237584
  energy:            136.4056503

- temperature:        44.0000000
  free_energy:       136.4038598
  entropy:             0.0467453
  heat_capacity:       0.1429035
  energy:            136.4059166

- temperature:        46.0000000
  free_energy:       136.4037596
  entropy:             0.0535564
  heat_capacity:       0.1640459
  energy:            136.4062232

- temperature:        48.0000000
  free_energy:       136.4036452
  entropy:             0.0610220
  heat_capacity:       0.1873194
  energy:            136.4065742

- temperature:        50.0000000
  free_energy:       136.4035151
  entropy:             0.0691787
  heat_capacity:       0.2128664
  energy:            136.4069740

- temperature:        52.0000000
  free_energy:       136.4033680
  entropy:             0.0780642
  heat_capacity:       0.2408387
  energy:            136.4074273

- temperature:        54.0000000
  free_energy:       136.4032023
  entropy:             0.0877182
  heat_capacity:       0.2713983
  energy:            136.4079391

- temperature:        56.0000000
  free_energy:       136.4030166
  entropy:             0.0981819
  heat_capacity:       0.3047177
  energy:            136.4085147

- temperature:        58.0000000
  free_energy:       136.4028090
  entropy:             0.1094985
  heat_capacity:       0.3409800
  energy:            136.4091599

- temperature:        60.0000000
  free_energy:       136.4025780
  entropy:             0.1217131
  heat_capacity:       0.3803790
  energy:            136.4098808

- temperature:        62.0000000
  free_energy:       136.4023215
  entropy:             0.1348732
  heat_capacity:       0.4231188
  energy:            136.4106837

- temperature:        64.0000000
  free_energy:       136.4020378
  entropy:             0.1490280
  heat_capacity:       0.4694134
  energy:            136.4115756

- temperature:        66.0000000
  free_energy:       136.4017247
  entropy:             0.1642291
  heat_capacity:       0.5194856
  energy:            136.4125639

- temperature:        68.0000000
  free_energy:       136.4013802
  entropy:             0.1805302
  heat_capacity:       0.5735663
  energy:            136.4136562

- temperature:        70.0000000
  free_energy:       136.4010018
  entropy:             0.1979872
  heat_capacity:       0.6318932
  energy:            136.4148609

- temperature:        72.0000000
  free_energy:       136.4005874
  entropy:             0.2166580
  heat_capacity:       0.6947093
  energy:            136.4161868

- temperature:        74.0000000
  free_energy:       136.4001344
  entropy:             0.2366024
  heat_capacity:       0.7622617
  energy:            136.4176429

- temperature:        76.0000000
  free_energy:       136.3996401
  entropy:             0.2578822
  heat_capacity:       0.8347997
  energy:            136.4192392

- temperature:        78.0000000
  free_energy:       136.3991019
  entropy:             0.2805607
  heat_capacity:       0.9125738
  energy:            136.4209856

- temperature:        80.0000000
  free_energy:       136.3985169
  entropy:             0.3047027
  heat_capacity:       0.9958337
  energy:            136.4228931

- temperature:        82.0000000
  free_energy:       136.3978821
  entropy:             0.3303746
  heat_capacity:       1.0848269
  energy:            136.4249728

- temperature:        84.0000000
  free_energy:       136.3971943
  entropy:             0.3576437
  heat_capacity:       1.1797974
  energy:            136.4272364

- temperature:        86.0000000
  free_energy:       136.3964504
  entropy:             0.3865784
  heat_capacity:       1.2809842
  energy:            136.4296961

- temperature:        88.0000000
  free_energy:       136.3956469
  entropy:             0.4172475
  heat_capacity:       1.3886201
  energy:            136.4323646

- temperature:        90.0000000
  free_energy:       136.3947802
  entropy:             0.4497207
  heat_capacity:       1.5029308
  energy:            136.4352551

- temperature:        92.0000000
  free_energy:       136.3938467
  entropy:             0.4840677
  heat_capacity:       1.6241334
  energy:            136.4383810

- temperature:        94.0000000
  free_energy:       136.3928426
  entropy:             0.5203585
  heat_capacity:       1.7524360
  energy:            136.4417563

- temperature:        96.0000000
  free_energy:       136.3917639
  entropy:             0.5586627
  heat_capacity:       1.8880370
  energy:            136.4453956

- temperature:        98.0000000
  free_energy:       136.3906066
  entropy:             0.5990497
  heat_capacity:       2.0311241
  energy:            136.4493135

- temperature:       100.0000000
  free_energy:       136.3893663
  entropy:             0.6415885
  heat_capacity:       2.1818741
  energy:            136.4535252

- temperature:       102.0000000
  free_energy:       136.3880388
  entropy:             0.6863473
  heat_capacity:       2.3404526
  energy:            136.4580462

- temperature:       104.0000000
  free_energy:       136.3866194
  entropy:             0.7333933
  heat_capacity:       2.5070137
  energy:            136.4628923

- temperature:       106.0000000
  free_energy:       136.3851036
  entropy:             0.7827928
  heat_capacity:       2.6816998
  energy:            136.4680796

- temperature:       108.0000000
  free_energy:       136.3834866
  entropy:             0.8346110
  heat_capacity:       2.8646417
  energy:            136.4736246

- temperature:       110.0000000
  free_energy:       136.3817635
  entropy:             0.8889117
  heat_capacity:       3.0559584
  energy:            136.4795438

- temperature:       112.0000000
  free_energy:       136.3799293
  entropy:             0.9457573
  heat_capacity:       3.2557576
  energy:            136.4858541

- temperature:       114.0000000
  free_energy:       136.3779787
  entropy:             1.0052088
  heat_capacity:       3.4641355
  energy:            136.4925725

- temperature:       116.0000000
  free_energy:       136.3759067
  entropy:             1.0673254
  heat_capacity:       3.6811771
  energy:            136.4997164

- temperature:       118.0000000
  free_energy:       136.3737076
  entropy:             1.1321649
  heat_capacity:       3.9069567
  energy:            136.5073031

- temperature:       120.0000000
  free_energy:       136.3713761
  entropy:             1.1997830
  heat_capacity:       4.1415380
  energy:            136.5153501

- temperature:       122.0000000
  free_energy:       136.3689066
  entropy:             1.2702339
  heat_capacity:       4.3849742
  energy:            136.5238751

- temperature:       124.0000000
  free_energy:       136.3662933
  entropy:             1.3435697
  heat_capacity:       4.6373090
  energy:            136.5328959

- temperature:       126.0000000
  free_energy:       136.3635304
  entropy:             1.4198409
  heat_capacity:       4.8985762
  energy:            136.5424303

- temperature:       128.0000000
  free_energy:       136.3606119
  entropy:             1.4990959
  heat_capacity:       5.1688005
  energy:            136.5524962

- temperature:       130.0000000
  free_energy:       136.3575320
  entropy:             1.5813811
  heat_capacity:       5.4479979
  energy:            136.5631115

- temperature:       132.0000000
  free_energy:       136.3542844
  entropy:             1.6667411
  heat_capacity:       5.7361755
  energy:            136.5742942

- temperature:       134.0000000
  free_energy:       136.3508629
  entropy:             1.7552185
  heat_capacity:       6.0333328
  energy:            136.5860622

- temperature:       136.0000000
  free_energy:       136.3472614
  entropy:             1.8468538
  heat_capacity:       6.3394612
  energy:            136.5984335

- temperature:       138.0000000
  free_energy:       136.3434734
  entropy:             1.9416858
  heat_capacity:       6.6545447
  energy:            136.6114260

- temperature:       140.0000000
  free_energy:       136.3394925
  entropy:             2.0397511
  heat_capacity:       6.9785600
  energy:            136.6250576

- temperature:       142.0000000
  free_energy:       136.3353122
  entropy:             2.1410845
  heat_capacity:       7.3114774
  energy:            136.6393462

- temperature:       144.0000000
  free_energy:       136.3309259
  entropy:             2.2457188
  heat_capacity:       7.6532603
  energy:            136.6543095

- temperature:       146.0000000
  free_energy:       136.3263271
  entropy:             2.3536850
  heat_capacity:       8.0038660
  energy:            136.6699651

- temperature:       148.0000000
  free_energy:       136.3215090
  entropy:             2.4650122
  heat_capacity:       8.3632458
  energy:            136.6863308

- temperature:       150.0000000
  free_energy:       136.3164648
  entropy:             2.5797275
  heat_capacity:       8.7313455
  energy:            136.7034239

- temperature:       152.0000000
  free_energy:       136.3111878
  entropy:             2.6978562
  heat_capacity:       9.1081052
  energy:            136.7212619

- temperature:       154.0000000
  free_energy:       136.3056711
  entropy:             2.8194220
  heat_capacity:       9.4934598
  energy:            136.7398621

- temperature:       156.0000000
  free_energy:       136.2999078
  entropy:             2.9444466
  heat_capacity:       9.8873395
  energy:            136.7592414

- temperature:       158.0000000
  free_energy:       136.2938910
  entropy:             3.0729499
  heat_capacity:      10.2896693
  energy:            136.7794171

- temperature:       160.0000000
  free_energy:       136.2876137
  entropy:             3.2049503
  heat_capacity:      10.7003701
  energy:            136.8004057

- temperature:       162.0000000
  free_energy:       136.2810688
  entropy:             3.3404644
  heat_capacity:      11.1193581
  energy:            136.8222241

- temperature:       164.0000000
  free_energy:       136.2742494
  entropy:             3.4795071
  heat_capacity:      11.5465455
  energy:            136.8448886

- temperature:       166.0000000
  free_energy:       136.2671484
  entropy:             3.6220916
  heat_capacity:      11.9818403
  energy:            136.8684156

- temperature:       168.0000000
  free_energy:       136.2597587
  entropy:             3.7682298
  heat_capacity:      12.4251470
  energy:            136.8928213

- temperature:       170.0000000
  free_energy:       136.2520731
  entropy:             3.9179316
  heat_capacity:      12.8763661
  energy:            136.9181215

- temperature:       172.0000000
  free_energy:       136.2440846
  entropy:             4.0712057
  heat_capacity:      13.3353950
  energy:            136.9443320

- temperature:       174.0000000
  free_energy:       136.2357859
  entropy:             4.2280592
  heat_capacity:      13.8021274
  energy:            136.9714682

- temperature:       176.0000000
  free_energy:       136.2271700
  entropy:             4.3884976
  heat_capacity:      14.2764541
  energy:            136.9995455

- temperature:       178.0000000
  free_energy:       136.2182295
  entropy:             4.5525252
  heat_capacity:      14.7582629
  energy:            137.0285790

- temperature:       180.0000000
  free_energy:       136.2089575
  entropy:             4.7201446
  heat_capacity:      15.2474384
  energy:            137.0585835

- temperature:       182.0000000
  free_energy:       136.1993466
  entropy:             4.8913574
  heat_capacity:      15.7438630
  energy:            137.0895736

- temperature:       184.0000000
  free_energy:       136.1893897
  entropy:             5.0661634
  heat_capacity:      16.2474161
  energy:            137.1215637

- temperature:       186.0000000
  free_energy:       136.1790795
  entropy:             5.2445614
  heat_capacity:      16.7579749
  energy:            137.1545680

- temperature:       188.0000000
  free_energy:       136.1684090
  entropy:             5.4265489
  heat_capacity:      17.2754142
  energy:            137.1886002

- temperature:       190.0000000
  free_energy:       136.1573709
  entropy:             5.6121219
  heat_capacity:      17.7996069
  energy:            137.2236741

- temperature:       192.0000000
  free_energy:       136.1459581
  entropy:             5.8012756
  heat_capacity:      18.3304235
  energy:            137.2598030

- temperature:       194.0000000
  free_energy:       136.1341635
  entropy:             5.9940035
  heat_capacity:      18.8677329
  energy:            137.2970001

- temperature:       196.0000000
  free_energy:       136.1219797
  entropy:             6.1902983
  heat_capacity:      19.4114023
  energy:            137.3352782

- temperature:       198.0000000
  free_energy:       136.1093999
  entropy:             6.3901515
  heat_capacity:      19.9612972
  energy:            137.3746499

- temperature:       200.0000000
  free_energy:       136.0964168
  entropy:             6.5935535
  heat_capacity:      20.5172816
  energy:            137.4151275

- temperature:       202.0000000
  free_energy:       136.0830233
  entropy:             6.8004934
  heat_capacity:      21.0792183
  energy:            137.4567230

- temperature:       204.0000000
  free_energy:       136.0692124
  entropy:             7.0109596
  heat_capacity:      21.6469687
  energy:            137.4994482

- temperature:       206.0000000
  free_energy:       136.0549771
  entropy:             7.2249394
  heat_capacity:      22.2203934
  energy:            137.5433146

- temperature:       208.0000000
  free_energy:       136.0403104
  entropy:             7.4424188
  heat_capacity:      22.7993518
  energy:            137.5883335

- temperature:       210.0000000
  free_energy:       136.0252051
  entropy:             7.6633834
  heat_capacity:      23.3837027
  energy:            137.6345156

- temperature:       212.0000000
  free_energy:       136.0096545
  entropy:             7.8878173
  heat_capacity:      23.9733039
  energy:            137.6818718

- temperature:       214.0000000
  free_energy:       135.9936516
  entropy:             8.1157042
  heat_capacity:      24.5680130
  energy:            137.7304123

- temperature:       216.0000000
  free_energy:       135.9771894
  entropy:             8.3470266
  heat_capacity:      25.1676868
  energy:            137.7801472

- temperature:       218.0000000
  free_energy:       135.9602612
  entropy:             8.5817663
  heat_capacity:      25.7721820
  energy:            137.8310862

- temperature:       220.0000000
  free_energy:       135.9428601
  entropy:             8.8199042
  heat_capacity:      26.3813549
  energy:            137.8832390

- temperature:       222.0000000
  free_energy:       135.9249793
  entropy:             9.0614205
  heat_capacity:      26.9950619
  energy:            137.9366147

- temperature:       224.0000000
  free_energy:       135.9066122
  entropy:             9.3062947
  heat_capacity:      27.6131592
  energy:            137.9912222

- temperature:       226.0000000
  free_energy:       135.8877519
  entropy:             9.5545054
  heat_capacity:      28.2355032
  energy:            138.0470701

- temperature:       228.0000000
  free_energy:       135.8683919
  entropy:             9.8060307
  heat_capacity:      28.8619504
  energy:            138.1041669

- temperature:       230.0000000
  free_energy:       135.8485256
  entropy:            10.0608478
  heat_capacity:      29.4923578
  energy:            138.1625206

- temperature:       232.0000000
  free_energy:       135.8281464
  entropy:            10.3189334
  heat_capacity:      30.1265826
  energy:            138.2221389

- temperature:       234.0000000
  free_energy:       135.8072477
  entropy:            10.5802635
  heat_capacity:      30.7644827
  energy:            138.2830294

- temperature:       236.0000000
  free_energy:       135.7858232
  entropy:            10.8448137
  heat_capacity:      31.4059165
  energy:            138.3451992

- temperature:       238.0000000
  free_energy:       135.7638663
  entropy:            11.1125587
  heat_capacity:      32.0507431
  energy:            138.4086553

- temperature:       240.0000000
  free_energy:       135.7413708
  entropy:            11.3834730
  heat_capacity:      32.6988224
  energy:            138.4734043

- temperature:       242.0000000
  free_energy:       135.7183303
  entropy:            11.6575303
  heat_capacity:      33.3500151
  energy:            138.5394527

- temperature:       244.0000000
  free_energy:       135.6947386
  entropy:            11.9347039
  heat_capacity:      34.0041829
  energy:            138.6068064

- temperature:       246.0000000
  free_energy:       135.6705894
  entropy:            12.2149668
  heat_capacity:      34.6611885
  energy:            138.6754713

- temperature:       248.0000000
  free_energy:       135.6458767
  entropy:            12.4982912
  heat_capacity:      35.3208956
  energy:            138.7454529

- temperature:       250.0000000
  free_energy:       135.6205943
  entropy:            12.7846492
  heat_capacity:      35.9831693
  energy:            138.8167566

- temperature:       252.0000000
  free_energy:       135.5947361
  entropy:            13.0740124
  heat_capacity:      36.6478756
  energy:            138.8893872

- temperature:       254.0000000
  free_energy:       135.5682962
  entropy:            13.3663519
  heat_capacity:      37.3148822
  energy:            138.9633496

- temperature:       256.0000000
  free_energy:       135.5412687
  entropy:            13.6616386
  heat_capacity:      37.9840577
  energy:            139.0386482

- temperature:       258.0000000
  free_energy:       135.5136477
  entropy:            13.9598429
  heat_capacity:      38.6552724
  energy:            139.1152872

- temperature:       260.0000000
  free_energy:       135.4854274
  entropy:            14.2609351
  heat_capacity:      39.3283980
  energy:            139.1932706

- temperature:       262.0000000
  free_energy:       135.4566021
  entropy:            14.5648851
  heat_capacity:      40.0033078
  energy:            139.2726020

- temperature:       264.0000000
  free_energy:       135.4271660
  entropy:            14.8716625
  heat_capacity:      40.6798764
  energy:            139.3532849

- temperature:       266.0000000
  free_energy:       135.3971136
  entropy:            15.1812366
  heat_capacity:      41.3579802
  energy:            139.4353225

- temperature:       268.0000000
  free_energy:       135.3664392
  entropy:            15.4935767
  heat_capacity:      42.0374974
  energy:            139.5187178

- temperature:       270.0000000
  free_energy:       135.3351374
  entropy:            15.8086516
  heat_capacity:      42.7183075
  energy:            139.6034734

- temperature:       272.0000000
  free_energy:       135.3032028
  entropy:            16.1264300
  heat_capacity:      43.4002920
  energy:            139.6895918

- temperature:       274.0000000
  free_energy:       135.2706299
  entropy:            16.4468806
  heat_capacity:      44.0833341
  energy:            139.7770752

- temperature:       276.0000000
  free_energy:       135.2374135
  entropy:            16.7699718
  heat_capacity:      44.7673188
  energy:            139.8659257

- temperature:       278.0000000
  free_energy:       135.2035483
  entropy:            17.0956718
  heat_capacity:      45.4521328
  energy:            139.9561451

- temperature:       280.0000000
  free_energy:       135.1690291
  entropy:            17.4239487
  heat_capacity:      46.1376647
  energy:            140.0477347

- temperature:       282.0000000
  free_energy:       135.1338508
  entropy:            17.7547706
  heat_capacity:      46.8238051
  energy:            140.1406961

- temperature:       284.0000000
  free_energy:       135.0980084
  entropy:            18.0881054
  heat_capacity:      47.5104462
  energy:            140.2350303

- temperature:       286.0000000
  free_energy:       135.0614967
  entropy:            18.4239211
  heat_capacity:      48.1974823
  energy:            140.3307382

- temperature:       288.0000000
  free_energy:       135.0243110
  entropy:            18.7621854
  heat_capacity:      48.8848096
  energy:            140.4278204

- temperature:       290.0000000
  free_energy:       134.9864464
  entropy:            19.1028660
  heat_capacity:      49.5723260
  energy:            140.5262775

- temperature:       292.0000000
  free_energy:       134.9478980
  entropy:            19.4459308
  heat_capacity:      50.2599316
  energy:            140.6261098

- temperature:       294.0000000
  free_energy:       134.9086611
  entropy:            19.7913475
  heat_capacity:      50.9475284
  energy:            140.7273173

- temperature:       296.0000000
  free_energy:       134.8687311
  entropy:            20.1390837
  heat_capacity:      51.6350201
  energy:            140.8298998

- temperature:       298.0000000
  free_energy:       134.8281032
  entropy:            20.4891073
  heat_capacity:      52.3223126
  energy:            140.9338572

- temperature:       300.0000000
  free_energy:       134.7867731
  entropy:            20.8413859
  heat_capacity:      53.0093136
  energy:            141.0391889

- temperature:       302.0000000
  free_energy:       134.7447362
  entropy:            21.1958874
  heat_capacity:      53.6959329
  energy:            141.1458942

- temperature:       304.0000000
  free_energy:       134.7019881
  entropy:            21.5525796
  heat_capacity:      54.3820820
  energy:            141.2539723

- temperature:       306.0000000
  free_energy:       134.6585245
  entropy:            21.9114304
  heat_capacity:      55.0676746
  energy:            141.3634222

- temperature:       308.0000000
  free_energy:       134.6143410
  entropy:            22.2724078
  heat_capacity:      55.7526262
  energy:            141.4742426

- temperature:       310.0000000
  free_energy:       134.5694334
  entropy:            22.6354799
  heat_capacity:      56.4368542
  energy:            141.5864322

- temperature:       312.0000000
  free_energy:       134.5237977
  entropy:            23.0006147
  heat_capacity:      57.1202779
  energy:            141.6999895

- temperature:       314.0000000
  free_energy:       134.4774296
  entropy:            23.3677805
  heat_capacity:      57.8028187
  energy:            141.8149127

- temperature:       316.0000000
  free_energy:       134.4303252
  entropy:            23.7369458
  heat_capacity:      58.4843998
  energy:            141.9312001

- temperature:       318.0000000
  free_energy:       134.3824805
  entropy:            24.1080789
  heat_capacity:      59.1649461
  energy:            142.0488496

- temperature:       320.0000000
  free_energy:       134.3338916
  entropy:            24.4811485
  heat_capacity:      59.8443846
  energy:            142.1678591

- temperature:       322.0000000
  free_energy:       134.2845547
  entropy:            24.8561233
  heat_capacity:      60.5226440
  energy:            142.2882264

- temperature:       324.0000000
  free_energy:       134.2344659
  entropy:            25.2329723
  heat_capacity:      61.1996551
  energy:            142.4099489

- temperature:       326.0000000
  free_energy:       134.1836215
  entropy:            25.6116643
  heat_capacity:      61.8753503
  energy:            142.5330241

- temperature:       328.0000000
  free_energy:       134.1320180
  entropy:            25.9921688
  heat_capacity:      62.5496638
  energy:            142.6574494

- temperature:       330.0000000
  free_energy:       134.0796517
  entropy:            26.3744549
  heat_capacity:      63.2225317
  energy:            142.7832218

- temperature:       332.0000000
  free_energy:       134.0265190
  entropy:            26.7584924
  heat_capacity:      63.8938918
  energy:            142.9103385

- temperature:       334.0000000
  free_energy:       133.9726166
  entropy:            27.1442508
  heat_capacity:      64.5636837
  energy:            143.0387963

- temperature:       336.0000000
  free_energy:       133.9179409
  entropy:            27.5317001
  heat_capacity:      65.2318487
  energy:            143.1685921

- temperature:       338.0000000
  free_energy:       133.8624886
  entropy:            27.9208105
  heat_capacity:      65.8983298
  energy:            143.2997226

- temperature:       340.0000000
  free_energy:       133.8062566
  entropy:            28.3115522
  heat_capacity:      66.5630718
  energy:            143.4321843

- temperature:       342.0000000
  free_energy:       133.7492414
  entropy:            28.7038957
  heat_capacity:      67.2260210
  energy:            143.5659737

- temperature:       344.0000000
  free_energy:       133.6914399
  entropy:            29.0978117
  heat_capacity:      67.8871254
  energy:            143.7010871

- temperature:       346.0000000
  free_energy:       133.6328491
  entropy:            29.4932712
  heat_capacity:      68.5463347
  energy:            143.8375209

- temperature:       348.0000000
  free_energy:       133.5734658
  entropy:            29.8902453
  heat_capacity:      69.2036001
  energy:            143.9752712

- temperature:       350.0000000
  free_energy:       133.5132871
  entropy:            30.2887054
  heat_capacity:      69.8588745
  energy:            144.1143340

- temperature:       352.0000000
  free_energy:       133.4523100
  entropy:            30.6886230
  heat_capacity:      70.5121121
  energy:            144.2547053

- temperature:       354.0000000
  free_energy:       133.3905317
  entropy:            31.0899700
  heat_capacity:      71.1632690
  energy:            144.3963811

- temperature:       356.0000000
  free_energy:       133.3279492
  entropy:            31.4927184