<?xml version="1.0" encoding="ISO-8859-1"?>
<modeling>
 <generator>
  <i name="program" type="string">vasp </i>
  <i name="version" type="string">5.4.4.18Apr17-6-g9f103f2a35  </i>
  <i name="subversion" type="string">(build Mar 12 2022 03:36:41) complex            parallel </i>
  <i name="platform" type="string">IFC19.0.3.199_CrayMPICH7.7.19 </i>
  <i name="date" type="string">2022 12 02 </i>
  <i name="time" type="string">01:25:24 </i>
 </generator>
 <incar>
  <i type="string" name="PREC">accurate</i>
  <i type="int" name="IALGO">    38</i>
  <i type="logical" name="ADDGRID"> T  </i>
  <i type="int" name="IBRION">     8</i>
  <i name="EDIFF">      0.00000001</i>
  <i type="logical" name="LREAL"> F  </i>
  <i type="int" name="ISMEAR">     0</i>
  <i name="SIGMA">      0.06000000</i>
  <i type="logical" name="LWAVE"> F  </i>
  <i type="logical" name="LCHARG"> F  </i>
  <v type="int" name="KPOINT_BSE">    -1     0     0     0</v>
 </incar>
 <structure name="primitive_cell" >
  <crystal>
   <varray name="basis" >
    <v>      -0.10769968       1.73870123       1.79333362 </v>
    <v>       1.74114984      -0.05549028       1.79333362 </v>
    <v>       1.74114984       1.79419151      -0.00000000 </v>
   </varray>
   <i name="volume">     11.55112435 </i>
   <varray name="rec_basis" >
    <v>      -0.27855158       0.27031676       0.27881036 </v>
    <v>       0.27855158      -0.27031676       0.27881037 </v>
    <v>       0.27855158       0.28703734      -0.26156441 </v>
   </varray>
  </crystal>
  <varray name="positions" >
   <v>      -0.25000000      -0.25000000      -0.25000000 </v>
   <v>      -0.50000000      -0.50000000      -0.50000000 </v>
  </varray>
 </structure>
 <varray name="primitive_index" >
  <v type="int" >        1 </v>
  <v type="int" >       25 </v>
 </varray>
 <kpoints>
  <generation param="Gamma">
   <v type="int" name="divisions">       6        6        6 </v>
   <v name="usershift">      0.00000000       0.00000000       0.00000000 </v>
   <v name="genvec1">      0.16666667       0.00000000       0.00000000 </v>
   <v name="genvec2">      0.00000000       0.16666667       0.00000000 </v>
   <v name="genvec3">      0.00000000       0.00000000       0.16666667 </v>
   <v name="shift">      0.00000000       0.00000000       0.00000000 </v>
  </generation>
  <varray name="kpointlist" >
   <v>       0.00000000       0.00000000       0.00000000 </v>
   <v>       0.16666667      -0.00000000       0.00000000 </v>
   <v>       0.33333333      -0.00000000      -0.00000000 </v>
   <v>       0.50000000       0.00000000      -0.00000000 </v>
   <v>       0.16666667       0.16666667       0.00000000 </v>
   <v>       0.33333333       0.16666667      -0.00000000 </v>
   <v>       0.50000000       0.16666667      -0.00000000 </v>
   <v>      -0.33333333       0.16666667       0.00000000 </v>
   <v>      -0.16666667       0.16666667      -0.00000000 </v>
   <v>       0.33333333       0.33333333       0.00000000 </v>
   <v>       0.50000000       0.33333333      -0.00000000 </v>
   <v>      -0.33333333       0.33333333      -0.00000000 </v>
   <v>       0.50000000       0.50000000       0.00000000 </v>
   <v>       0.16666667       0.16666667       0.16666667 </v>
   <v>       0.33333333       0.16666667       0.16666667 </v>
   <v>       0.50000000       0.16666667       0.16666667 </v>
   <v>      -0.33333333       0.16666667       0.16666667 </v>
   <v>      -0.16666667       0.16666667       0.16666667 </v>
   <v>       0.33333333       0.33333333       0.16666667 </v>
   <v>       0.50000000       0.33333333       0.16666667 </v>
   <v>      -0.33333333       0.33333333       0.16666667 </v>
   <v>      -0.16666667       0.33333333       0.16666667 </v>
   <v>       0.50000000       0.50000000       0.16666667 </v>
   <v>      -0.33333333       0.50000000       0.16666667 </v>
   <v>      -0.16666667       0.50000000       0.16666667 </v>
   <v>      -0.33333333      -0.33333333       0.16666667 </v>
   <v>       0.33333333       0.33333333       0.33333333 </v>
   <v>       0.50000000       0.33333333       0.33333333 </v>
   <v>      -0.33333333       0.33333333       0.33333333 </v>
   <v>       0.50000000       0.50000000       0.33333333 </v>
   <v>      -0.33333333       0.50000000       0.33333333 </v>
   <v>       0.50000000       0.50000000       0.50000000 </v>
  </varray>
  <varray name="weights" >
   <v>       0.00462963 </v>
   <v>       0.02777778 </v>
   <v>       0.02777778 </v>
   <v>       0.01388889 </v>
   <v>       0.02777778 </v>
   <v>       0.05555556 </v>
   <v>       0.05555556 </v>
   <v>       0.05555556 </v>
   <v>       0.02777778 </v>
   <v>       0.02777778 </v>
   <v>       0.05555556 </v>
   <v>       0.02777778 </v>
   <v>       0.01388889 </v>
   <v>       0.00925926 </v>
   <v>       0.02777778 </v>
   <v>       0.02777778 </v>
   <v>       0.02777778 </v>
   <v>       0.02777778 </v>
   <v>       0.02777778 </v>
   <v>       0.05555556 </v>
   <v>       0.05555556 </v>
   <v>       0.05555556 </v>
   <v>       0.02777778 </v>
   <v>       0.05555556 </v>
   <v>       0.02777778 </v>
   <v>       0.02777778 </v>
   <v>       0.00925926 </v>
   <v>       0.02777778 </v>
   <v>       0.02777778 </v>
   <v>       0.02777778 </v>
   <v>       0.02777778 </v>
   <v>       0.00462963 </v>
  </varray>
 </kpoints>
 <parameters>
  <separator name="general" >
   <i type="string" name="SYSTEM">unknown system</i>
   <i type="logical" name="LCOMPAT"> F  </i>
  </separator>
  <separator name="electronic" >
   <i type="string" name="PREC">accura</i>
   <i name="ENMAX">    400.00000000</i>
   <i name="ENAUG">    644.87300000</i>
   <i name="EDIFF">      0.00000001</i>
   <i type="int" name="IALGO">    38</i>
   <i type="int" name="IWAVPR">    11</i>
   <i type="int" name="NBANDS">   192</i>
   <i name="NELECT">    256.00000000</i>
   <i type="int" name="TURBO">     0</i>
   <i type="int" name="IRESTART">     0</i>
   <i type="int" name="NREBOOT">     0</i>
   <i type="int" name="NMIN">     0</i>
   <i name="EREF">      0.00000000</i>
   <separator name="electronic smearing" >
    <i type="int" name="ISMEAR">     0</i>
    <i name="SIGMA">      0.06000000</i>
    <i name="KSPACING">      0.50000000</i>
    <i type="logical" name="KGAMMA"> T  </i>
   </separator>
   <separator name="electronic projectors" >
    <i type="logical" name="LREAL"> F  </i>
    <v name="ROPT">      0.00000000</v>
    <i type="int" name="LMAXPAW">  -100</i>
    <i type="int" name="LMAXMIX">     2</i>
    <i type="logical" name="NLSPLINE"> F  </i>
   </separator>
   <separator name="electronic startup" >
    <i type="int" name="ISTART">     0</i>
    <i type="int" name="ICHARG">     2</i>
    <i type="int" name="INIWAV">     1</i>
   </separator>
   <separator name="electronic spin" >
    <i type="int" name="ISPIN">     1</i>
    <i type="logical" name="LNONCOLLINEAR"> F  </i>
    <v name="MAGMOM">      1.00000000      1.00000000      1.00000000      1.00000000      1.00000000      1.00000000      1.00000000      1.00000000      1.00000000      1.00000000      1.00000000      1.00000000      1.00000000      1.00000000      1.00000000      1.00000000      1.00000000      1.00000000      1.00000000      1.00000000
      1.00000000      1.00000000      1.00000000      1.00000000      1.00000000      1.00000000      1.00000000      1.00000000      1.00000000      1.00000000      1.00000000      1.00000000      1.00000000      1.00000000      1.00000000      1.00000000      1.00000000      1.00000000      1.00000000      1.00000000
      1.00000000      1.00000000      1.00000000      1.00000000      1.00000000      1.00000000      1.00000000      1.00000000      1.00000000      1.00000000      1.00000000      1.00000000      1.00000000      1.00000000      1.00000000      1.00000000      1.00000000      1.00000000      1.00000000      1.00000000
      1.00000000      1.00000000      1.00000000      1.00000000</v>
    <i name="NUPDOWN">     -1.00000000</i>
    <i type="logical" name="LSORBIT"> F  </i>
    <v name="SAXIS">      0.00000000      0.00000000      1.00000000</v>
    <i type="logical" name="LSPIRAL"> F  </i>
    <v name="QSPIRAL">      0.00000000      0.00000000      0.00000000</v>
    <i type="logical" name="LZEROZ"> F  </i>
   </separator>
   <separator name="electronic exchange-correlation" >
    <i type="logical" name="LASPH"> F  </i>
    <i type="logical" name="LMETAGGA"> F  </i>
   </separator>
   <separator name="electronic convergence" >
    <i type="int" name="NELM">    60</i>
    <i type="int" name="NELMDL">    -5</i>
    <i type="int" name="NELMIN">     2</i>
    <i name="ENINI">    400.00000000</i>
    <separator name="electronic convergence detail" >
     <i type="logical" name="LDIAG"> T  </i>
     <i type="logical" name="LSUBROT"> F  </i>
     <i name="WEIMIN">      0.00100000</i>
     <i name="EBREAK">      0.00000000</i>
     <i name="DEPER">      0.30000000</i>
     <i type="int" name="NRMM">     4</i>
     <i name="TIME">      0.40000000</i>
    </separator>
   </separator>
   <separator name="electronic mixer" >
    <i name="AMIX">      0.40000000</i>
    <i name="BMIX">      1.00000000</i>
    <i name="AMIN">      0.10000000</i>
    <i name="AMIX_MAG">      1.60000000</i>
    <i name="BMIX_MAG">      1.00000000</i>
    <separator name="electronic mixer details" >
     <i type="int" name="IMIX">     4</i>
     <i type="logical" name="MIXFIRST"> F  </i>
     <i type="int" name="MAXMIX">   -45</i>
     <i name="WC">    100.00000000</i>
     <i type="int" name="INIMIX">     1</i>
     <i type="int" name="MIXPRE">     1</i>
     <i type="int" name="MREMOVE">     5</i>
    </separator>
   </separator>
   <separator name="electronic dipolcorrection" >
    <i type="logical" name="LDIPOL"> F  </i>
    <i type="logical" name="LMONO"> F  </i>
    <i type="int" name="IDIPOL">     0</i>
    <i name="EPSILON">      1.00000000</i>
    <v name="DIPOL">   -100.00000000   -100.00000000   -100.00000000</v>
    <i name="EFIELD">      0.00000000</i>
   </separator>
  </separator>
  <separator name="grids" >
   <i type="int" name="NGX">    48</i>
   <i type="int" name="NGY">    48</i>
   <i type="int" name="NGZ">    48</i>
   <i type="int" name="NGXF">    96</i>
   <i type="int" name="NGYF">    96</i>
   <i type="int" name="NGZF">    96</i>
   <i type="logical" name="ADDGRID"> T  </i>
  </separator>
  <separator name="ionic" >
   <i type="int" name="NSW">     1</i>
   <i type="int" name="IBRION">     8</i>
   <i type="int" name="MDALGO">     0</i>
   <i type="int" name="ISIF">     2</i>
   <i name="PSTRESS">      0.00000000</i>
   <i name="EDIFFG">      0.00000010</i>
   <i type="int" name="NFREE">     0</i>
   <i name="POTIM">      0.50000000</i>
   <i name="SMASS">     -3.00000000</i>
   <i name="SCALEE">      1.00000000</i>
  </separator>
  <separator name="ionic md" >
   <i name="TEBEG">      0.00010000</i>
   <i name="TEEND">      0.00010000</i>
   <i type="int" name="NBLOCK">     1</i>
   <i type="int" name="KBLOCK">     1</i>
   <i type="int" name="NPACO">   256</i>
   <i name="APACO">     16.00000000</i>
  </separator>
  <separator name="symmetry" >
   <i type="int" name="ISYM">     2</i>
   <i name="SYMPREC">      0.00001000</i>
  </separator>
  <separator name="dos" >
   <i type="int" name="LORBIT">     0</i>
   <v name="RWIGS">     -1.00000000</v>
   <i type="int" name="NEDOS">   301</i>
   <i name="EMIN">     10.00000000</i>
   <i name="EMAX">    -10.00000000</i>
   <i name="EFERMI">      0.00000000</i>
  </separator>
  <separator name="writing" >
   <i type="int" name="NWRITE">     2</i>
   <i type="logical" name="LWAVE"> F  </i>
   <i type="logical" name="LDOWNSAMPLE"> F  </i>
   <i type="logical" name="LCHARG"> F  </i>
   <i type="logical" name="LPARD"> F  </i>
   <i type="logical" name="LVTOT"> F  </i>
   <i type="logical" name="LVHAR"> F  </i>
   <i type="logical" name="LELF"> F  </i>
   <i type="logical" name="LOPTICS"> F  </i>
   <v name="STM">      0.00000000      0.00000000      0.00000000      0.00000000      0.00000000      0.00000000      0.00000000</v>
  </separator>
  <separator name="performance" >
   <i type="int" name="NPAR">    32</i>
   <i type="int" name="NSIM">     4</i>
   <i type="int" name="NBLK">    -1</i>
   <i type="logical" name="LPLANE"> T  </i>
   <i type="logical" name="LSCALAPACK"> T  </i>
   <i type="logical" name="LSCAAWARE"> F  </i>
   <i type="logical" name="LSCALU"> F  </i>
   <i type="logical" name="LASYNC"> F  </i>
   <i type="logical" name="LORBITALREAL"> F  </i>
  </separator>
  <separator name="miscellaneous" >
   <i type="int" name="IDIOT">     3</i>
   <i type="int" name="ISPECIAL">     0</i>
   <i type="logical" name="LMUSIC"> F  </i>
   <v name="POMASS">     12.01100000</v>
   <v name="DARWINR">      0.00000000</v>
   <v name="DARWINV">      1.00000000</v>
   <i type="logical" name="LCORR"> T  </i>
  </separator>
  <i type="logical" name="GGA_COMPAT"> T  </i>
  <i type="logical" name="LBERRY"> F  </i>
  <i type="int" name="ICORELEVEL">     0</i>
  <i type="logical" name="LDAU"> F  </i>
  <i type="int" name="I_CONSTRAINED_M">     0</i>
  <separator name="electronic exchange-correlation" >
   <i type="string" name="GGA">--</i>
   <i type="int" name="VOSKOWN">     0</i>
   <i type="logical" name="LHFCALC"> F  </i>
   <i type="string" name="PRECFOCK"></i>
   <i type="logical" name="LSYMGRAD"> F  </i>
   <i type="logical" name="LHFONE"> F  </i>
   <i type="logical" name="LRHFCALC"> F  </i>
   <i type="logical" name="LTHOMAS"> F  </i>
   <i type="logical" name="LMODELHF"> F  </i>
   <i name="ENCUT4O">     -1.00000000</i>
   <i type="int" name="EXXOEP">     0</i>
   <i type="int" name="FOURORBIT">     0</i>
   <i name="AEXX">      0.00000000</i>
   <i name="HFALPHA">      0.00000000</i>
   <i name="MCALPHA">      0.00000000</i>
   <i name="ALDAX">      1.00000000</i>
   <i name="AGGAX">      1.00000000</i>
   <i name="ALDAC">      1.00000000</i>
   <i name="AGGAC">      1.00000000</i>
   <i type="int" name="NKREDX">     1</i>
   <i type="int" name="NKREDY">     1</i>
   <i type="int" name="NKREDZ">     1</i>
   <i type="logical" name="SHIFTRED"> F  </i>
   <i type="logical" name="ODDONLY"> F  </i>
   <i type="logical" name="EVENONLY"> F  </i>
   <i type="int" name="LMAXFOCK">     0</i>
   <i type="int" name="NMAXFOCKAE">     0</i>
   <i type="logical" name="LFOCKAEDFT"> F  </i>
   <i name="HFSCREEN">      0.00000000</i>
   <i name="HFSCREENC">      0.00000000</i>
   <i type="int" name="NBANDSGWLOW">     0</i>
  </separator>
  <separator name="vdW DFT" >
   <i type="logical" name="LUSE_VDW"> F  </i>
   <i name="Zab_VDW">     -0.84910000</i>
   <i name="PARAM1">      0.12340000</i>
   <i name="PARAM2">      1.00000000</i>
   <i name="PARAM3">      0.00000000</i>
  </separator>
  <separator name="model GW" >
   <i type="int" name="MODEL_GW">     0</i>
   <i name="MODEL_EPS0">      3.46533731</i>
   <i name="MODEL_ALPHA">      1.00000000</i>
  </separator>
  <separator name="linear response parameters" >
   <i type="logical" name="LEPSILON"> F  </i>
   <i type="logical" name="LRPA"> F  </i>
   <i type="logical" name="LNABLA"> F  </i>
   <i type="logical" name="LVEL"> F  </i>
   <i type="int" name="KINTER">     0</i>
   <i name="CSHIFT">      0.10000000</i>
   <i name="OMEGAMAX">     -1.00000000</i>
   <i name="DEG_THRESHOLD">      0.00200000</i>
   <i name="RTIME">     -0.10000000</i>
   <i name="WPLASMAI">      0.00000000</i>
   <v name="DFIELD">      0.00000000      0.00000000      0.00000000</v>
   <v name="WPLASMA">      0.00000000      0.00000000      0.00000000      0.00000000      0.00000000      0.00000000      0.00000000      0.00000000      0.00000000</v>
  </separator>
  <separator name="orbital magnetization" >
   <i type="logical" name="NUCIND"> F  </i>
   <v name="MAGPOS">      0.00000000      0.00000000      0.00000000</v>
   <i type="logical" name="LNICSALL"> T  </i>
   <i type="logical" name="ORBITALMAG"> F  </i>
   <i type="logical" name="LMAGBLOCH"> F  </i>
   <i type="logical" name="LCHIMAG"> F  </i>
   <i type="logical" name="LGAUGE"> T  </i>
   <i type="int" name="MAGATOM">     0</i>
   <v name="MAGDIPOL">      0.00000000      0.00000000      0.00000000</v>
   <v name="AVECCONST">      0.00000000      0.00000000      0.00000000</v>
  </separator>
  <separator name="response functions" >
   <i type="logical" name="LADDER"> F  </i>
   <i type="logical" name="LRPAFORCE"> F  </i>
   <i type="logical" name="LFXC"> F  </i>
   <i type="logical" name="LHARTREE"> T  </i>
   <i type="int" name="IBSE">     0</i>
   <v type="int" name="KPOINT">    -1     0     0     0</v>
   <i type="logical" name="LTCTE"> F  </i>
   <i type="logical" name="LTETE"> F  </i>
   <i type="logical" name="LTRIPLET"> F  </i>
   <i type="logical" name="LFXCEPS"> F  </i>
   <i type="logical" name="LFXHEG"> F  </i>
   <i type="int" name="NATURALO">     2</i>
   <i type="logical" name="L2ORDER"> F  </i>
   <i type="logical" name="LMP2LT"> F  </i>
   <i type="logical" name="LUSEW"> F  </i>
   <i name="ENCUTGW">     -2.00000000</i>
   <i name="ENCUTGWSOFT">     -2.00000000</i>
   <i name="ENCUTLF">     -1.00000000</i>
   <i type="int" name="LMAXMP2">    -1</i>
   <i name="SCISSOR">      0.00000000</i>
   <i type="int" name="NOMEGA">     0</i>
   <i type="int" name="NOMEGAR">     0</i>
   <i type="int" name="NBANDSGW">    -1</i>
   <i type="int" name="NBANDSO">    -1</i>
   <i type="int" name="NBANDSV">    -1</i>
   <i type="int" name="NELM">     1</i>
   <i type="int" name="NELMHF">     1</i>
   <i type="int" name="DIM">     3</i>
   <i type="int" name="ANTIRES">     0</i>
   <i name="OMEGAMAX">    -30.00000000</i>
   <i name="OMEGAMIN">    -30.00000000</i>
   <i name="OMEGATL">   -200.00000000</i>
   <i type="int" name="OMEGAGRID">   140</i>
   <i name="CSHIFT">     -0.10000000</i>
   <i type="logical" name="SELFENERGY"> F  </i>
   <i type="logical" name="LSPECTRAL"> F  </i>
   <i type="logical" name="LSPECTRALGW"> F  </i>
   <i type="logical" name="LSINGLES"> F  </i>
   <i type="logical" name="LFERMIGW"> F  </i>
   <i type="logical" name="ODDONLYGW"> F  </i>
   <i type="logical" name="EVENONLYGW"> F  </i>
   <i type="int" name="NKREDLFX">     1</i>
   <i type="int" name="NKREDLFY">     1</i>
   <i type="int" name="NKREDLFZ">     1</i>
   <i type="int" name="MAXMEM">  2800</i>
   <i type="int" name="TELESCOPE">     0</i>
   <i type="int" name="TAUPAR">     1</i>
   <i type="int" name="OMEGAPAR">    -1</i>
   <i name="LAMBDA">      1.00000000</i>
  </separator>
  <separator name="External order field" >
   <i name="OFIELD_KAPPA">      0.00000000</i>
   <v name="OFIELD_K">      0.00000000      0.00000000      0.00000000</v>
   <i name="OFIELD_Q6_NEAR">      0.00000000</i>
   <i name="OFIELD_Q6_FAR">      0.00000000</i>
   <i name="OFIELD_A">      0.00000000</i>
  </separator>
 </parameters>
 <atominfo>
  <atoms>      64 </atoms>
  <types>       1 </types>
  <array name="atoms" >
   <dimension dim="1">ion</dimension>
   <field type="string">element</field>
   <field type="int">atomtype</field>
   <set>
    <rc><c>C </c><c>   1</c></rc>
    <rc><c>C </c><c>   1</c></rc>
    <rc><c>C </c><c>   1</c></rc>
    <rc><c>C </c><c>   1</c></rc>
    <rc><c>C </c><c>   1</c></rc>
    <rc><c>C </c><c>   1</c></rc>
    <rc><c>C </c><c>   1</c></rc>
    <rc><c>C </c><c>   1</c></rc>
    <rc><c>C </c><c>   1</c></rc>
    <rc><c>C </c><c>   1</c></rc>
    <rc><c>C </c><c>   1</c></rc>
    <rc><c>C </c><c>   1</c></rc>
    <rc><c>C </c><c>   1</c></rc>
    <rc><c>C </c><c>   1</c></rc>
    <rc><c>C </c><c>   1</c></rc>
    <rc><c>C </c><c>   1</c></rc>
    <rc><c>C </c><c>   1</c></rc>
    <rc><c>C </c><c>   1</c></rc>
    <rc><c>C </c><c>   1</c></rc>
    <rc><c>C </c><c>   1</c></rc>
    <rc><c>C </c><c>   1</c></rc>
    <rc><c>C </c><c>   1</c></rc>
    <rc><c>C </c><c>   1</c></rc>
    <rc><c>C </c><c>   1</c></rc>
    <rc><c>C </c><c>   1</c></rc>
    <rc><c>C </c><c>   1</c></rc>
    <rc><c>C </c><c>   1</c></rc>
    <rc><c>C </c><c>   1</c></rc>
    <rc><c>C </c><c>   1</c></rc>
    <rc><c>C </c><c>   1</c></rc>
    <rc><c>C </c><c>   1</c></rc>
    <rc><c>C </c><c>   1</c></rc>
    <rc><c>C </c><c>   1</c></rc>
    <rc><c>C </c><c>   1</c></rc>
    <rc><c>C </c><c>   1</c></rc>
    <rc><c>C </c><c>   1</c></rc>
    <rc><c>C </c><c>   1</c></rc>
    <rc><c>C </c><c>   1</c></rc>
    <rc><c>C </c><c>   1</c></rc>
    <rc><c>C </c><c>   1</c></rc>
    <rc><c>C </c><c>   1</c></rc>
    <rc><c>C </c><c>   1</c></rc>
    <rc><c>C </c><c>   1</c></rc>
    <rc><c>C </c><c>   1</c></rc>
    <rc><c>C </c><c>   1</c></rc>
    <rc><c>C </c><c>   1</c></rc>
    <rc><c>C </c><c>   1</c></rc>
    <rc><c>C </c><c>   1</c></rc>
    <rc><c>C </c><c>   1</c></rc>
    <rc><c>C </c><c>   1</c></rc>
    <rc><c>C </c><c>   1</c></rc>
    <rc><c>C </c><c>   1</c></rc>
    <rc><c>C </c><c>   1</c></rc>
    <rc><c>C </c><c>   1</c></rc>
    <rc><c>C </c><c>   1</c></rc>
    <rc><c>C </c><c>   1</c></rc>
    <rc><c>C </c><c>   1</c></rc>
    <rc><c>C </c><c>   1</c></rc>
    <rc><c>C </c><c>   1</c></rc>
    <rc><c>C </c><c>   1</c></rc>
    <rc><c>C </c><c>   1</c></rc>
    <rc><c>C </c><c>   1</c></rc>
    <rc><c>C </c><c>   1</c></rc>
    <rc><c>C </c><c>   1</c></rc>
   </set>
  </array>
  <array name="atomtypes" >
   <dimension dim="1">type</dimension>
   <field type="int">atomspertype</field>
   <field type="string">element</field>
   <field>mass</field>
   <field>valence</field>
   <field type="string">pseudopotential</field>
   <set>
    <rc><c>  64</c><c>C </c><c>     12.01100000</c><c>      4.00000000</c><c> PAW_PBE C 08Apr2002                    </c></rc>
   </set>
  </array>
 </atominfo>
 <structure name="initialpos" >
  <crystal>
   <varray name="basis" >
    <v>       7.17999872       0.00000000       0.00000000 </v>
    <v>      -0.21539936       7.17676605       0.00000000 </v>
    <v>      -0.21539936      -0.22196113       7.17333448 </v>
   </varray>
   <i name="volume">    369.63597930 </i>
   <varray name="rec_basis" >
    <v>       0.13927579       0.00418014       0.00431149 </v>
    <v>       0.00000000       0.13933853       0.00431149 </v>
    <v>       0.00000000       0.00000000       0.13940518 </v>
   </varray>
  </crystal>
  <varray name="positions" >
   <v>       0.12500000       0.37500000       0.12500000 </v>
   <v>       0.62500000       0.37500000       0.12500000 </v>
   <v>       0.12500000       0.87500000       0.12500000 </v>
   <v>       0.62500000       0.87500000       0.12500000 </v>
   <v>       0.12500000       0.37500000       0.62500000 </v>
   <v>       0.62500000       0.37500000       0.62500000 </v>
   <v>       0.12500000       0.87500000       0.62500000 </v>
   <v>       0.62500000       0.87500000       0.62500000 </v>
   <v>       0.00000000       0.00000000       0.25000000 </v>
   <v>       0.50000000       0.00000000       0.25000000 </v>
   <v>       0.00000000       0.50000000       0.25000000 </v>
   <v>       0.50000000       0.50000000       0.25000000 </v>
   <v>       0.00000000       0.00000000       0.75000000 </v>
   <v>       0.50000000       0.00000000       0.75000000 </v>
   <v>       0.00000000       0.50000000       0.75000000 </v>
   <v>       0.50000000       0.50000000       0.75000000 </v>
   <v>       0.12500000       0.12500000       0.37500000 </v>
   <v>       0.62500000       0.12500000       0.37500000 </v>
   <v>       0.12500000       0.62500000       0.37500000 </v>
   <v>       0.62500000       0.62500000       0.37500000 </v>
   <v>       0.12500000       0.12500000       0.87500000 </v>
   <v>       0.62500000       0.12500000       0.87500000 </v>
   <v>       0.12500000       0.62500000       0.87500000 </v>
   <v>       0.62500000       0.62500000       0.87500000 </v>
   <v>       0.00000000       0.25000000       0.00000000 </v>
   <v>       0.50000000       0.25000000       0.00000000 </v>
   <v>       0.00000000       0.75000000       0.00000000 </v>
   <v>       0.50000000       0.75000000       0.00000000 </v>
   <v>       0.00000000       0.25000000       0.50000000 </v>
   <v>       0.50000000       0.25000000       0.50000000 </v>
   <v>       0.00000000       0.75000000       0.50000000 </v>
   <v>       0.50000000       0.75000000       0.50000000 </v>
   <v>       0.37500000       0.37500000       0.37500000 </v>
   <v>       0.87500000       0.37500000       0.37500000 </v>
   <v>       0.37500000       0.87500000       0.37500000 </v>
   <v>       0.87500000       0.87500000       0.37500000 </v>
   <v>       0.37500000       0.37500000       0.87500000 </v>
   <v>       0.87500000       0.37500000       0.87500000 </v>
   <v>       0.37500000       0.87500000       0.87500000 </v>
   <v>       0.87500000       0.87500000       0.87500000 </v>
   <v>       0.25000000       0.00000000       0.00000000 </v>
   <v>       0.75000000       0.00000000       0.00000000 </v>
   <v>       0.25000000       0.50000000       0.00000000 </v>
   <v>       0.75000000       0.50000000       0.00000000 </v>
   <v>       0.25000000       0.00000000       0.50000000 </v>
   <v>       0.75000000       0.00000000       0.50000000 </v>
   <v>       0.25000000       0.50000000       0.50000000 </v>
   <v>       0.75000000       0.50000000       0.50000000 </v>
   <v>       0.37500000       0.12500000       0.12500000 </v>
   <v>       0.87500000       0.12500000       0.12500000 </v>
   <v>       0.37500000       0.62500000       0.12500000 </v>
   <v>       0.87500000       0.62500000       0.12500000 </v>
   <v>       0.37500000       0.12500000       0.62500000 </v>
   <v>       0.87500000       0.12500000       0.62500000 </v>
   <v>       0.37500000       0.62500000       0.62500000 </v>
   <v>       0.87500000       0.62500000       0.62500000 </v>
   <v>       0.25000000       0.25000000       0.25000000 </v>
   <v>       0.75000000       0.25000000       0.25000000 </v>
   <v>       0.25000000       0.75000000       0.25000000 </v>
   <v>       0.75000000       0.75000000       0.25000000 </v>
   <v>       0.25000000       0.25000000       0.75000000 </v>
   <v>       0.75000000       0.25000000       0.75000000 </v>
   <v>       0.25000000       0.75000000       0.75000000 </v>
   <v>       0.75000000       0.75000000       0.75000000 </v>
  </varray>
 </structure>
 <calculation>
  <scstep>
   <time name="dav">   21.95   21.96</time>
   <time name="total">   22.07   22.10</time>
   <energy>
    <i name="alphaZ">    902.89574185 </i>
    <i name="ewald"> -11062.07651133 </i>
    <i name="hartreedc">   -578.97708266 </i>
    <i name="XCdc">    911.51918721 </i>
    <i name="pawpsdc">   2421.21235816 </i>
    <i name="pawaedc">  -2494.84305711 </i>
    <i name="eentropy">     -0.01190153 </i>
    <i name="bandstr">    988.01758864 </i>
    <i name="atom">   9416.14232778 </i>
    <i name="e_fr_energy">    503.87865100 </i>
    <i name="e_wo_entrp">    503.89055254 </i>
    <i name="e_0_energy">    503.88460177 </i>
   </energy>
  </scstep>
  <scstep>
   <time name="dav">   27.27   27.27</time>
   <time name="total">   27.27   27.27</time>
   <energy>
    <i name="e_fr_energy">   -557.64609077 </i>
    <i name="e_wo_entrp">   -557.64609077 </i>
    <i name="e_0_energy">   -557.64609077 </i>
   </energy>
  </scstep>
  <scstep>
   <time name="dav">   28.09   28.09</time>
   <time name="total">   28.10   28.10</time>
   <energy>
    <i name="e_fr_energy">   -599.12104035 </i>
    <i name="e_wo_entrp">   -599.12104035 </i>
    <i name="e_0_energy">   -599.12104035 </i>
   </energy>
  </scstep>
  <scstep>
   <time name="dav">   28.35   28.35</time>
   <time name="total">   28.35   28.35</time>
   <energy>
    <i name="e_fr_energy">   -599.57674162 </i>
    <i name="e_wo_entrp">   -599.57674162 </i>
    <i name="e_0_energy">   -599.57674162 </i>
   </energy>
  </scstep>
  <scstep>
   <time name="dav">   26.49   26.49</time>
   <time name="total">   27.14   27.14</time>
   <energy>
    <i name="e_fr_energy">   -599.58583769 </i>
    <i name="e_wo_entrp">   -599.58583769 </i>
    <i name="e_0_energy">   -599.58583769 </i>
   </energy>
  </scstep>
  <scstep>
   <time name="dav">   26.27   26.27</time>
   <time name="total">   27.02   27.03</time>
   <energy>
    <i name="e_fr_energy">   -584.98663022 </i>
    <i name="e_wo_entrp">   -584.98663022 </i>
    <i name="e_0_energy">   -584.98663022 </i>
   </energy>
  </scstep>
  <scstep>
   <time name="dav">   26.26   26.26</time>
   <time name="total">   27.02   27.02</time>
   <energy>
    <i name="e_fr_energy">   -580.06850860 </i>
    <i name="e_wo_entrp">   -580.06850860 </i>
    <i name="e_0_energy">   -580.06850860 </i>
   </energy>
  </scstep>
  <scstep>
   <time name="dav">   26.58   26.58</time>
   <time name="total">   27.35   27.35</time>
   <energy>
    <i name="e_fr_energy">   -580.13072730 </i>
    <i name="e_wo_entrp">   -580.13072730 </i>
    <i name="e_0_energy">   -580.13072730 </i>
   </energy>
  </scstep>
  <scstep>
   <time name="dav">   27.86   27.86</time>
   <time name="total">   28.61   28.62</time>
   <energy>
    <i name="e_fr_energy">   -580.13303857 </i>
    <i name="e_wo_entrp">   -580.13303857 </i>
    <i name="e_0_energy">   -580.13303857 </i>
   </energy>
  </scstep>
  <scstep>
   <time name="dav">   26.54   26.54</time>
   <time name="total">   27.31   27.31</time>
   <energy>
    <i name="e_fr_energy">   -580.13351719 </i>
    <i name="e_wo_entrp">   -580.13351719 </i>
    <i name="e_0_energy">   -580.13351719 </i>
   </energy>
  </scstep>
  <scstep>
   <time name="dav">   27.86   27.86</time>
   <time name="total">   28.61   28.62</time>
   <energy>
    <i name="e_fr_energy">   -580.13353319 </i>
    <i name="e_wo_entrp">   -580.13353319 </i>
    <i name="e_0_energy">   -580.13353319 </i>
   </energy>
  </scstep>
  <scstep>
   <time name="dav">   27.41   27.41</time>
   <time name="total">   28.21   28.21</time>
   <energy>
    <i name="e_fr_energy">   -580.13353320 </i>
    <i name="e_wo_entrp">   -580.13353320 </i>
    <i name="e_0_energy">   -580.13353320 </i>
   </energy>
  </scstep>
  <scstep>
   <time name="dav">   24.92   24.92</time>
   <time name="total">   25.69   25.69</time>
   <energy>
    <i name="e_fr_energy">   -580.13353326 </i>
    <i name="e_wo_entrp">   -580.13353326 </i>
    <i name="e_0_energy">   -580.13353326 </i>
   </energy>
  </scstep>
  <scstep>
   <time name="dav">   22.24   22.24</time>
   <time name="total">   23.02   23.02</time>
   <energy>
    <i name="e_fr_energy">   -580.13353330 </i>
    <i name="e_wo_entrp">   -580.13353330 </i>
    <i name="e_0_energy">   -580.13353330 </i>
   </energy>
  </scstep>
  <scstep>
   <time name="dav">   19.46   19.46</time>
   <time name="total">   19.56   19.56</time>
   <energy>
    <i name="alphaZ">    902.89574185 </i>
    <i name="ewald"> -11062.07651133 </i>
    <i name="hartreedc">   -855.96776534 </i>
    <i name="XCdc">    937.54248605 </i>
    <i name="pawpsdc">   4147.82475049 </i>
    <i name="pawaedc">  -4228.46870435 </i>
    <i name="eentropy">     -0.00000000 </i>
    <i name="bandstr">    161.97414155 </i>
    <i name="atom">   9416.14232778 </i>
    <i name="e_fr_energy">   -580.13353330 </i>
    <i name="e_wo_entrp">   -580.13353330 </i>
    <i name="e_0_energy">   -580.13353330 </i>
   </energy>
  </scstep>
  <structure>
   <crystal>
    <varray name="basis" >
     <v>       7.17999872       0.00000000       0.00000000 </v>
     <v>      -0.21539936       7.17676605       0.00000000 </v>
     <v>      -0.21539936      -0.22196113       7.17333448 </v>
    </varray>
    <i name="volume">    369.63597930 </i>
    <varray name="rec_basis" >
     <v>       0.13927579       0.00418014       0.00431149 </v>
     <v>       0.00000000       0.13933853       0.00431149 </v>
     <v>       0.00000000       0.00000000       0.13940518 </v>
    </varray>
   </crystal>
   <varray name="positions" >
    <v>       0.12500000       0.37500000       0.12500000 </v>
    <v>       0.62500000       0.37500000       0.12500000 </v>
    <v>       0.12500000       0.87500000       0.12500000 </v>
    <v>       0.62500000       0.87500000       0.12500000 </v>
    <v>       0.12500000       0.37500000       0.62500000 </v>
    <v>       0.62500000       0.37500000       0.62500000 </v>
    <v>       0.12500000       0.87500000       0.62500000 </v>
    <v>       0.62500000       0.87500000       0.62500000 </v>
    <v>       0.00000000       0.00000000       0.25000000 </v>
    <v>       0.50000000       0.00000000       0.25000000 </v>
    <v>       0.00000000       0.50000000       0.25000000 </v>
    <v>       0.50000000       0.50000000       0.25000000 </v>
    <v>       0.00000000       0.00000000       0.75000000 </v>
    <v>       0.50000000       0.00000000       0.75000000 </v>
    <v>       0.00000000       0.50000000       0.75000000 </v>
    <v>       0.50000000       0.50000000       0.75000000 </v>
    <v>       0.12500000       0.12500000       0.37500000 </v>
    <v>       0.62500000       0.12500000       0.37500000 </v>
    <v>       0.12500000       0.62500000       0.37500000 </v>
    <v>       0.62500000       0.62500000       0.37500000 </v>
    <v>       0.12500000       0.12500000       0.87500000 </v>
    <v>       0.62500000       0.12500000       0.87500000 </v>
    <v>       0.12500000       0.62500000       0.87500000 </v>
    <v>       0.62500000       0.62500000       0.87500000 </v>
    <v>       0.00000000       0.25000000       0.00000000 </v>
    <v>       0.50000000       0.25000000       0.00000000 </v>
    <v>       0.00000000       0.75000000       0.00000000 </v>
    <v>       0.50000000       0.75000000       0.00000000 </v>
    <v>       0.00000000       0.25000000       0.50000000 </v>
    <v>       0.50000000       0.25000000       0.50000000 </v>
    <v>       0.00000000       0.75000000       0.50000000 </v>
    <v>       0.50000000       0.75000000       0.50000000 </v>
    <v>       0.37500000       0.37500000       0.37500000 </v>
    <v>       0.87500000       0.37500000       0.37500000 </v>
    <v>       0.37500000       0.87500000       0.37500000 </v>
    <v>       0.87500000       0.87500000       0.37500000 </v>
    <v>       0.37500000       0.37500000       0.87500000 </v>
    <v>       0.87500000       0.37500000       0.87500000 </v>
    <v>       0.37500000       0.87500000       0.87500000 </v>
    <v>       0.87500000       0.87500000       0.87500000 </v>
    <v>       0.25000000       0.00000000       0.00000000 </v>
    <v>       0.75000000       0.00000000       0.00000000 </v>
    <v>       0.25000000       0.50000000       0.00000000 </v>
    <v>       0.75000000       0.50000000       0.00000000 </v>
    <v>       0.25000000       0.00000000       0.50000000 </v>
    <v>       0.75000000       0.00000000       0.50000000 </v>
    <v>       0.25000000       0.50000000       0.50000000 </v>
    <v>       0.75000000       0.50000000       0.50000000 </v>
    <v>       0.37500000       0.12500000       0.12500000 </v>
    <v>       0.87500000       0.12500000       0.12500000 </v>
    <v>       0.37500000       0.62500000       0.12500000 </v>
    <v>       0.87500000       0.62500000       0.12500000 </v>
    <v>       0.37500000       0.12500000       0.62500000 </v>
    <v>       0.87500000       0.12500000       0.62500000 </v>
    <v>       0.37500000       0.62500000       0.62500000 </v>
    <v>       0.87500000       0.62500000       0.62500000 </v>
    <v>       0.25000000       0.25000000       0.25000000 </v>
    <v>       0.75000000       0.25000000       0.25000000 </v>
    <v>       0.25000000       0.75000000       0.25000000 </v>
    <v>       0.75000000       0.75000000       0.25000000 </v>
    <v>       0.25000000       0.25000000       0.75000000 </v>
    <v>       0.75000000       0.25000000       0.75000000 </v>
    <v>       0.25000000       0.75000000       0.75000000 </v>
    <v>       0.75000000       0.75000000       0.75000000 </v>
   </varray>
  </structure>
  <varray name="forces" >
   <v>       0.13550230       0.13963019       0.14401756 </v>
   <v>       0.13550230       0.13963019       0.14401756 </v>
   <v>       0.13550230       0.13963019       0.14401756 </v>
   <v>       0.13550230       0.13963019       0.14401756 </v>
   <v>       0.13550230       0.13963019       0.14401756 </v>
   <v>       0.13550230       0.13963019       0.14401756 </v>
   <v>       0.13550230       0.13963019       0.14401756 </v>
   <v>       0.13550230       0.13963019       0.14401756 </v>
   <v>      -0.13550230      -0.13963019      -0.14401756 </v>
   <v>      -0.13550230      -0.13963019      -0.14401756 </v>
   <v>      -0.13550230      -0.13963019      -0.14401756 </v>
   <v>      -0.13550230      -0.13963019      -0.14401756 </v>
   <v>      -0.13550230      -0.13963019      -0.14401756 </v>
   <v>      -0.13550230      -0.13963019      -0.14401756 </v>
   <v>      -0.13550230      -0.13963019      -0.14401756 </v>
   <v>      -0.13550230      -0.13963019      -0.14401756 </v>
   <v>       0.13550230       0.13963019       0.14401756 </v>
   <v>       0.13550230       0.13963019       0.14401756 </v>
   <v>       0.13550230       0.13963019       0.14401756 </v>
   <v>       0.13550230       0.13963019       0.14401756 </v>
   <v>       0.13550230       0.13963019       0.14401756 </v>
   <v>       0.13550230       0.13963019       0.14401756 </v>
   <v>       0.13550230       0.13963019       0.14401756 </v>
   <v>       0.13550230       0.13963019       0.14401756 </v>
   <v>      -0.13550230      -0.13963019      -0.14401756 </v>
   <v>      -0.13550230      -0.13963019      -0.14401756 </v>
   <v>      -0.13550230      -0.13963019      -0.14401756 </v>
   <v>      -0.13550230      -0.13963019      -0.14401756 </v>
   <v>      -0.13550230      -0.13963019      -0.14401756 </v>
   <v>      -0.13550230      -0.13963019      -0.14401756 </v>
   <v>      -0.13550230      -0.13963019      -0.14401756 </v>
   <v>      -0.13550230      -0.13963019      -0.14401756 </v>
   <v>       0.13550230       0.13963019       0.14401756 </v>
   <v>       0.13550230       0.13963019       0.14401756 </v>
   <v>       0.13550230       0.13963019       0.14401756 </v>
   <v>       0.13550230       0.13963019       0.14401756 </v>
   <v>       0.13550230       0.13963019       0.14401756 </v>
   <v>       0.13550230       0.13963019       0.14401756 </v>
   <v>       0.13550230       0.13963019       0.14401756 </v>
   <v>       0.13550230       0.13963019       0.14401756 </v>
   <v>      -0.13550230      -0.13963019      -0.14401756 </v>
   <v>      -0.13550230      -0.13963019      -0.14401756 </v>
   <v>      -0.13550230      -0.13963019      -0.14401756 </v>
   <v>      -0.13550230      -0.13963019      -0.14401756 </v>
   <v>      -0.13550230      -0.13963019      -0.14401756 </v>
   <v>      -0.13550230      -0.13963019      -0.14401756 </v>
   <v>      -0.13550230      -0.13963019      -0.14401756 </v>
   <v>      -0.13550230      -0.13963019      -0.14401756 </v>
   <v>       0.13550230       0.13963019       0.14401756 </v>
   <v>       0.13550230       0.13963019       0.14401756 </v>
   <v>       0.13550230       0.13963019       0.14401756 </v>
   <v>       0.13550230       0.13963019       0.14401756 </v>
   <v>       0.13550230       0.13963019       0.14401756 </v>
   <v>       0.13550230       0.13963019       0.14401756 </v>
   <v>       0.13550230       0.13963019       0.14401756 </v>
   <v>       0.13550230       0.13963019       0.14401756 </v>
   <v>      -0.13550230      -0.13963019      -0.14401756 </v>
   <v>      -0.13550230      -0.13963019      -0.14401756 </v>
   <v>      -0.13550230      -0.13963019      -0.14401756 </v>
   <v>      -0.13550230      -0.13963019      -0.14401756 </v>
   <v>      -0.13550230      -0.13963019      -0.14401756 </v>
   <v>      -0.13550230      -0.13963019      -0.14401756 </v>
   <v>      -0.13550230      -0.13963019      -0.14401756 </v>
   <v>      -0.13550230      -0.13963019      -0.14401756 </v>
  </varray>
  <varray name="stress" >
   <v>     -93.47192285     166.65390404     171.89039954 </v>
   <v>     166.65390404     -83.46818721     177.12679734 </v>
   <v>     171.89039954     177.12679734     -72.50671691 </v>
  </varray>
  <energy>
   <i name="e_fr_energy">   -580.13353330 </i>
   <i name="e_wo_entrp">   -580.13353330 </i>
   <i name="e_0_energy">     -0.00000000 </i>
  </energy>
  <kpoints>
   <generation param="Gamma">
    <v type="int" name="divisions">       6        6        6 </v>
    <v name="usershift">      0.00000000       0.00000000       0.00000000 </v>
    <v name="genvec1">      0.16666667       0.00000000       0.00000000 </v>
    <v name="genvec2">      0.00000000       0.16666667       0.00000000 </v>
    <v name="genvec3">      0.00000000       0.00000000       0.16666667 </v>
    <v name="shift">      0.00000000       0.00000000       0.00000000 </v>
   </generation>
   <varray name="kpointlist" >
    <v>       0.00000000       0.00000000       0.00000000 </v>
    <v>       0.16666667      -0.00000000       0.00000000 </v>
    <v>       0.33333333      -0.00000000      -0.00000000 </v>
    <v>       0.50000000       0.00000000      -0.00000000 </v>
    <v>       0.00000000       0.16666667      -0.00000000 </v>
    <v>       0.16666667       0.16666667       0.00000000 </v>
    <v>       0.33333333       0.16666667      -0.00000000 </v>
    <v>       0.50000000       0.16666667      -0.00000000 </v>
    <v>      -0.33333333       0.16666667       0.00000000 </v>
    <v>      -0.16666667       0.16666667      -0.00000000 </v>
    <v>       0.00000000       0.33333333      -0.00000000 </v>
    <v>       0.16666667       0.33333333      -0.00000000 </v>
    <v>       0.33333333       0.33333333       0.00000000 </v>
    <v>       0.50000000       0.33333333      -0.00000000 </v>
    <v>      -0.33333333       0.33333333      -0.00000000 </v>
    <v>      -0.16666667       0.33333333      -0.00000000 </v>
    <v>       0.00000000       0.50000000      -0.00000000 </v>
    <v>       0.16666667       0.50000000       0.00000000 </v>
    <v>       0.33333333       0.50000000       0.00000000 </v>
    <v>       0.50000000       0.50000000       0.00000000 </v>
    <v>       0.00000000       0.16666667       0.16666667 </v>
    <v>       0.16666667       0.16666667       0.16666667 </v>
    <v>       0.33333333       0.16666667       0.16666667 </v>
    <v>       0.50000000       0.16666667       0.16666667 </v>
    <v>      -0.33333333       0.16666667       0.16666667 </v>
    <v>      -0.16666667       0.16666667       0.16666667 </v>
    <v>       0.00000000       0.33333333       0.16666667 </v>
    <v>       0.16666667       0.33333333       0.16666667 </v>
    <v>       0.33333333       0.33333333       0.16666667 </v>
    <v>       0.50000000       0.33333333       0.16666667 </v>
    <v>      -0.33333333       0.33333333       0.16666667 </v>
    <v>      -0.16666667       0.33333333       0.16666667 </v>
    <v>       0.00000000       0.50000000       0.16666667 </v>
    <v>       0.16666667       0.50000000       0.16666667 </v>
    <v>       0.33333333       0.50000000       0.16666667 </v>
    <v>       0.50000000       0.50000000       0.16666667 </v>
    <v>      -0.33333333       0.50000000       0.16666667 </v>
    <v>      -0.16666667       0.50000000       0.16666667 </v>
    <v>       0.00000000      -0.33333333       0.16666667 </v>
    <v>       0.16666667      -0.33333333       0.16666667 </v>
    <v>       0.33333333      -0.33333333       0.16666667 </v>
    <v>       0.50000000      -0.33333333       0.16666667 </v>
    <v>      -0.33333333      -0.33333333       0.16666667 </v>
    <v>      -0.16666667      -0.33333333       0.16666667 </v>
    <v>       0.00000000      -0.16666667       0.16666667 </v>
    <v>       0.16666667      -0.16666667       0.16666667 </v>
    <v>       0.33333333      -0.16666667       0.16666667 </v>
    <v>       0.50000000      -0.16666667       0.16666667 </v>
    <v>       0.00000000       0.33333333       0.33333333 </v>
    <v>       0.16666667       0.33333333       0.33333333 </v>
    <v>       0.33333333       0.33333333       0.33333333 </v>
    <v>       0.50000000       0.33333333       0.33333333 </v>
    <v>      -0.33333333       0.33333333       0.33333333 </v>
    <v>      -0.16666667       0.33333333       0.33333333 </v>
    <v>       0.00000000       0.50000000       0.33333333 </v>
    <v>       0.16666667       0.50000000       0.33333333 </v>
    <v>       0.33333333       0.50000000       0.33333333 </v>
    <v>       0.50000000       0.50000000       0.33333333 </v>
    <v>      -0.33333333       0.50000000       0.33333333 </v>
    <v>      -0.16666667       0.50000000       0.33333333 </v>
    <v>       0.00000000      -0.33333333       0.33333333 </v>
    <v>       0.16666667      -0.33333333       0.33333333 </v>
    <v>       0.33333333      -0.33333333       0.33333333 </v>
    <v>       0.50000000      -0.33333333       0.33333333 </v>
    <v>       0.00000000       0.50000000       0.50000000 </v>
    <v>       0.16666667       0.50000000       0.50000000 </v>
    <v>       0.33333333       0.50000000       0.50000000 </v>
    <v>       0.50000000       0.50000000       0.50000000 </v>
   </varray>
   <varray name="weights" >
    <v>       0.00462963 </v>
    <v>       0.00925926 </v>
    <v>       0.00925926 </v>
    <v>       0.00462963 </v>
    <v>       0.01851852 </v>
    <v>       0.01851852 </v>
    <v>       0.01851852 </v>
    <v>       0.01851852 </v>
    <v>       0.01851852 </v>
    <v>       0.01851852 </v>
    <v>       0.01851852 </v>
    <v>       0.01851852 </v>
    <v>       0.01851852 </v>
    <v>       0.01851852 </v>
    <v>       0.01851852 </v>
    <v>       0.01851852 </v>
    <v>       0.00925926 </v>
    <v>       0.01851852 </v>
    <v>       0.01851852 </v>
    <v>       0.00925926 </v>
    <v>       0.00925926 </v>
    <v>       0.00925926 </v>
    <v>       0.00925926 </v>
    <v>       0.00925926 </v>
    <v>       0.00925926 </v>
    <v>       0.00925926 </v>
    <v>       0.01851852 </v>
    <v>       0.01851852 </v>
    <v>       0.01851852 </v>
    <v>       0.01851852 </v>
    <v>       0.01851852 </v>
    <v>       0.01851852 </v>
    <v>       0.01851852 </v>
    <v>       0.01851852 </v>
    <v>       0.01851852 </v>
    <v>       0.01851852 </v>
    <v>       0.01851852 </v>
    <v>       0.01851852 </v>
    <v>       0.01851852 </v>
    <v>       0.01851852 </v>
    <v>       0.01851852 </v>
    <v>       0.01851852 </v>
    <v>       0.01851852 </v>
    <v>       0.01851852 </v>
    <v>       0.00925926 </v>
    <v>       0.01851852 </v>
    <v>       0.01851852 </v>
    <v>       0.00925926 </v>
    <v>       0.00925926 </v>
    <v>       0.00925926 </v>
    <v>       0.00925926 </v>
    <v>       0.00925926 </v>
    <v>       0.00925926 </v>
    <v>       0.00925926 </v>
    <v>       0.01851852 </v>
    <v>       0.01851852 </v>
    <v>       0.01851852 </v>
    <v>       0.01851852 </v>
    <v>       0.01851852 </v>
    <v>       0.01851852 </v>
    <v>       0.00925926 </v>
    <v>       0.01851852 </v>
    <v>       0.01851852 </v>
    <v>       0.00925926 </v>
    <v>       0.00462963 </v>
    <v>       0.00925926 </v>
    <v>       0.00925926 </v>
    <v>       0.00462963 </v>
   </varray>
  </kpoints>
  <scstep>
   <time name="total">   56.46   56.46</time>
   <energy>
    <i name="e_fr_energy">   -362.72128943 </i>
    <i name="e_wo_entrp">   -362.72128943 </i>
    <i name="e_0_energy">   -362.72128943 </i>
   </energy>
  </scstep>
  <scstep>
   <time name="total">   43.59   43.67</time>
   <energy>
    <i name="e_fr_energy">   -308.81745604 </i>
    <i name="e_wo_entrp">   -308.81745604 </i>
    <i name="e_0_energy">   -308.81745604 </i>
   </energy>
  </scstep>
  <scstep>
   <time name="total">   45.48   45.48</time>
   <energy>
    <i name="e_fr_energy">   -308.43365629 </i>
    <i name="e_wo_entrp">   -308.43365629 </i>
    <i name="e_0_energy">   -308.43365629 </i>
   </energy>
  </scstep>
  <scstep>
   <time name="total">   43.97   43.97</time>
   <energy>
    <i name="e_fr_energy">   -309.07431448 </i>
    <i name="e_wo_entrp">   -309.07431448 </i>
    <i name="e_0_energy">   -309.07431448 </i>
   </energy>
  </scstep>
  <scstep>
   <time name="total">   44.11   44.11</time>
   <energy>
    <i name="e_fr_energy">   -309.28139774 </i>
    <i name="e_wo_entrp">   -309.28139774 </i>
    <i name="e_0_energy">   -309.28139774 </i>
   </energy>
  </scstep>
  <scstep>
   <time name="total">   46.88   46.88</time>
   <energy>
    <i name="e_fr_energy">   -309.23907272 </i>
    <i name="e_wo_entrp">   -309.23907272 </i>
    <i name="e_0_energy">   -309.23907272 </i>
   </energy>
  </scstep>
  <scstep>
   <time name="total">   44.52   44.52</time>
   <energy>
    <i name="e_fr_energy">   -309.21839329 </i>
    <i name="e_wo_entrp">   -309.21839329 </i>
    <i name="e_0_energy">   -309.21839329 </i>
   </energy>
  </scstep>
  <scstep>
   <time name="total">   45.68   45.69</time>
   <energy>
    <i name="e_fr_energy">   -309.21664994 </i>
    <i name="e_wo_entrp">   -309.21664994 </i>
    <i name="e_0_energy">   -309.21664994 </i>
   </energy>
  </scstep>
  <scstep>
   <time name="total">   48.97   48.97</time>
   <energy>
    <i name="e_fr_energy">   -309.21616031 </i>
    <i name="e_wo_entrp">   -309.21616031 </i>
    <i name="e_0_energy">   -309.21616031 </i>
   </energy>
  </scstep>
  <scstep>
   <time name="total">   48.12   48.12</time>
   <energy>
    <i name="e_fr_energy">   -309.21628452 </i>
    <i name="e_wo_entrp">   -309.21628452 </i>
    <i name="e_0_energy">   -309.21628452 </i>
   </energy>
  </scstep>
  <scstep>
   <time name="total">   48.39   48.39</time>
   <energy>
    <i name="e_fr_energy">   -309.21643923 </i>
    <i name="e_wo_entrp">   -309.21643923 </i>
    <i name="e_0_energy">   -309.21643923 </i>
   </energy>
  </scstep>
  <scstep>
   <time name="total">   48.65   48.65</time>
   <energy>
    <i name="e_fr_energy">   -309.21639920 </i>
    <i name="e_wo_entrp">   -309.21639920 </i>
    <i name="e_0_energy">   -309.21639920 </i>
   </energy>
  </scstep>
  <kpoints>
   <generation param="Gamma">
    <v type="int" name="divisions">       6        6        6 </v>
    <v name="usershift">      0.00000000       0.00000000       0.00000000 </v>
    <v name="genvec1">      0.16666667       0.00000000       0.00000000 </v>
    <v name="genvec2">      0.00000000       0.16666667       0.00000000 </v>
    <v name="genvec3">      0.00000000       0.00000000       0.16666667 </v>
    <v name="shift">      0.00000000       0.00000000       0.00000000 </v>
   </generation>
   <varray name="kpointlist" >
    <v>       0.00000000       0.00000000       0.00000000 </v>
    <v>       0.16666667      -0.00000000       0.00000000 </v>
    <v>       0.33333333      -0.00000000      -0.00000000 </v>
    <v>       0.50000000       0.00000000      -0.00000000 </v>
    <v>       0.16666667       0.16666667       0.00000000 </v>
    <v>       0.33333333       0.16666667      -0.00000000 </v>
    <v>       0.50000000       0.16666667      -0.00000000 </v>
    <v>      -0.33333333       0.16666667       0.00000000 </v>
    <v>      -0.16666667       0.16666667      -0.00000000 </v>
    <v>       0.33333333       0.33333333       0.00000000 </v>
    <v>       0.50000000       0.33333333      -0.00000000 </v>
    <v>      -0.33333333       0.33333333      -0.00000000 </v>
    <v>       0.50000000       0.50000000       0.00000000 </v>
    <v>       0.16666667       0.16666667       0.16666667 </v>
    <v>       0.33333333       0.16666667       0.16666667 </v>
    <v>       0.50000000       0.16666667       0.16666667 </v>
    <v>      -0.33333333       0.16666667       0.16666667 </v>
    <v>      -0.16666667       0.16666667       0.16666667 </v>
    <v>       0.33333333       0.33333333       0.16666667 </v>
    <v>       0.50000000       0.33333333       0.16666667 </v>
    <v>      -0.33333333       0.33333333       0.16666667 </v>
    <v>      -0.16666667       0.33333333       0.16666667 </v>
    <v>       0.50000000       0.50000000       0.16666667 </v>
    <v>      -0.33333333       0.50000000       0.16666667 </v>
    <v>      -0.16666667       0.50000000       0.16666667 </v>
    <v>      -0.33333333      -0.33333333       0.16666667 </v>
    <v>       0.33333333       0.33333333       0.33333333 </v>
    <v>       0.50000000       0.33333333       0.33333333 </v>
    <v>      -0.33333333       0.33333333       0.33333333 </v>
    <v>       0.50000000       0.50000000       0.33333333 </v>
    <v>      -0.33333333       0.50000000       0.33333333 </v>
    <v>       0.50000000       0.50000000       0.50000000 </v>
   </varray>
   <varray name="weights" >
    <v>       0.00462963 </v>
    <v>       0.02777778 </v>
    <v>       0.02777778 </v>
    <v>       0.01388889 </v>
    <v>       0.02777778 </v>
    <v>       0.05555556 </v>
    <v>       0.05555556 </v>
    <v>       0.05555556 </v>
    <v>       0.02777778 </v>
    <v>       0.02777778 </v>
    <v>       0.05555556 </v>
    <v>       0.02777778 </v>
    <v>       0.01388889 </v>
    <v>       0.00925926 </v>
    <v>       0.02777778 </v>
    <v>       0.02777778 </v>
    <v>       0.02777778 </v>
    <v>       0.02777778 </v>
    <v>       0.02777778 </v>
    <v>       0.05555556 </v>
    <v>       0.05555556 </v>
    <v>       0.05555556 </v>
    <v>       0.02777778 </v>
    <v>       0.05555556 </v>
    <v>       0.02777778 </v>
    <v>       0.02777778 </v>
    <v>       0.00925926 </v>
    <v>       0.02777778 </v>
    <v>       0.02777778 </v>
    <v>       0.02777778 </v>
    <v>       0.02777778 </v>
    <v>       0.00462963 </v>
   </varray>
  </kpoints>
  <dynmat>
   <varray name="hessian" >
    <v>      -3.56281528      -0.24693198      -0.25469092       0.01349244      -0.00017175      -0.00017714       0.00771866      -0.00034504      -0.00000955       0.00951009       0.00147890       0.00022529       0.00771866       0.00000113      -0.00034517       0.00951009       0.00017944       0.00148516      -0.04686470      -0.00151256      -0.00156008       0.00436146      -0.00026299      -0.00027126      -0.01425618      -0.00958084       0.00287309       0.00572526      -0.00614010      -0.01682233       0.70310721      -0.10922407      -0.11265605      -0.00196227      -0.00604572      -0.00623569       0.03210187      -0.01711662      -0.01765444      -0.00297285      -0.00243554      -0.00251207      -0.01425618       0.00316803      -0.00948740       0.00572526      -0.01662438      -0.00665744      -0.11117726       0.05373092      -0.05568871      -0.00406426       0.00309716      -0.00353951      -0.11614567       0.05125561       0.05286613      -0.00481671       0.00242384       0.00250000      -0.11614567      -0.06997694      -0.07217571      -0.00481671      -0.00324722      -0.00334925      -0.11117726      -0.05732383       0.05198291      -0.00406426      -0.00363361       0.00298621       0.86133607       0.31739733       0.32737039      -0.00551162       0.00671118       0.00692206      -0.01313413       0.00648241      -0.00132492       0.00506223       0.01016706       0.01925746      -0.01313413      -0.00152477       0.00643833       0.00506223       0.01893380       0.01075779       0.02540254       0.01954428       0.02015839      -0.00333146       0.00249767       0.00257615       0.12941506      -0.06260682       0.13801003       0.11890247      -0.05041835      -0.11887544       0.00693904      -0.00289439      -0.00685681       0.00690145      -0.00330449       0.00608564       0.11890247       0.06063640      -0.11854002       0.12941506       0.05862573       0.14176128       0.00690145       0.00342628       0.00544338       0.00693904       0.00277667      -0.00668134      -0.01101874       0.00846741       0.00352876       0.01045258       0.01130076      -0.01742522       0.69362680       0.10656772      -0.10626357      -0.00708178       0.00858557      -0.00910433       0.02784933       0.01760791      -0.01542317      -0.00244967       0.00302021      -0.00232754      -0.01294213       0.00049551      -0.00636298       0.00465383       0.01691174      -0.00565192       0.11890247      -0.12035863       0.05694123       0.12941506       0.13988027       0.06298205       0.12941506       0.13988027      -0.05830855       0.11890247      -0.11725922      -0.05407079       0.00690145       0.00533481       0.00359299       0.00693904      -0.00676402       0.00256870       0.00693904      -0.00676402      -0.00310507       0.00690145       0.00618493      -0.00311470       0.69362680      -0.10950861       0.10323027      -0.00708178      -0.00936551       0.00829989      -0.01294213      -0.00637526       0.00029848       0.00465383      -0.00617226       0.01672885      -0.01101874       0.00326520       0.00857250       0.01045258      -0.01776639       0.01075643       0.02784933      -0.01596036       0.01712249      -0.00244967      -0.00241984       0.00294678 </v>
    <v>      -0.24693198      -3.57763687      -0.26244976      -0.00017175       0.00770315      -0.00001487      -0.00034504       0.01347693      -0.00017751       0.00147890       0.00959886       0.00023215       0.00000113       0.00771873      -0.00035568       0.00017944      -0.04690470      -0.00151621      -0.00151256       0.00947007       0.00143900      -0.00026299       0.00434567      -0.00027952      -0.00958084      -0.00765043       0.00838986      -0.00614010       0.00428429       0.01623148      -0.10922407       0.68706170       0.09989556      -0.00604572      -0.01331492       0.00011146      -0.01711662       0.00940562       0.01023140      -0.00243554      -0.00259539       0.00287271       0.00316803      -0.01082565       0.00829161      -0.01662438       0.02687134       0.01693039      -0.05732383       0.11900186      -0.12060036      -0.00363361       0.00689523       0.00598215      -0.06997694       0.12907434       0.13965885      -0.00324722       0.00692492      -0.00678487       0.05125561       0.12907434       0.13965885       0.00242384       0.00692492      -0.00678487       0.05373092       0.11900186      -0.11703320       0.00309716       0.00689523       0.00553546       0.31739733       0.88038820       0.33734328       0.00671118      -0.01273814      -0.00111776       0.00648241      -0.00511563       0.00688541       0.01016706       0.00567252       0.01984411      -0.00152477      -0.01322565       0.00663446       0.01893380       0.02655739       0.02049034       0.01954428       0.00621709       0.01136765       0.00249767      -0.00318153       0.00265463       0.05862573      -0.11648633       0.05703208       0.06063640      -0.11107781      -0.05928163       0.00277667      -0.00483083       0.00229533       0.00342628      -0.00407049      -0.00335846      -0.05041835      -0.11107781       0.04844852      -0.06260682      -0.11648633      -0.06795346      -0.00330449      -0.00407049       0.00315093      -0.00289439      -0.00483083      -0.00355129       0.00846741      -0.00656996      -0.00900252       0.01130076       0.01113092      -0.01795605       0.10656772       0.70002354      -0.10950074       0.00858557      -0.01050692       0.00325710       0.01760791       0.00568988      -0.00611737       0.00302021      -0.00226837      -0.00239845       0.00049551      -0.01291238      -0.00655682       0.01691174       0.02888537      -0.01559975      -0.11725922       0.11177071      -0.05238613       0.13988027       0.13781159       0.06490071       0.13988027       0.13781159      -0.06008484      -0.12035863       0.11177071       0.05534402       0.00618493       0.00724720      -0.00300826      -0.00676402       0.00653302       0.00264696      -0.00676402       0.00653302      -0.00319966       0.00533481       0.00724720       0.00350113      -0.10950861       0.69654210      -0.10960846      -0.00936551      -0.01482482       0.00312349      -0.00637526      -0.00233506      -0.00622953      -0.00617226       0.00535572      -0.01632781       0.00326520      -0.01406310      -0.00923438      -0.01776639       0.03105491      -0.01733955      -0.01596036       0.00474728      -0.00614654      -0.00241984      -0.00311857      -0.00242476 </v>
    <v>      -0.25469092      -0.26244976      -3.59388023      -0.00017714      -0.00001487       0.00770223      -0.00000955      -0.00017751       0.00770223       0.00022529       0.00023215      -0.04694445      -0.00034517      -0.00035568       0.01346043       0.00148516      -0.00151621       0.00955913      -0.00156008       0.00143900       0.00955913      -0.00027126      -0.00027952       0.00432837       0.00287309       0.00838986      -0.01030949      -0.01682233       0.01623148       0.02789747      -0.11265605       0.09989556       0.69324406      -0.00623569       0.00011146      -0.01330803      -0.01765444       0.01023140       0.01003879      -0.00251207       0.00287271      -0.00241762      -0.00948740       0.00829161      -0.00713426      -0.00665744       0.01693039       0.00531041       0.05198291      -0.11703320       0.11164892       0.00298621       0.00553546       0.00725161      -0.07217571       0.13965885       0.13771720      -0.00334925      -0.00678487       0.00650504       0.05286613       0.13965885       0.13771720       0.00250000      -0.00678487       0.00650504      -0.05568871      -0.12060036       0.11164892      -0.00353951       0.00598215       0.00725161       0.32737039       0.33734328       0.90126512       0.00692206      -0.00111776      -0.01280732      -0.00132492       0.00688541      -0.01280732       0.01925746       0.01984411       0.02780545       0.00643833       0.00663446      -0.00469729       0.01075779       0.02049034       0.00692058       0.02015839       0.01136765       0.00692058       0.00257615       0.00265463      -0.00301725       0.14176128      -0.06795346       0.13771720      -0.11854002       0.04844852       0.11164892      -0.00668134      -0.00355129       0.00650504       0.00544338       0.00315093       0.00725161      -0.11887544      -0.05928163       0.11164892       0.13801003       0.05703208       0.13771720       0.00608564      -0.00335846       0.00725161      -0.00685681       0.00229533       0.00650504       0.00352876      -0.00900252      -0.01462740      -0.01742522      -0.01795605       0.02996278      -0.10626357      -0.10950074       0.68976262      -0.00910433       0.00325710      -0.01462740      -0.01542317      -0.00611737       0.00436780      -0.00232754      -0.00239845      -0.00326782      -0.00636298      -0.00655682      -0.00273070      -0.00565192      -0.01559975       0.00436780      -0.05407079       0.05534402      -0.11119970      -0.05830855      -0.06008484      -0.11658084       0.06298205       0.06490071      -0.11658084       0.05694123      -0.05238613      -0.11119970      -0.00311470       0.00350113      -0.00406607      -0.00310507      -0.00319966      -0.00485881       0.00256870       0.00264696      -0.00485881       0.00359299      -0.00300826      -0.00406607       0.10323027      -0.10960846       0.69324406       0.00829989       0.00312349      -0.01030949       0.00029848      -0.00622953      -0.01330803       0.01672885      -0.01632781       0.02789747       0.00857250      -0.00923438      -0.00713426       0.01075643      -0.01733955       0.01003879       0.01712249      -0.00614654       0.00531041       0.00294678      -0.00242476      -0.00241762 </v>
    <v>       0.01349244      -0.00017175      -0.00017714      -3.56281528      -0.24693198      -0.25469092       0.00951009       0.00147890       0.00022529       0.00771866      -0.00034504      -0.00000955       0.00951009       0.00017944       0.00148516       0.00771866       0.00000113      -0.00034517       0.00436146      -0.00026299      -0.00027126      -0.04686470      -0.00151256      -0.00156008       0.00572526      -0.00614010      -0.01682233      -0.01425618      -0.00958084       0.00287309      -0.00196227      -0.00604572      -0.00623569       0.70310721      -0.10922407      -0.11265605      -0.00297285      -0.00243554      -0.00251207       0.03210187      -0.01711662      -0.01765444       0.00572526      -0.01662438      -0.00665744      -0.01425618       0.00316803      -0.00948740      -0.00406426       0.00309716      -0.00353951      -0.11117726       0.05373092      -0.05568871      -0.00481671       0.00242384       0.00250000      -0.11614567       0.05125561       0.05286613      -0.00481671      -0.00324722      -0.00334925      -0.11614567      -0.06997694      -0.07217571      -0.00406426      -0.00363361       0.00298621      -0.11117726      -0.05732383       0.05198291      -0.00551162       0.00671118       0.00692206       0.86133607       0.31739733       0.32737039       0.00506223       0.01016706       0.01925746      -0.01313413       0.00648241      -0.00132492       0.00506223       0.01893380       0.01075779      -0.01313413      -0.00152477       0.00643833      -0.00333146       0.00249767       0.00257615       0.02540254       0.01954428       0.02015839       0.11890247      -0.05041835      -0.11887544       0.12941506      -0.06260682       0.13801003       0.00690145      -0.00330449       0.00608564       0.00693904      -0.00289439      -0.00685681       0.12941506       0.05862573       0.14176128       0.11890247       0.06063640      -0.11854002       0.00693904       0.00277667      -0.00668134       0.00690145       0.00342628       0.00544338       0.01045258       0.01130076      -0.01742522      -0.01101874       0.00846741       0.00352876      -0.00708178       0.00858557      -0.00910433       0.69362680       0.10656772      -0.10626357      -0.00244967       0.00302021      -0.00232754       0.02784933       0.01760791      -0.01542317       0.00465383       0.01691174      -0.00565192      -0.01294213       0.00049551      -0.00636298       0.12941506       0.13988027       0.06298205       0.11890247      -0.12035863       0.05694123       0.11890247      -0.11725922      -0.05407079       0.12941506       0.13988027      -0.05830855       0.00693904      -0.00676402       0.00256870       0.00690145       0.00533481       0.00359299       0.00690145       0.00618493      -0.00311470       0.00693904      -0.00676402      -0.00310507      -0.00708178      -0.00936551       0.00829989       0.69362680      -0.10950861       0.10323027       0.00465383      -0.00617226       0.01672885      -0.01294213      -0.00637526       0.00029848       0.01045258      -0.01776639       0.01075643      -0.01101874       0.00326520       0.00857250      -0.00244967      -0.00241984       0.00294678       0.02784933      -0.01596036       0.01712249 </v>
    <v>      -0.00017175       0.00770315      -0.00001487      -0.24693198      -3.57763687      -0.26244976       0.00147890       0.00959886       0.00023215      -0.00034504       0.01347693      -0.00017751       0.00017944      -0.04690470      -0.00151621       0.00000113       0.00771873      -0.00035568      -0.00026299       0.00434567      -0.00027952      -0.00151256       0.00947007       0.00143900      -0.00614010       0.00428429       0.01623148      -0.00958084      -0.00765043       0.00838986      -0.00604572      -0.01331492       0.00011146      -0.10922407       0.68706170       0.09989556      -0.00243554      -0.00259539       0.00287271      -0.01711662       0.00940562       0.01023140      -0.01662438       0.02687134       0.01693039       0.00316803      -0.01082565       0.00829161      -0.00363361       0.00689523       0.00598215      -0.05732383       0.11900186      -0.12060036      -0.00324722       0.00692492      -0.00678487      -0.06997694       0.12907434       0.13965885       0.00242384       0.00692492      -0.00678487       0.05125561       0.12907434       0.13965885       0.00309716       0.00689523       0.00553546       0.05373092       0.11900186      -0.11703320       0.00671118      -0.01273814      -0.00111776       0.31739733       0.88038820       0.33734328       0.01016706       0.00567252       0.01984411       0.00648241      -0.00511563       0.00688541       0.01893380       0.02655739       0.02049034      -0.00152477      -0.01322565       0.00663446       0.00249767      -0.00318153       0.00265463       0.01954428       0.00621709       0.01136765       0.06063640      -0.11107781      -0.05928163       0.05862573      -0.11648633       0.05703208       0.00342628      -0.00407049      -0.00335846       0.00277667      -0.00483083       0.00229533      -0.06260682      -0.11648633      -0.06795346      -0.05041835      -0.11107781       0.04844852      -0.00289439      -0.00483083      -0.00355129      -0.00330449      -0.00407049       0.00315093       0.01130076       0.01113092      -0.01795605       0.00846741      -0.00656996      -0.00900252       0.00858557      -0.01050692       0.00325710       0.10656772       0.70002354      -0.10950074       0.00302021      -0.00226837      -0.00239845       0.01760791       0.00568988      -0.00611737       0.01691174       0.02888537      -0.01559975       0.00049551      -0.01291238      -0.00655682       0.13988027       0.13781159       0.06490071      -0.11725922       0.11177071      -0.05238613      -0.12035863       0.11177071       0.05534402       0.13988027       0.13781159      -0.06008484      -0.00676402       0.00653302       0.00264696       0.00618493       0.00724720      -0.00300826       0.00533481       0.00724720       0.00350113      -0.00676402       0.00653302      -0.00319966      -0.00936551      -0.01482482       0.00312349      -0.10950861       0.69654210      -0.10960846      -0.00617226       0.00535572      -0.01632781      -0.00637526      -0.00233506      -0.00622953      -0.01776639       0.03105491      -0.01733955       0.00326520      -0.01406310      -0.00923438      -0.00241984      -0.00311857      -0.00242476      -0.01596036       0.00474728      -0.00614654 </v>
    <v>      -0.00017714      -0.00001487       0.00770223      -0.25469092      -0.26244976      -3.59388023       0.00022529       0.00023215      -0.04694445      -0.00000955      -0.00017751       0.00770223       0.00148516      -0.00151621       0.00955913      -0.00034517      -0.00035568       0.01346043      -0.00027126      -0.00027952       0.00432837      -0.00156008       0.00143900       0.00955913      -0.01682233       0.01623148       0.02789747       0.00287309       0.00838986      -0.01030949      -0.00623569       0.00011146      -0.01330803      -0.11265605       0.09989556       0.69324406      -0.00251207       0.00287271      -0.00241762      -0.01765444       0.01023140       0.01003879      -0.00665744       0.01693039       0.00531041      -0.00948740       0.00829161      -0.00713426       0.00298621       0.00553546       0.00725161       0.05198291      -0.11703320       0.11164892      -0.00334925      -0.00678487       0.00650504      -0.07217571       0.13965885       0.13771720       0.00250000      -0.00678487       0.00650504       0.05286613       0.13965885       0.13771720      -0.00353951       0.00598215       0.00725161      -0.05568871      -0.12060036       0.11164892       0.00692206      -0.00111776      -0.01280732       0.32737039       0.33734328       0.90126512       0.01925746       0.01984411       0.02780545      -0.00132492       0.00688541      -0.01280732       0.01075779       0.02049034       0.00692058       0.00643833       0.00663446      -0.00469729       0.00257615       0.00265463      -0.00301725       0.02015839       0.01136765       0.00692058      -0.11854002       0.04844852       0.11164892       0.14176128      -0.06795346       0.13771720       0.00544338       0.00315093       0.00725161      -0.00668134      -0.00355129       0.00650504       0.13801003       0.05703208       0.13771720      -0.11887544      -0.05928163       0.11164892      -0.00685681       0.00229533       0.00650504       0.00608564      -0.00335846       0.00725161      -0.01742522      -0.01795605       0.02996278       0.00352876      -0.00900252      -0.01462740      -0.00910433       0.00325710      -0.01462740      -0.10626357      -0.10950074       0.68976262      -0.00232754      -0.00239845      -0.00326782      -0.01542317      -0.00611737       0.00436780      -0.00565192      -0.01559975       0.00436780      -0.00636298      -0.00655682      -0.00273070      -0.05830855      -0.06008484      -0.11658084      -0.05407079       0.05534402      -0.11119970       0.05694123      -0.05238613      -0.11119970       0.06298205       0.06490071      -0.11658084      -0.00310507      -0.00319966      -0.00485881      -0.00311470       0.00350113      -0.00406607       0.00359299      -0.00300826      -0.00406607       0.00256870       0.00264696      -0.00485881       0.00829989       0.00312349      -0.01030949       0.10323027      -0.10960846       0.69324406       0.01672885      -0.01632781       0.02789747       0.00029848      -0.00622953      -0.01330803       0.01075643      -0.01733955       0.01003879       0.00857250      -0.00923438      -0.00713426       0.00294678      -0.00242476      -0.00241762       0.01712249      -0.00614654       0.00531041 </v>
    <v>       0.00771866      -0.00034504      -0.00000955       0.00951009       0.00147890       0.00022529      -3.56281528      -0.24693198      -0.25469092       0.01349244      -0.00017175      -0.00017714      -0.04686470      -0.00151256      -0.00156008       0.00436146      -0.00026299      -0.00027126       0.00771866       0.00000113      -0.00034517       0.00951009       0.00017944       0.00148516       0.70310721      -0.10922407      -0.11265605      -0.00196227      -0.00604572      -0.00623569      -0.01425618      -0.00958084       0.00287309       0.00572526      -0.00614010      -0.01682233      -0.01425618       0.00316803      -0.00948740       0.00572526      -0.01662438      -0.00665744       0.03210187      -0.01711662      -0.01765444      -0.00297285      -0.00243554      -0.00251207      -0.11614567       0.05125561       0.05286613      -0.00481671       0.00242384       0.00250000      -0.11117726       0.05373092      -0.05568871      -0.00406426       0.00309716      -0.00353951      -0.11117726      -0.05732383       0.05198291      -0.00406426      -0.00363361       0.00298621      -0.11614567      -0.06997694      -0.07217571      -0.00481671      -0.00324722      -0.00334925      -0.01313413       0.00648241      -0.00132492       0.00506223       0.01016706       0.01925746       0.86133607       0.31739733       0.32737039      -0.00551162       0.00671118       0.00692206       0.02540254       0.01954428       0.02015839      -0.00333146       0.00249767       0.00257615      -0.01313413      -0.00152477       0.00643833       0.00506223       0.01893380       0.01075779       0.00693904      -0.00289439      -0.00685681       0.00690145      -0.00330449       0.00608564       0.12941506      -0.06260682       0.13801003       0.11890247      -0.05041835      -0.11887544       0.00690145       0.00342628       0.00544338       0.00693904       0.00277667      -0.00668134       0.11890247       0.06063640      -0.11854002       0.12941506       0.05862573       0.14176128       0.69362680       0.10656772      -0.10626357      -0.00708178       0.00858557      -0.00910433      -0.01101874       0.00846741       0.00352876       0.01045258       0.01130076      -0.01742522      -0.01294213       0.00049551      -0.00636298       0.00465383       0.01691174      -0.00565192       0.02784933       0.01760791      -0.01542317      -0.00244967       0.00302021      -0.00232754       0.12941506       0.13988027      -0.05830855       0.11890247      -0.11725922      -0.05407079       0.11890247      -0.12035863       0.05694123       0.12941506       0.13988027       0.06298205       0.00693904      -0.00676402      -0.00310507       0.00690145       0.00618493      -0.00311470       0.00690145       0.00533481       0.00359299       0.00693904      -0.00676402       0.00256870      -0.01294213      -0.00637526       0.00029848       0.00465383      -0.00617226       0.01672885       0.69362680      -0.10950861       0.10323027      -0.00708178      -0.00936551       0.00829989       0.02784933      -0.01596036       0.01712249      -0.00244967      -0.00241984       0.00294678      -0.01101874       0.00326520       0.00857250       0.01045258      -0.01776639       0.01075643 </v>
[...]
      </set>
     </set>
    </set>
   </array>
  </eigenvalues>
  <separator name="orbital magnetization" >
   <v name="MAGDIPOLOUT">      0.00000000      0.00000000      0.00000000</v>
  </separator>
  <dos>
   <i name="efermi">      9.77919151 </i>
   <total>
    <array>
     <dimension dim="1">gridpoints</dimension>
     <dimension dim="2">spin</dimension>
     <field>energy</field>
     <field>total</field>
     <field>integrated</field>
     <set>
      <set comment="spin 1">
       <r>   -13.3951     0.0000     0.0000 </r>
       <r>   -13.2744     0.0000     0.0000 </r>
       <r>   -13.1538     0.0000     0.0000 </r>
       <r>   -13.0332     0.0000     0.0000 </r>
       <r>   -12.9126     0.0000     0.0000 </r>
       <r>   -12.7920     0.0000     0.0000 </r>
       <r>   -12.6713     0.0000     0.0000 </r>
       <r>   -12.5507     0.0000     0.0000 </r>
       <r>   -12.4301     0.0000     0.0000 </r>
       <r>   -12.3095     0.0000     0.0000 </r>
       <r>   -12.1889     0.0000     0.0000 </r>
       <r>   -12.0682     0.0000     0.0000 </r>
       <r>   -11.9476     0.0000     0.0000 </r>
       <r>   -11.8270     0.0029     0.0004 </r>
       <r>   -11.7064     0.2353     0.0287 </r>
       <r>   -11.5858     1.2230     0.1763 </r>
       <r>   -11.4651     1.4222     0.3478 </r>
       <r>   -11.3445     2.8043     0.6860 </r>
       <r>   -11.2239     1.5834     0.8770 </r>
       <r>   -11.1033     3.5172     1.3013 </r>
       <r>   -10.9827     2.8992     1.6510 </r>
       <r>   -10.8620     3.7670     2.1054 </r>
       <r>   -10.7414     2.4372     2.3993 </r>
       <r>   -10.6208     4.5808     2.9519 </r>
       <r>   -10.5002     4.3655     3.4784 </r>
       <r>   -10.3795     4.8557     4.0641 </r>
       <r>   -10.2589     2.6591     4.3849 </r>
       <r>   -10.1383     4.7335     4.9558 </r>
       <r>   -10.0177     6.0496     5.6856 </r>
       <r>    -9.8971     5.5857     6.3593 </r>
       <r>    -9.7764     4.3993     6.8899 </r>
       <r>    -9.6558     4.8772     7.4782 </r>
       <r>    -9.5352     5.5007     8.1417 </r>
       <r>    -9.4146     6.1170     8.8796 </r>
       <r>    -9.2940     5.1949     9.5062 </r>
       <r>    -9.1733     7.5313    10.4146 </r>
       <r>    -9.0527     6.3194    11.1769 </r>
       <r>    -8.9321     6.3351    11.9410 </r>
       <r>    -8.8115     4.5385    12.4885 </r>
       <r>    -8.6909     7.0512    13.3390 </r>
       <r>    -8.5702     6.6007    14.1352 </r>
       <r>    -8.4496     8.2371    15.1287 </r>
       <r>    -8.3290     8.6099    16.1673 </r>
       <r>    -8.2084     6.6586    16.9704 </r>
       <r>    -8.0878     6.5433    17.7597 </r>
       <r>    -7.9671     7.3512    18.6464 </r>
       <r>    -7.8465     6.3093    19.4074 </r>
       <r>    -7.7259     8.9315    20.4848 </r>
       <r>    -7.6053     9.7508    21.6609 </r>
       <r>    -7.4847     7.9715    22.6224 </r>
       <r>    -7.3640     7.8175    23.5654 </r>
       <r>    -7.2434    10.2280    24.7991 </r>
       <r>    -7.1228     8.6537    25.8429 </r>
       <r>    -7.0022     7.9544    26.8024 </r>
       <r>    -6.8815     8.0775    27.7767 </r>
       <r>    -6.7609     9.0061    28.8630 </r>
       <r>    -6.6403    10.6259    30.1447 </r>
       <r>    -6.5197    10.8554    31.4541 </r>
       <r>    -6.3991    12.2799    32.9353 </r>
       <r>    -6.2784    11.2036    34.2867 </r>
       <r>    -6.1578    11.1545    35.6322 </r>
       <r>    -6.0372    11.6176    37.0335 </r>
       <r>    -5.9166    12.3256    38.5202 </r>
       <r>    -5.7960     9.4160    39.6560 </r>
       <r>    -5.6753     8.7043    40.7059 </r>
       <r>    -5.5547    12.8505    42.2559 </r>
       <r>    -5.4341    13.0293    43.8275 </r>
       <r>    -5.3135    12.5959    45.3468 </r>
       <r>    -5.1929    10.1286    46.5686 </r>
       <r>    -5.0722    10.0621    47.7823 </r>
       <r>    -4.9516    10.3646    49.0324 </r>
       <r>    -4.8310     9.3393    50.1590 </r>
       <r>    -4.7104     8.9143    51.2342 </r>
       <r>    -4.5898    11.1285    52.5765 </r>
       <r>    -4.4691     5.2035    53.2042 </r>
       <r>    -4.3485     7.5797    54.1185 </r>
       <r>    -4.2279     9.3649    55.2481 </r>
       <r>    -4.1073    10.4226    56.5052 </r>
       <r>    -3.9866    11.8641    57.9363 </r>
       <r>    -3.8660     8.7125    58.9872 </r>
       <r>    -3.7454     4.1375    59.4863 </r>
       <r>    -3.6248     5.2661    60.1215 </r>
       <r>    -3.5042     6.9774    60.9631 </r>
       <r>    -3.3835     6.1533    61.7053 </r>
       <r>    -3.2629    10.0597    62.9187 </r>
       <r>    -3.1423    10.6930    64.2085 </r>
       <r>    -3.0217     6.6955    65.0161 </r>
       <r>    -2.9011     8.3830    66.0273 </r>
       <r>    -2.7804    11.8803    67.4603 </r>
       <r>    -2.6598     8.0384    68.4299 </r>
       <r>    -2.5392     7.9331    69.3868 </r>
       <r>    -2.4186     8.1740    70.3727 </r>
       <r>    -2.2980    10.4036    71.6276 </r>
       <r>    -2.1773    13.8247    73.2952 </r>
       <r>    -2.0567    13.7871    74.9582 </r>
       <r>    -1.9361    12.9468    76.5199 </r>
       <r>    -1.8155    20.8685    79.0370 </r>
       <r>    -1.6949    23.5115    81.8730 </r>
       <r>    -1.5742    18.2672    84.0764 </r>
       <r>    -1.4536    16.0344    86.0105 </r>
       <r>    -1.3330    18.1973    88.2054 </r>
       <r>    -1.2124    10.0468    89.4173 </r>
       <r>    -1.0918    11.9655    90.8606 </r>
       <r>    -0.9711     9.4876    92.0050 </r>
       <r>    -0.8505    11.1567    93.3507 </r>
       <r>    -0.7299    10.1900    94.5798 </r>
       <r>    -0.6093     9.9081    95.7750 </r>
       <r>    -0.4886    12.8084    97.3199 </r>
       <r>    -0.3680    12.5653    98.8356 </r>
       <r>    -0.2474    10.1904   100.0647 </r>
       <r>    -0.1268     7.9873   101.0282 </r>
       <r>    -0.0062     5.8852   101.7380 </r>
       <r>     0.1145     7.8223   102.6816 </r>
       <r>     0.2351     9.9934   103.8870 </r>
       <r>     0.3557     9.3205   105.0112 </r>
       <r>     0.4763    11.3553   106.3809 </r>
       <r>     0.5969     8.6511   107.4244 </r>
       <r>     0.7176    13.1368   109.0090 </r>
       <r>     0.8382    18.7490   111.2705 </r>
       <r>     0.9588    19.5605   113.6299 </r>
       <r>     1.0794    18.5411   115.8663 </r>
       <r>     1.2000    15.1111   117.6891 </r>
       <r>     1.3207    14.4842   119.4361 </r>
       <r>     1.4413    14.6375   121.2017 </r>
       <r>     1.5619    12.7513   122.7398 </r>
       <r>     1.6825    21.2967   125.3086 </r>
       <r>     1.8031    16.1273   127.2539 </r>
       <r>     1.9238    17.1259   129.3197 </r>
       <r>     2.0444    19.1123   131.6250 </r>
       <r>     2.1650    18.3247   133.8353 </r>
       <r>     2.2856    16.8403   135.8666 </r>
       <r>     2.4062    16.2755   137.8298 </r>
       <r>     2.5269    15.3877   139.6858 </r>
       <r>     2.6475    23.4851   142.5186 </r>
       <r>     2.7681    15.7662   144.4204 </r>
       <r>     2.8887    18.4030   146.6402 </r>
       <r>     3.0094    27.3293   149.9366 </r>
       <r>     3.1300    24.6699   152.9123 </r>
       <r>     3.2506    25.3256   155.9671 </r>
       <r>     3.3712    14.7206   157.7427 </r>
       <r>     3.4918    21.8462   160.3779 </r>
       <r>     3.6125    25.2577   163.4245 </r>
       <r>     3.7331    23.9663   166.3153 </r>
       <r>     3.8537    30.7799   170.0280 </r>
       <r>     3.9743    25.7501   173.1340 </r>
       <r>     4.0949    23.0843   175.9184 </r>
       <r>     4.2156    26.2589   179.0858 </r>
       <r>     4.3362    23.2789   181.8937 </r>
       <r>     4.4568    17.1080   183.9573 </r>
       <r>     4.5774    26.6147   187.1676 </r>
       <r>     4.6980    28.4389   190.5979 </r>
       <r>     4.8187    22.3206   193.2902 </r>
       <r>     4.9393    20.6999   195.7870 </r>
       <r>     5.0599    24.6451   198.7598 </r>
       <r>     5.1805    22.1351   201.4297 </r>
       <r>     5.3011    23.7831   204.2984 </r>
       <r>     5.4218    23.6930   207.1563 </r>
       <r>     5.5424    19.3963   209.4959 </r>
       <r>     5.6630    21.5697   212.0977 </r>
       <r>     5.7836    20.3777   214.5556 </r>
       <r>     5.9043    24.0449   217.4559 </r>
       <r>     6.0249    20.6774   219.9501 </r>
       <r>     6.1455    23.2927   222.7597 </r>
       <r>     6.2661    21.4196   225.3433 </r>
       <r>     6.3867    19.6624   227.7150 </r>
       <r>     6.5074    18.2738   229.9192 </r>
       <r>     6.6280    17.2605   232.0012 </r>
       <r>     6.7486    18.4080   234.2216 </r>
       <r>     6.8692    20.3054   236.6708 </r>
       <r>     6.9898    23.8251   239.5446 </r>
       <r>     7.1105     7.8578   240.4924 </r>
       <r>     7.2311     9.4609   241.6336 </r>
       <r>     7.3517    14.5947   243.3940 </r>
       <r>     7.4723    11.4544   244.7757 </r>
       <r>     7.5929    10.8854   246.0887 </r>
       <r>     7.7136    11.4380   247.4683 </r>
       <r>     7.8342     7.2456   248.3423 </r>
       <r>     7.9548     6.4610   249.1216 </r>
       <r>     8.0754     7.2825   250.0001 </r>
       <r>     8.1960     9.0961   251.0972 </r>
       <r>     8.3167     6.3111   251.8585 </r>
       <r>     8.4373     4.4787   252.3987 </r>
       <r>     8.5579     4.7853   252.9759 </r>
       <r>     8.6785     6.6272   253.7753 </r>
       <r>     8.7991     4.3097   254.2951 </r>
       <r>     8.9198     3.3377   254.6977 </r>
       <r>     9.0404     2.3392   254.9799 </r>
       <r>     9.1610     3.2905   255.3768 </r>
       <r>     9.2816     3.3072   255.7757 </r>
       <r>     9.4023     0.8501   255.8782 </r>
       <r>     9.5229     0.8875   255.9853 </r>
       <r>     9.6435     0.1214   255.9999 </r>
       <r>     9.7641     0.0005   256.0000 </r>
       <r>     9.8847     0.0000   256.0000 </r>
       <r>    10.0054     0.0000   256.0000 </r>
       <r>    10.1260     0.0000   256.0000 </r>
       <r>    10.2466     0.0000   256.0000 </r>
       <r>    10.3672     0.0000   256.0000 </r>
       <r>    10.4878     0.0000   256.0000 </r>
       <r>    10.6085     0.0000   256.0000 </r>
       <r>    10.7291     0.0000   256.0000 </r>
       <r>    10.8497     0.0000   256.0000 </r>
       <r>    10.9703     0.0000   256.0000 </r>
       <r>    11.0909     0.0000   256.0000 </r>
       <r>    11.2116     0.0000   256.0000 </r>
       <r>    11.3322     0.0000   256.0000 </r>
       <r>    11.4528     0.0000   256.0000 </r>
       <r>    11.5734     0.0000   256.0000 </r>
       <r>    11.6940     0.0000   256.0000 </r>
       <r>    11.8147     0.0000   256.0000 </r>
       <r>    11.9353     0.0000   256.0000 </r>
       <r>    12.0559     0.0000   256.0000 </r>
       <r>    12.1765     0.0000   256.0000 </r>
       <r>    12.2971     0.0000   256.0000 </r>
       <r>    12.4178     0.0000   256.0000 </r>
       <r>    12.5384     0.0000   256.0000 </r>
       <r>    12.6590     0.0000   256.0000 </r>
       <r>    12.7796     0.0000   256.0000 </r>
       <r>    12.9003     0.0000   256.0000 </r>
       <r>    13.0209     0.0000   256.0000 </r>
       <r>    13.1415     0.0000   256.0000 </r>
       <r>    13.2621     0.0000   256.0000 </r>
       <r>    13.3827     0.0024   256.0003 </r>
       <r>    13.5034     0.5197   256.0630 </r>
       <r>    13.6240     1.3309   256.2235 </r>
       <r>    13.7446     2.8315   256.5651 </r>
       <r>    13.8652     7.6872   257.4923 </r>
       <r>    13.9858     3.8314   257.9544 </r>
       <r>    14.1065     5.0262   258.5607 </r>
       <r>    14.2271     7.6338   259.4815 </r>
       <r>    14.3477     5.5041   260.1454 </r>
       <r>    14.4683     5.5244   260.8118 </r>
       <r>    14.5889    11.4424   262.1920 </r>
       <r>    14.7096    10.2029   263.4226 </r>
       <r>    14.8302    11.0196   264.7518 </r>
       <r>    14.9508    11.6235   266.1539 </r>
       <r>    15.0714    13.3379   267.7627 </r>
       <r>    15.1920    14.3357   269.4919 </r>
       <r>    15.3127    13.0353   271.0642 </r>
       <r>    15.4333    10.8645   272.3747 </r>
       <r>    15.5539    12.8291   273.9221 </r>
       <r>    15.6745    15.3564   275.7744 </r>
       <r>    15.7952    20.8958   278.2949 </r>
       <r>    15.9158    20.3939   280.7548 </r>
       <r>    16.0364    19.2093   283.0719 </r>
       <r>    16.1570    20.9075   285.5938 </r>
       <r>    16.2776    17.6667   287.7247 </r>
       <r>    16.3983    17.1384   289.7920 </r>
       <r>    16.5189    17.9965   291.9627 </r>
       <r>    16.6395    16.7089   293.9782 </r>
       <r>    16.7601    19.8114   296.3678 </r>
       <r>    16.8807    21.0089   298.9019 </r>
       <r>    17.0014    39.7662   303.6985 </r>
       <r>    17.1220    35.4624   307.9760 </r>
       <r>    17.2426    32.6694   311.9166 </r>
       <r>    17.3632    26.2478   315.0827 </r>
       <r>    17.4838    26.1389   318.2356 </r>
       <r>    17.6045    32.7933   322.1911 </r>
       <r>    17.7251    34.2964   326.3280 </r>
       <r>    17.8457    35.7120   330.6356 </r>
       <r>    17.9663    26.1937   333.7951 </r>
       <r>    18.0869    29.7492   337.3835 </r>
       <r>    18.2076    27.8747   340.7457 </r>
       <r>    18.3282    28.6403   344.2004 </r>
       <r>    18.4488    27.7139   347.5432 </r>
       <r>    18.5694    27.2184   350.8263 </r>
       <r>    18.6900    24.4616   353.7769 </r>
       <r>    18.8107    29.5911   357.3462 </r>
       <r>    18.9313    24.3443   360.2827 </r>
       <r>    19.0519    18.9335   362.5664 </r>
       <r>    19.1725    27.7905   365.9185 </r>
       <r>    19.2932    22.6429   368.6497 </r>
       <r>    19.4138    27.9189   372.0173 </r>
       <r>    19.5344    30.1637   375.6557 </r>
       <r>    19.6550    25.7623   378.7632 </r>
       <r>    19.7756    17.3099   380.8511 </r>
       <r>    19.8963    11.4946   382.2376 </r>
       <r>    20.0169     3.7361   382.6883 </r>
       <r>    20.1375     1.3934   382.8563 </r>
       <r>    20.2581     1.9736   383.0944 </r>
       <r>    20.3787     2.4081   383.3849 </r>
       <r>    20.4994     1.3832   383.5517 </r>
       <r>    20.6200     1.2330   383.7004 </r>
       <r>    20.7406     1.4821   383.8792 </r>
       <r>    20.8612     0.6127   383.9531 </r>
       <r>    20.9818     0.0818   383.9630 </r>
       <r>    21.1025     0.0463   383.9685 </r>
       <r>    21.2231     0.2500   383.9987 </r>
       <r>    21.3437     0.0108   384.0000 </r>
       <r>    21.4643     0.0000   384.0000 </r>
       <r>    21.5849     0.0000   384.0000 </r>
       <r>    21.7056     0.0000   384.0000 </r>
       <r>    21.8262     0.0000   384.0000 </r>
       <r>    21.9468     0.0000   384.0000 </r>
       <r>    22.0674     0.0000   384.0000 </r>
       <r>    22.1880     0.0000   384.0000 </r>
       <r>    22.3087     0.0000   384.0000 </r>
       <r>    22.4293     0.0000   384.0000 </r>
       <r>    22.5499     0.0000   384.0000 </r>
       <r>    22.6705     0.0000   384.0000 </r>
       <r>    22.7912     0.0000   384.0000 </r>
      </set>
     </set>
    </array>
   </total>
  </dos>
 </calculation>
 <structure name="finalpos" >
  <crystal>
   <varray name="basis" >
    <v>       7.17999872       0.00000000       0.00000000 </v>
    <v>      -0.21539936       7.17676605       0.00000000 </v>
    <v>      -0.21539936      -0.22196113       7.17333448 </v>
   </varray>
   <i name="volume">    369.63597930 </i>
   <varray name="rec_basis" >
    <v>       0.13927579       0.00418014       0.00431149 </v>
    <v>       0.00000000       0.13933853       0.00431149 </v>
    <v>       0.00000000       0.00000000       0.13940518 </v>
   </varray>
  </crystal>
  <varray name="positions" >
   <v>       0.12500000       0.37500000       0.12500000 </v>
   <v>       0.62500000       0.37500000       0.12500000 </v>
   <v>       0.12500000       0.87500000       0.12500000 </v>
   <v>       0.62500000       0.87500000       0.12500000 </v>
   <v>       0.12500000       0.37500000       0.62500000 </v>
   <v>       0.62500000       0.37500000       0.62500000 </v>
   <v>       0.12500000       0.87500000       0.62500000 </v>
   <v>       0.62500000       0.87500000       0.62500000 </v>
   <v>       0.00000000       0.00000000       0.25000000 </v>
   <v>       0.50000000       0.00000000       0.25000000 </v>
   <v>       0.00000000       0.50000000       0.25000000 </v>
   <v>       0.50000000       0.50000000       0.25000000 </v>
   <v>       0.00000000       0.00000000       0.75000000 </v>
   <v>       0.50000000       0.00000000       0.75000000 </v>
   <v>       0.00000000       0.50000000       0.75000000 </v>
   <v>       0.50000000       0.50000000       0.75000000 </v>
   <v>       0.12500000       0.12500000       0.37500000 </v>
   <v>       0.62500000       0.12500000       0.37500000 </v>
   <v>       0.12500000       0.62500000       0.37500000 </v>
   <v>       0.62500000       0.62500000       0.37500000 </v>
   <v>       0.12500000       0.12500000       0.87500000 </v>
   <v>       0.62500000       0.12500000       0.87500000 </v>
   <v>       0.12500000       0.62500000       0.87500000 </v>
   <v>       0.62500000       0.62500000       0.87500000 </v>
   <v>       0.00000000       0.25000000       0.00000000 </v>
   <v>       0.50000000       0.25000000       0.00000000 </v>
   <v>       0.00000000       0.75000000       0.00000000 </v>
   <v>       0.50000000       0.75000000       0.00000000 </v>
   <v>       0.00000000       0.25000000       0.50000000 </v>
   <v>       0.50000000       0.25000000       0.50000000 </v>
   <v>       0.00000000       0.75000000       0.50000000 </v>
   <v>       0.50000000       0.75000000       0.50000000 </v>
   <v>       0.37500000       0.37500000       0.37500000 </v>
   <v>       0.87500000       0.37500000       0.37500000 </v>
   <v>       0.37500000       0.87500000       0.37500000 </v>
   <v>       0.87500000       0.87500000       0.37500000 </v>
   <v>       0.37500000       0.37500000       0.87500000 </v>
   <v>       0.87500000       0.37500000       0.87500000 </v>
   <v>       0.37500000       0.87500000       0.87500000 </v>
   <v>       0.87500000       0.87500000       0.87500000 </v>
   <v>       0.25000000       0.00000000       0.00000000 </v>
   <v>       0.75000000       0.00000000       0.00000000 </v>
   <v>       0.25000000       0.50000000       0.00000000 </v>
   <v>       0.75000000       0.50000000       0.00000000 </v>
   <v>       0.25000000       0.00000000       0.50000000 </v>
   <v>       0.75000000       0.00000000       0.50000000 </v>
   <v>       0.25000000       0.50000000       0.50000000 </v>
   <v>       0.75000000       0.50000000       0.50000000 </v>
   <v>       0.37500000       0.12500000       0.12500000 </v>
   <v>       0.87500000       0.12500000       0.12500000 </v>
   <v>       0.37500000       0.62500000       0.12500000 </v>
   <v>       0.87500000       0.62500000       0.12500000 </v>
   <v>       0.37500000       0.12500000       0.62500000 </v>
   <v>       0.87500000       0.12500000       0.62500000 </v>
   <v>       0.37500000       0.62500000       0.62500000 </v>
   <v>       0.87500000       0.62500000       0.62500000 </v>
   <v>       0.25000000       0.25000000       0.25000000 </v>
   <v>       0.75000000       0.25000000       0.25000000 </v>
   <v>       0.25000000       0.75000000       0.25000000 </v>
   <v>       0.75000000       0.75000000       0.25000000 </v>
   <v>       0.25000000       0.25000000       0.75000000 </v>
   <v>       0.75000000       0.25000000       0.75000000 </v>
   <v>       0.25000000       0.75000000       0.75000000 </v>
   <v>       0.75000000       0.75000000       0.75000000 </v>
  </varray>
 </structure>
</modeling>
