   8   8   0   0
  0.5775562E+01  0.3589999E-09  0.3589999E-09  0.3590000E-09  0.2000000E-16
  1.000000000000000E-004
  CAR 
 unknown system                          
     23.34117779    -13.42122434  301      9.62420649      1.00000000
    -13.421  0.0000E+00  0.0000E+00
    -13.299  0.0000E+00  0.0000E+00
    -13.176  0.0000E+00  0.0000E+00
    -13.054  0.0000E+00  0.0000E+00
    -12.931  0.0000E+00  0.0000E+00
    -12.809  0.0000E+00  0.0000E+00
    -12.686  0.0000E+00  0.0000E+00
    -12.563  0.0000E+00  0.0000E+00
    -12.441  0.0000E+00  0.0000E+00
    -12.318  0.0000E+00  0.0000E+00
    -12.196  0.0000E+00  0.0000E+00
    -12.073  0.0000E+00  0.0000E+00
    -11.951  0.0000E+00  0.0000E+00
    -11.828  0.0000E+00  0.0000E+00
    -11.706  0.3683E-01  0.5471E-03
    -11.583  0.1572E+00  0.1539E-01
    -11.461  0.2451E+00  0.4019E-01
    -11.338  0.2783E+00  0.7186E-01
    -11.215  0.3274E+00  0.1090E+00
    -11.093  0.3658E+00  0.1519E+00
    -10.970  0.3964E+00  0.1986E+00
    -10.848  0.4296E+00  0.2491E+00
    -10.725  0.4686E+00  0.3042E+00
    -10.603  0.4905E+00  0.3629E+00
    -10.480  0.5147E+00  0.4245E+00
    -10.358  0.5421E+00  0.4892E+00
    -10.235  0.5712E+00  0.5575E+00
    -10.113  0.5970E+00  0.6292E+00
     -9.990  0.6189E+00  0.7036E+00
     -9.868  0.6431E+00  0.7809E+00
     -9.745  0.6711E+00  0.8614E+00
     -9.622  0.7018E+00  0.9455E+00
     -9.500  0.7354E+00  0.1034E+01
     -9.377  0.7364E+00  0.1123E+01
     -9.255  0.7422E+00  0.1214E+01
     -9.132  0.7626E+00  0.1306E+01
     -9.010  0.7797E+00  0.1401E+01
     -8.887  0.8041E+00  0.1498E+01
     -8.765  0.8284E+00  0.1598E+01
     -8.642  0.8480E+00  0.1700E+01
     -8.520  0.8688E+00  0.1806E+01
     -8.397  0.8918E+00  0.1913E+01
     -8.274  0.9124E+00  0.2024E+01
     -8.152  0.9317E+00  0.2137E+01
     -8.029  0.9437E+00  0.2252E+01
     -7.907  0.9612E+00  0.2369E+01
     -7.784  0.1073E+01  0.2492E+01
     -7.662  0.1108E+01  0.2627E+01
     -7.539  0.1119E+01  0.2763E+01
     -7.417  0.1085E+01  0.2899E+01
     -7.294  0.1068E+01  0.3030E+01
     -7.172  0.1066E+01  0.3160E+01
     -7.049  0.1103E+01  0.3293E+01
     -6.927  0.1138E+01  0.3430E+01
     -6.804  0.1206E+01  0.3573E+01
     -6.681  0.1187E+01  0.3719E+01
     -6.559  0.1278E+01  0.3869E+01
     -6.436  0.1303E+01  0.4027E+01
     -6.314  0.1429E+01  0.4193E+01
     -6.191  0.1464E+01  0.4373E+01
     -6.069  0.1557E+01  0.4558E+01
     -5.946  0.1476E+01  0.4748E+01
     -5.824  0.1418E+01  0.4925E+01
     -5.701  0.1401E+01  0.5097E+01
     -5.579  0.1457E+01  0.5271E+01
     -5.456  0.1446E+01  0.5451E+01
     -5.333  0.1407E+01  0.5626E+01
     -5.211  0.1335E+01  0.5793E+01
     -5.088  0.1314E+01  0.5955E+01
     -4.966  0.1257E+01  0.6111E+01
     -4.843  0.1242E+01  0.6265E+01
     -4.721  0.1176E+01  0.6414E+01
     -4.598  0.1133E+01  0.6556E+01
     -4.476  0.1073E+01  0.6691E+01
     -4.353  0.1148E+01  0.6831E+01
     -4.231  0.1053E+01  0.6964E+01
     -4.108  0.1061E+01  0.7093E+01
     -3.986  0.1019E+01  0.7220E+01
     -3.863  0.9706E+00  0.7343E+01
     -3.740  0.8947E+00  0.7457E+01
     -3.618  0.8600E+00  0.7564E+01
     -3.495  0.1011E+01  0.7675E+01
     -3.373  0.9968E+00  0.7799E+01
     -3.250  0.1079E+01  0.7933E+01
     -3.128  0.9169E+00  0.8054E+01
     -3.005  0.7951E+00  0.8157E+01
     -2.883  0.9615E+00  0.8261E+01
     -2.760  0.8073E+00  0.8367E+01
     -2.638  0.8938E+00  0.8470E+01
     -2.515  0.1040E+01  0.8588E+01
     -2.393  0.1230E+01  0.8726E+01
     -2.270  0.1504E+01  0.8893E+01
     -2.147  0.1958E+01  0.9107E+01
     -2.025  0.2129E+01  0.9361E+01
     -1.902  0.2279E+01  0.9628E+01
     -1.780  0.2835E+01  0.9939E+01
     -1.657  0.2464E+01  0.1026E+02
     -1.535  0.2250E+01  0.1056E+02
     -1.412  0.1955E+01  0.1081E+02
     -1.290  0.1704E+01  0.1104E+02
     -1.167  0.1586E+01  0.1124E+02
     -1.045  0.1501E+01  0.1143E+02
     -0.922  0.1442E+01  0.1161E+02
     -0.799  0.1387E+01  0.1178E+02
     -0.677  0.1336E+01  0.1195E+02
     -0.554  0.1284E+01  0.1211E+02
     -0.432  0.1222E+01  0.1226E+02
     -0.309  0.1206E+01  0.1241E+02
     -0.187  0.1129E+01  0.1256E+02
     -0.064  0.1098E+01  0.1269E+02
      0.058  0.1054E+01  0.1283E+02
      0.181  0.9956E+00  0.1295E+02
      0.303  0.1036E+01  0.1307E+02
      0.426  0.1216E+01  0.1321E+02
      0.548  0.1516E+01  0.1338E+02
      0.671  0.1781E+01  0.1358E+02
      0.794  0.2112E+01  0.1381E+02
      0.916  0.2273E+01  0.1410E+02
      1.039  0.2212E+01  0.1437E+02
      1.161  0.2156E+01  0.1464E+02
      1.284  0.2266E+01  0.1491E+02
      1.406  0.2225E+01  0.1519E+02
      1.529  0.1862E+01  0.1544E+02
      1.651  0.1447E+01  0.1564E+02
      1.774  0.1449E+01  0.1582E+02
      1.896  0.1796E+01  0.1602E+02
      2.019  0.2203E+01  0.1626E+02
      2.142  0.2510E+01  0.1656E+02
      2.264  0.2359E+01  0.1685E+02
      2.387  0.2287E+01  0.1714E+02
      2.509  0.2318E+01  0.1742E+02
      2.632  0.2365E+01  0.1771E+02
      2.754  0.2473E+01  0.1800E+02
      2.877  0.2927E+01  0.1834E+02
      2.999  0.2945E+01  0.1871E+02
      3.122  0.2751E+01  0.1906E+02
      3.244  0.2756E+01  0.1940E+02
      3.367  0.2613E+01  0.1973E+02
      3.489  0.2607E+01  0.2005E+02
      3.612  0.3036E+01  0.2039E+02
      3.735  0.3638E+01  0.2080E+02
      3.857  0.3460E+01  0.2125E+02
      3.980  0.3179E+01  0.2165E+02
      4.102  0.3132E+01  0.2204E+02
      4.225  0.2883E+01  0.2240E+02
      4.347  0.2930E+01  0.2275E+02
      4.470  0.2812E+01  0.2310E+02
      4.592  0.3078E+01  0.2346E+02
      4.715  0.2872E+01  0.2384E+02
      4.837  0.2902E+01  0.2419E+02
      4.960  0.2935E+01  0.2455E+02
      5.083  0.3021E+01  0.2491E+02
      5.205  0.3054E+01  0.2528E+02
      5.328  0.2923E+01  0.2565E+02
      5.450  0.2663E+01  0.2599E+02
      5.573  0.2426E+01  0.2630E+02
      5.695  0.2543E+01  0.2661E+02
      5.818  0.2678E+01  0.2693E+02
      5.940  0.2801E+01  0.2726E+02
      6.063  0.2756E+01  0.2760E+02
      6.185  0.2849E+01  0.2795E+02
      6.308  0.2703E+01  0.2829E+02
      6.430  0.2493E+01  0.2861E+02
      6.553  0.2238E+01  0.2890E+02
      6.676  0.2269E+01  0.2917E+02
      6.798  0.2258E+01  0.2944E+02
      6.921  0.2370E+01  0.2974E+02
      7.043  0.1877E+01  0.2999E+02
      7.166  0.1663E+01  0.3021E+02
      7.288  0.1481E+01  0.3040E+02
      7.411  0.1369E+01  0.3058E+02
      7.533  0.1278E+01  0.3074E+02
      7.656  0.1174E+01  0.3089E+02
      7.778  0.1067E+01  0.3103E+02
      7.901  0.9721E+00  0.3115E+02
      8.024  0.8977E+00  0.3127E+02
      8.146  0.8505E+00  0.3137E+02
      8.269  0.8010E+00  0.3147E+02
      8.391  0.6988E+00  0.3156E+02
      8.514  0.6242E+00  0.3165E+02
      8.636  0.5763E+00  0.3172E+02
      8.759  0.5285E+00  0.3179E+02
      8.881  0.4127E+00  0.3185E+02
      9.004  0.3738E+00  0.3189E+02
      9.126  0.3762E+00  0.3194E+02
      9.249  0.1855E+00  0.3197E+02
      9.371  0.1403E+00  0.3199E+02
      9.494  0.5430E-02  0.3200E+02
      9.617  0.0000E+00  0.3200E+02
      9.739  0.0000E+00  0.3200E+02
      9.862  0.0000E+00  0.3200E+02
      9.984  0.0000E+00  0.3200E+02
     10.107  0.0000E+00  0.3200E+02
     10.229  0.0000E+00  0.3200E+02
     10.352  0.0000E+00  0.3200E+02
     10.474  0.0000E+00  0.3200E+02
     10.597  0.0000E+00  0.3200E+02
     10.719  0.0000E+00  0.3200E+02
     10.842  0.0000E+00  0.3200E+02
     10.965  0.0000E+00  0.3200E+02
     11.087  0.0000E+00  0.3200E+02
     11.210  0.0000E+00  0.3200E+02
     11.332  0.0000E+00  0.3200E+02
     11.455  0.0000E+00  0.3200E+02
     11.577  0.0000E+00  0.3200E+02
     11.700  0.0000E+00  0.3200E+02
     11.822  0.0000E+00  0.3200E+02
     11.945  0.0000E+00  0.3200E+02
     12.067  0.0000E+00  0.3200E+02
     12.190  0.0000E+00  0.3200E+02
     12.312  0.0000E+00  0.3200E+02
     12.435  0.0000E+00  0.3200E+02
     12.558  0.0000E+00  0.3200E+02
     12.680  0.0000E+00  0.3200E+02
     12.803  0.0000E+00  0.3200E+02
     12.925  0.0000E+00  0.3200E+02
     13.048  0.0000E+00  0.3200E+02
     13.170  0.0000E+00  0.3200E+02
     13.293  0.0000E+00  0.3200E+02
     13.415  0.0000E+00  0.3200E+02
     13.538  0.2450E-01  0.3200E+02
     13.660  0.2770E+00  0.3202E+02
     13.783  0.7256E+00  0.3207E+02
     13.905  0.5715E+00  0.3215E+02
     14.028  0.6551E+00  0.3222E+02
     14.151  0.7526E+00  0.3231E+02
     14.273  0.8398E+00  0.3241E+02
     14.396  0.9535E+00  0.3252E+02
     14.518  0.1045E+01  0.3264E+02
     14.641  0.1278E+01  0.3279E+02
     14.763  0.1371E+01  0.3295E+02
     14.886  0.1389E+01  0.3312E+02
     15.008  0.1488E+01  0.3329E+02
     15.131  0.1584E+01  0.3348E+02
     15.253  0.1672E+01  0.3368E+02
     15.376  0.1773E+01  0.3389E+02
     15.499  0.1913E+01  0.3412E+02
     15.621  0.2016E+01  0.3436E+02
     15.744  0.2122E+01  0.3461E+02
     15.866  0.2222E+01  0.3488E+02
     15.989  0.2174E+01  0.3516E+02
     16.111  0.2193E+01  0.3542E+02
     16.234  0.2291E+01  0.3570E+02
     16.356  0.2410E+01  0.3599E+02
     16.479  0.2555E+01  0.3629E+02
     16.601  0.2712E+01  0.3661E+02
     16.724  0.2843E+01  0.3695E+02
     16.846  0.3428E+01  0.3733E+02
     16.969  0.3313E+01  0.3774E+02
     17.092  0.3411E+01  0.3815E+02
     17.214  0.4100E+01  0.3862E+02
     17.337  0.3670E+01  0.3909E+02
     17.459  0.4408E+01  0.3958E+02
     17.582  0.4419E+01  0.4014E+02
     17.704  0.3468E+01  0.4064E+02
     17.827  0.3762E+01  0.4110E+02
     17.949  0.3523E+01  0.4155E+02
     18.072  0.3103E+01  0.4194E+02
     18.194  0.3301E+01  0.4233E+02
     18.317  0.3139E+01  0.4272E+02
     18.440  0.2945E+01  0.4310E+02
     18.562  0.3087E+01  0.4346E+02
     18.685  0.3529E+01  0.4386E+02
     18.807  0.3117E+01  0.4426E+02
     18.930  0.2937E+01  0.4463E+02
     19.052  0.2844E+01  0.4499E+02
     19.175  0.2889E+01  0.4534E+02
     19.297  0.2838E+01  0.4568E+02
     19.420  0.2891E+01  0.4604E+02
     19.542  0.2792E+01  0.4639E+02
     19.665  0.2680E+01  0.4672E+02
     19.787  0.2569E+01  0.4704E+02
     19.910  0.2214E+01  0.4734E+02
     20.033  0.1637E+01  0.4758E+02
     20.155  0.1066E+01  0.4775E+02
     20.278  0.6294E+00  0.4785E+02
     20.400  0.3417E+00  0.4791E+02
     20.523  0.2114E+00  0.4794E+02
     20.645  0.1171E+00  0.4796E+02
     20.768  0.9425E-01  0.4797E+02
     20.890  0.7510E-01  0.4798E+02
     21.013  0.4438E-01  0.4799E+02
     21.135  0.2576E-01  0.4800E+02
     21.258  0.1557E-01  0.4800E+02
     21.381  0.7687E-02  0.4800E+02
     21.503  0.2556E-02  0.4800E+02
     21.626  0.1803E-03  0.4800E+02
     21.748  0.0000E+00  0.4800E+02
     21.871  0.0000E+00  0.4800E+02
     21.993  0.0000E+00  0.4800E+02
     22.116  0.0000E+00  0.4800E+02
     22.238  0.0000E+00  0.4800E+02
     22.361  0.0000E+00  0.4800E+02
     22.483  0.0000E+00  0.4800E+02
     22.606  0.0000E+00  0.4800E+02
     22.728  0.0000E+00  0.4800E+02
     22.851  0.0000E+00  0.4800E+02
     22.974  0.0000E+00  0.4800E+02
     23.096  0.0000E+00  0.4800E+02
     23.219  0.0000E+00  0.4800E+02
     23.341  0.0000E+00  0.4800E+02
