       N       E                     dE             d eps       ncg     rms          rms(c)
DAV:   1     0.578307481116E+02    0.57831E+02   -0.14398E+04  9080   0.105E+03
DAV:   2    -0.707465608776E+02   -0.12858E+03   -0.12220E+03 12520   0.221E+02
DAV:   3    -0.749054091502E+02   -0.41588E+01   -0.41384E+01 11856   0.372E+01
DAV:   4    -0.749472429782E+02   -0.41834E-01   -0.41791E-01 11384   0.411E+00
DAV:   5    -0.749480993414E+02   -0.85636E-03   -0.85598E-03 11808   0.532E-01    0.934E+00
DAV:   6    -0.731235223956E+02    0.18246E+01   -0.12182E+00 10392   0.630E+00    0.513E+00
DAV:   7    -0.725087444384E+02    0.61478E+00   -0.13914E+00 10736   0.692E+00    0.698E-01
DAV:   8    -0.725162549016E+02   -0.75105E-02   -0.31134E-02 11400   0.104E+00    0.772E-02
DAV:   9    -0.725164869586E+02   -0.23206E-03   -0.45765E-04 11144   0.144E-01    0.304E-02
DAV:  10    -0.725165453947E+02   -0.58436E-04   -0.45158E-05 11352   0.503E-02    0.317E-03
DAV:  11    -0.725165468776E+02   -0.14829E-05   -0.12540E-06  8584   0.836E-03    0.841E-04
DAV:  12    -0.725165468060E+02    0.71630E-07   -0.12175E-07  8256   0.243E-03
   1 F= -.72516547E+02 E0= -.72516547E+02  d E =0.000000E+00
