 vasp.5.4.4.18Apr17-6-g9f103f2a35 (build Mar 12 2022 03:36:41) complex          
  
 executed on IFC19.0.3.199_CrayMP date 2022.12.01  10:49:56
 running on   16 total cores
 distrk:  each k-point on   16 cores,    1 groups
 distr:  one band on NCORES_PER_BAND=   4 cores,    4 groups


--------------------------------------------------------------------------------------------------------


 INCAR:
 POTCAR:   PAW_PBE C 08Apr2002                    
 POTCAR:   PAW_PBE C 08Apr2002                    
   VRHFIN =C: s2p2                                                              
   LEXCH  = PE                                                                  
   EATOM  =   147.1560 eV,   10.8157 Ry                                         
                                                                                
   TITEL  = PAW_PBE C 08Apr2002                                                 
   LULTRA =        F    use ultrasoft PP ?                                      
   IUNSCR =        0    unscreen: 0-lin 1-nonlin 2-no                           
   RPACOR =     .000    partial core radius                                     
   POMASS =   12.011; ZVAL   =    4.000    mass and valenz                      
   RCORE  =    1.500    outmost cutoff radius                                   
   RWIGS  =    1.630; RWIGS  =     .863    wigner-seitz radius (au A)           
   ENMAX  =  400.000; ENMIN  =  300.000 eV                                      
   ICORE  =        2    local potential                                         
   LCOR   =        T    correct aug charges                                     
   LPAW   =        T    paw PP                                                  
   EAUG   =  644.873                                                            
   DEXC   =     .000                                                            
   RMAX   =    2.266    core radius for proj-oper                               
   RAUG   =    1.300    factor for augmentation sphere                          
   RDEP   =    1.501    radius for radial grids                                 
   RDEPT  =    1.300    core radius for aug-charge                              
   QCUT   =   -5.516; QGAM   =   11.032    optimization parameters              
                                                                                
   Description                                                                  
     l     E      TYP  RCUT    TYP  RCUT                                        
     0   .000     23  1.200                                                     
     0   .000     23  1.200                                                     
     1   .000     23  1.500                                                     
     1  2.500     23  1.500                                                     
     2   .000      7  1.500                                                     
  local pseudopotential read in
  atomic valenz-charges read in
  non local Contribution for L=           0  read in
    real space projection operators read in
  non local Contribution for L=           0  read in
    real space projection operators read in
  non local Contribution for L=           1  read in
    real space projection operators read in
  non local Contribution for L=           1  read in
    real space projection operators read in
    PAW grid and wavefunctions read in
 
   number of l-projection  operators is LMAX  =           4
   number of lm-projection operators is LMMAX =           8
 
 PAW_PBE C 08Apr2002                    :
 energy of atom  1       EATOM= -147.1560
 kinetic energy error for atom=    0.0288 (will be added to EATOM!!)
 
 
 POSCAR: C8                                      
  positions in direct lattice
  No initial velocities read in
 exchange correlation table for  LEXCH =        8
   RHO(1)=    0.500       N(1)  =     2000
   RHO(2)=  100.500       N(2)  =     4000
 


--------------------------------------------------------------------------------------------------------


 ion  position               nearest neighbor table
   1  0.250  0.750  0.250-   4 1.51   6 1.57   8 1.57   2 1.57
   2  0.000  0.000  0.500-   3 1.51   5 1.57   7 1.57   1 1.57
   3  0.250  0.250  0.750-   2 1.51   6 1.57   8 1.57   4 1.57
   4  0.000  0.500  0.000-   1 1.51   5 1.57   7 1.57   3 1.57
   5  0.750  0.750  0.750-   8 1.51   4 1.57   2 1.57   6 1.57
   6  0.500  0.000  0.000-   7 1.51   3 1.57   1 1.57   5 1.57
   7  0.750  0.250  0.250-   6 1.51   4 1.57   2 1.57   8 1.57
   8  0.500  0.500  0.500-   5 1.51   3 1.57   1 1.57   7 1.57
 
  LATTYP: Found a trigonal (rhomboedric) cell.
 ALAT       =     3.5899988795
 COS(alpha) =    -0.0299999201
  
  Lattice vectors:
  
 A1 = (   3.5899993590,   0.0000000000,   0.0000000000)
 A2 = (  -0.1076996794,   3.5883830250,   0.0000000000)
 A3 = (  -0.1076996794,  -0.1109805662,   3.5866672397)


Analysis of symmetry for initial positions (statically):
=====================================================================
 Subroutine PRICEL returns following result:
 
  LATTYP: Found a trigonal (rhomboedric) cell.
 ALAT       =     2.5001453274
 COS(alpha) =     0.4690723421
  
  Lattice vectors:
  
 A1 = (  -0.1076996794,   1.7387012294,   1.7933336199)
 A2 = (   1.7411498398,  -0.0554902831,   1.7933336199)
 A3 = (   1.7411498398,   1.7941915125,  -0.0000000000)
 
   4 primitive cells build up your supercell.
 

 Routine SETGRP: Setting up the symmetry group for a 
 trigonal (rhombohedral) supercell.


 Subroutine GETGRP returns: Found 12 space group operations
 (whereof  6 operations were pure point group operations)
 out of a pool of 12 trial point group operations.


The static configuration has the point symmetry C_3v.
 The point group associated with its full space group is D_3d.


Analysis of symmetry for dynamics (positions and initial velocities):
=====================================================================
 Subroutine PRICEL returns following result:
 
  LATTYP: Found a trigonal (rhomboedric) cell.
 ALAT       =     2.5001453274
 COS(alpha) =     0.4690723421
  
  Lattice vectors:
  
 A1 = (  -0.1076996794,   1.7387012294,   1.7933336199)
 A2 = (   1.7411498398,  -0.0554902831,   1.7933336199)
 A3 = (   1.7411498398,   1.7941915125,  -0.0000000000)
 
   4 primitive cells build up your supercell.
 

 Routine SETGRP: Setting up the symmetry group for a 
 trigonal (rhombohedral) supercell.


 Subroutine GETGRP returns: Found 12 space group operations
 (whereof  6 operations were pure point group operations)
 out of a pool of 12 trial point group operations.


The dynamic configuration has the point symmetry C_3v.
 The point group associated with its full space group is D_3d.


 Subroutine INISYM returns: Found 12 space group operations
 (whereof  6 operations are pure point group operations),
 and found     4 'primitive' translations

 
 
 KPOINTS: kpt_density=1000                        

Automatic generation of k-mesh.
Space group operators:
 irot       det(A)        alpha          n_x          n_y          n_z        tau_x        tau_y        tau_z
    1     1.000000     0.000000     1.000000     0.000000     0.000000     0.000000     0.000000     0.000000
    2    -1.000000   180.000000     0.000000    -0.717958     0.696086     0.000000     0.000000     0.000000
    3     1.000000   120.000000    -0.559762    -0.576814    -0.594938     0.000000     0.000000     0.000000
    4    -1.000000   180.000000    -0.717635     0.696419    -0.000000     0.000000     0.000000     0.000000
    5     1.000000   120.000000     0.559762     0.576814     0.594939     0.000000     0.000000     0.000000
    6    -1.000000   180.000000     0.717635     0.021539    -0.696086     0.000000     0.000000     0.000000
    7    -1.000000     0.000000     1.000000     0.000000     0.000000     0.250000     0.250000     0.250000
    8     1.000000   180.000000     0.000000    -0.717958     0.696086     0.250000     0.250000     0.250000
    9    -1.000000   120.000000    -0.559762    -0.576814    -0.594938     0.250000     0.250000     0.250000
   10     1.000000   180.000000    -0.717635     0.696419    -0.000000     0.250000     0.250000     0.250000
   11    -1.000000   120.000000     0.559762     0.576814     0.594939     0.250000     0.250000     0.250000
   12     1.000000   180.000000     0.717635     0.021539    -0.696086     0.250000     0.250000     0.250000
 
 Subroutine IBZKPT returns following result:
 ===========================================
 
 Found    189 irreducible k-points:
 
 Following reciprocal coordinates:
            Coordinates               Weight
  0.000000  0.000000  0.000000      1.000000
  0.083333  0.000000 -0.000000      6.000000
  0.166667 -0.000000  0.000000      6.000000
  0.250000 -0.000000 -0.000000      6.000000
  0.333333  0.000000  0.000000      6.000000
  0.416667 -0.000000 -0.000000      6.000000
  0.500000 -0.000000 -0.000000      3.000000
  0.083333  0.083333 -0.000000      6.000000
  0.166667  0.083333 -0.000000     12.000000
  0.250000  0.083333  0.000000     12.000000
  0.333333  0.083333  0.000000     12.000000
  0.416667  0.083333 -0.000000     12.000000
  0.500000  0.083333  0.000000     12.000000
 -0.416667  0.083333  0.000000     12.000000
 -0.333333  0.083333  0.000000     12.000000
 -0.250000  0.083333  0.000000     12.000000
 -0.166667  0.083333  0.000000     12.000000
 -0.083333  0.083333 -0.000000      6.000000
  0.166667  0.166667 -0.000000      6.000000
  0.250000  0.166667 -0.000000     12.000000
  0.333333  0.166667 -0.000000     12.000000
  0.416667  0.166667 -0.000000     12.000000
  0.500000  0.166667 -0.000000     12.000000
 -0.416667  0.166667  0.000000     12.000000
 -0.333333  0.166667  0.000000     12.000000
 -0.250000  0.166667 -0.000000     12.000000
 -0.166667  0.166667 -0.000000      6.000000
  0.250000  0.250000 -0.000000      6.000000
  0.333333  0.250000  0.000000     12.000000
  0.416667  0.250000  0.000000     12.000000
  0.500000  0.250000  0.000000     12.000000
 -0.416667  0.250000 -0.000000     12.000000
 -0.333333  0.250000  0.000000     12.000000
 -0.250000  0.250000  0.000000      6.000000
  0.333333  0.333333  0.000000      6.000000
  0.416667  0.333333  0.000000     12.000000
  0.500000  0.333333  0.000000     12.000000
 -0.416667  0.333333 -0.000000     12.000000
 -0.333333  0.333333  0.000000      6.000000
  0.416667  0.416667  0.000000      6.000000
  0.500000  0.416667 -0.000000     12.000000
 -0.416667  0.416667  0.000000      6.000000
  0.500000  0.500000 -0.000000      3.000000
  0.083333  0.083333  0.083333      2.000000
  0.166667  0.083333  0.083333      6.000000
  0.250000  0.083333  0.083333      6.000000
  0.333333  0.083333  0.083333      6.000000
  0.416667  0.083333  0.083333      6.000000
  0.500000  0.083333  0.083333      6.000000
 -0.416667  0.083333  0.083333      6.000000
 -0.333333  0.083333  0.083333      6.000000
 -0.250000  0.083333  0.083333      6.000000
 -0.166667  0.083333  0.083333      6.000000
 -0.083333  0.083333  0.083333      6.000000
  0.166667  0.166667  0.083333      6.000000
  0.250000  0.166667  0.083333     12.000000
  0.333333  0.166667  0.083333     12.000000
  0.416667  0.166667  0.083333     12.000000
  0.500000  0.166667  0.083333     12.000000
 -0.416667  0.166667  0.083333     12.000000
 -0.333333  0.166667  0.083333     12.000000
 -0.250000  0.166667  0.083333     12.000000
 -0.166667  0.166667  0.083333     12.000000
 -0.083333  0.166667  0.083333     12.000000
  0.250000  0.250000  0.083333      6.000000
  0.333333  0.250000  0.083333     12.000000
  0.416667  0.250000  0.083333     12.000000
  0.500000  0.250000  0.083333     12.000000
 -0.416667  0.250000  0.083333     12.000000
 -0.333333  0.250000  0.083333     12.000000
 -0.250000  0.250000  0.083333     12.000000
 -0.166667  0.250000  0.083333     12.000000
 -0.083333  0.250000  0.083333     12.000000
  0.333333  0.333333  0.083333      6.000000
  0.416667  0.333333  0.083333     12.000000
  0.500000  0.333333  0.083333     12.000000
 -0.416667  0.333333  0.083333     12.000000
 -0.333333  0.333333  0.083333     12.000000
 -0.250000  0.333333  0.083333     12.000000
 -0.166667  0.333333  0.083333     12.000000
 -0.083333  0.333333  0.083333     12.000000
  0.416667  0.416667  0.083333      6.000000
  0.500000  0.416667  0.083333     12.000000
 -0.416667  0.416667  0.083333     12.000000
 -0.333333  0.416667  0.083333     12.000000
 -0.250000  0.416667  0.083333     12.000000
 -0.166667  0.416667  0.083333     12.000000
 -0.083333  0.416667  0.083333     12.000000
  0.500000  0.500000  0.083333      6.000000
 -0.416667  0.500000  0.083333     12.000000
 -0.333333  0.500000  0.083333     12.000000
 -0.250000  0.500000  0.083333     12.000000
 -0.166667  0.500000  0.083333     12.000000
 -0.083333  0.500000  0.083333      6.000000
 -0.416667 -0.416667  0.083333      6.000000
 -0.333333 -0.416667  0.083333     12.000000
 -0.250000 -0.416667  0.083333     12.000000
 -0.166667 -0.416667  0.083333     12.000000
 -0.333333 -0.333333  0.083333      6.000000
 -0.250000 -0.333333  0.083333     12.000000
 -0.166667 -0.333333  0.083333     12.000000
 -0.250000 -0.250000  0.083333      6.000000
 -0.166667 -0.250000  0.083333     12.000000
 -0.166667 -0.166667  0.083333      6.000000
  0.166667  0.166667  0.166667      2.000000
  0.250000  0.166667  0.166667      6.000000
  0.333333  0.166667  0.166667      6.000000
  0.416667  0.166667  0.166667      6.000000
  0.500000  0.166667  0.166667      6.000000
 -0.416667  0.166667  0.166667      6.000000
 -0.333333  0.166667  0.166667      6.000000
 -0.250000  0.166667  0.166667      6.000000
 -0.166667  0.166667  0.166667      6.000000
  0.250000  0.250000  0.166667      6.000000
  0.333333  0.250000  0.166667     12.000000
  0.416667  0.250000  0.166667     12.000000
  0.500000  0.250000  0.166667     12.000000
 -0.416667  0.250000  0.166667     12.000000
 -0.333333  0.250000  0.166667     12.000000
 -0.250000  0.250000  0.166667     12.000000
 -0.166667  0.250000  0.166667     12.000000
  0.333333  0.333333  0.166667      6.000000
  0.416667  0.333333  0.166667     12.000000
  0.500000  0.333333  0.166667     12.000000
 -0.416667  0.333333  0.166667     12.000000
 -0.333333  0.333333  0.166667     12.000000
 -0.250000  0.333333  0.166667     12.000000
 -0.166667  0.333333  0.166667     12.000000
  0.416667  0.416667  0.166667      6.000000
  0.500000  0.416667  0.166667     12.000000
 -0.416667  0.416667  0.166667     12.000000
 -0.333333  0.416667  0.166667     12.000000
 -0.250000  0.416667  0.166667     12.000000
 -0.166667  0.416667  0.166667     12.000000
  0.500000  0.500000  0.166667      6.000000
 -0.416667  0.500000  0.166667     12.000000
 -0.333333  0.500000  0.166667     12.000000
 -0.250000  0.500000  0.166667     12.000000
 -0.166667  0.500000  0.166667      6.000000
 -0.416667 -0.416667  0.166667      6.000000
 -0.333333 -0.416667  0.166667     12.000000
 -0.250000 -0.416667  0.166667     12.000000
 -0.333333 -0.333333  0.166667      6.000000
 -0.250000 -0.333333  0.166667     12.000000
 -0.250000 -0.250000  0.166667      6.000000
  0.250000  0.250000  0.250000      2.000000
  0.333333  0.250000  0.250000      6.000000
  0.416667  0.250000  0.250000      6.000000
  0.500000  0.250000  0.250000      6.000000
 -0.416667  0.250000  0.250000      6.000000
 -0.333333  0.250000  0.250000      6.000000
 -0.250000  0.250000  0.250000      6.000000
  0.333333  0.333333  0.250000      6.000000
  0.416667  0.333333  0.250000     12.000000
  0.500000  0.333333  0.250000     12.000000
 -0.416667  0.333333  0.250000     12.000000
 -0.333333  0.333333  0.250000     12.000000
 -0.250000  0.333333  0.250000     12.000000
  0.416667  0.416667  0.250000      6.000000
  0.500000  0.416667  0.250000     12.000000
 -0.416667  0.416667  0.250000     12.000000
 -0.333333  0.416667  0.250000     12.000000
 -0.250000  0.416667  0.250000     12.000000
  0.500000  0.500000  0.250000      6.000000
 -0.416667  0.500000  0.250000     12.000000
 -0.333333  0.500000  0.250000     12.000000
 -0.250000  0.500000  0.250000      6.000000
 -0.416667 -0.416667  0.250000      6.000000
 -0.333333 -0.416667  0.250000     12.000000
 -0.333333 -0.333333  0.250000      6.000000
  0.333333  0.333333  0.333333      2.000000
  0.416667  0.333333  0.333333      6.000000
  0.500000  0.333333  0.333333      6.000000
 -0.416667  0.333333  0.333333      6.000000
 -0.333333  0.333333  0.333333      6.000000
  0.416667  0.416667  0.333333      6.000000
  0.500000  0.416667  0.333333     12.000000
 -0.416667  0.416667  0.333333     12.000000
 -0.333333  0.416667  0.333333     12.000000
  0.500000  0.500000  0.333333      6.000000
 -0.416667  0.500000  0.333333     12.000000
 -0.333333  0.500000  0.333333      6.000000
 -0.416667 -0.416667  0.333333      6.000000
  0.416667  0.416667  0.416667      2.000000
  0.500000  0.416667  0.416667      6.000000
 -0.416667  0.416667  0.416667      6.000000
  0.500000  0.500000  0.416667      6.000000
 -0.416667  0.500000  0.416667      6.000000
  0.500000  0.500000  0.500000      1.000000
 
 Following cartesian coordinates:
            Coordinates               Weight
  0.000000  0.000000  0.000000      1.000000
  0.023318  0.000700  0.000722      6.000000
  0.046637  0.001400  0.001444      6.000000
  0.069955  0.002100  0.002166      6.000000
  0.093274  0.002799  0.002887      6.000000
  0.116592  0.003499  0.003609      6.000000
  0.139911  0.004199  0.004331      3.000000
  0.023318  0.024029  0.001444      6.000000
  0.046637  0.024729  0.002166     12.000000
  0.069955  0.025429  0.002887     12.000000
  0.093274  0.026128  0.003609     12.000000
  0.116592  0.026828  0.004331     12.000000
  0.139911  0.027528  0.005053     12.000000
 -0.116592  0.019830 -0.002887     12.000000
 -0.093274  0.020529 -0.002166     12.000000
 -0.069955  0.021229 -0.001444     12.000000
 -0.046637  0.021929 -0.000722     12.000000
 -0.023318  0.022629 -0.000000      6.000000
  0.046637  0.048058  0.002887      6.000000
  0.069955  0.048757  0.003609     12.000000
  0.093274  0.049457  0.004331     12.000000
  0.116592  0.050157  0.005053     12.000000
  0.139911  0.050857  0.005775     12.000000
 -0.116592  0.043159 -0.002166     12.000000
 -0.093274  0.043858 -0.001444     12.000000
 -0.069955  0.044558 -0.000722     12.000000
 -0.046637  0.045258 -0.000000      6.000000
  0.069955  0.072086  0.004331      6.000000
  0.093274  0.072786  0.005053     12.000000
  0.116592  0.073486  0.005775     12.000000
  0.139911  0.074186  0.006497     12.000000
 -0.116592  0.066487 -0.001444     12.000000
 -0.093274  0.067187 -0.000722     12.000000
 -0.069955  0.067887 -0.000000      6.000000
  0.093274  0.096115  0.005775      6.000000
  0.116592  0.096815  0.006497     12.000000
  0.139911  0.097515  0.007219     12.000000
 -0.116592  0.089816 -0.000722     12.000000
 -0.093274  0.090516 -0.000000      6.000000
  0.116592  0.120144  0.007219      6.000000
  0.139911  0.120844  0.007940     12.000000
 -0.116592  0.113145 -0.000000      6.000000
  0.139911  0.144173  0.008662      3.000000
  0.023318  0.024029  0.024784      2.000000
  0.046637  0.024729  0.025506      6.000000
  0.069955  0.025429  0.026228      6.000000
  0.093274  0.026128  0.026949      6.000000
  0.116592  0.026828  0.027671      6.000000
  0.139911  0.027528  0.028393      6.000000
 -0.116592  0.019830  0.020453      6.000000
 -0.093274  0.020529  0.021175      6.000000
 -0.069955  0.021229  0.021896      6.000000
 -0.046637  0.021929  0.022618      6.000000
 -0.023318  0.022629  0.023340      6.000000
  0.046637  0.048058  0.026228      6.000000
  0.069955  0.048757  0.026949     12.000000
  0.093274  0.049457  0.027671     12.000000
  0.116592  0.050157  0.028393     12.000000
  0.139911  0.050857  0.029115     12.000000
 -0.116592  0.043159  0.021175     12.000000
 -0.093274  0.043858  0.021896     12.000000
 -0.069955  0.044558  0.022618     12.000000
 -0.046637  0.045258  0.023340     12.000000
 -0.023318  0.045958  0.024062     12.000000
  0.069955  0.072086  0.027671      6.000000
  0.093274  0.072786  0.028393     12.000000
  0.116592  0.073486  0.029115     12.000000
  0.139911  0.074186  0.029837     12.000000
 -0.116592  0.066487  0.021896     12.000000
 -0.093274  0.067187  0.022618     12.000000
 -0.069955  0.067887  0.023340     12.000000
 -0.046637  0.068587  0.024062     12.000000
 -0.023318  0.069287  0.024784     12.000000
  0.093274  0.096115  0.029115      6.000000
  0.116592  0.096815  0.029837     12.000000
  0.139911  0.097515  0.030559     12.000000
 -0.116592  0.089816  0.022618     12.000000
 -0.093274  0.090516  0.023340     12.000000
 -0.069955  0.091216  0.024062     12.000000
 -0.046637  0.091916  0.024784     12.000000
 -0.023318  0.092616  0.025506     12.000000
  0.116592  0.120144  0.030559      6.000000
  0.139911  0.120844  0.031281     12.000000
 -0.116592  0.113145  0.023340     12.000000
 -0.093274  0.113845  0.024062     12.000000
 -0.069955  0.114545  0.024784     12.000000
 -0.046637  0.115245  0.025506     12.000000
 -0.023318  0.115945  0.026228     12.000000
  0.139911  0.144173  0.032002      6.000000
 -0.116592  0.136474  0.024062     12.000000
 -0.093274  0.137174  0.024784     12.000000
 -0.069955  0.137874  0.025506     12.000000
 -0.046637  0.138574  0.026228     12.000000
 -0.023318  0.139274  0.026949      6.000000
 -0.116592 -0.120144  0.016122      6.000000
 -0.093274 -0.119444  0.016843     12.000000
 -0.069955 -0.118744  0.017565     12.000000
 -0.046637 -0.118044  0.018287     12.000000
 -0.093274 -0.096115  0.017565      6.000000
 -0.069955 -0.095415  0.018287     12.000000
 -0.046637 -0.094715  0.019009     12.000000
 -0.069955 -0.072086  0.019009      6.000000
 -0.046637 -0.071387  0.019731     12.000000
 -0.046637 -0.048058  0.020453      6.000000
  0.046637  0.048058  0.049568      2.000000
  0.069955  0.048757  0.050289      6.000000
  0.093274  0.049457  0.051011      6.000000
  0.116592  0.050157  0.051733      6.000000
  0.139911  0.050857  0.052455      6.000000
 -0.116592  0.043159  0.044515      6.000000
 -0.093274  0.043858  0.045236      6.000000
 -0.069955  0.044558  0.045958      6.000000
 -0.046637  0.045258  0.046680      6.000000
  0.069955  0.072086  0.051011      6.000000
  0.093274  0.072786  0.051733     12.000000
  0.116592  0.073486  0.052455     12.000000
  0.139911  0.074186  0.053177     12.000000
 -0.116592  0.066487  0.045236     12.000000
 -0.093274  0.067187  0.045958     12.000000
 -0.069955  0.067887  0.046680     12.000000
 -0.046637  0.068587  0.047402     12.000000
  0.093274  0.096115  0.052455      6.000000
  0.116592  0.096815  0.053177     12.000000
  0.139911  0.097515  0.053899     12.000000
 -0.116592  0.089816  0.045958     12.000000
 -0.093274  0.090516  0.046680     12.000000
 -0.069955  0.091216  0.047402     12.000000
 -0.046637  0.091916  0.048124     12.000000
  0.116592  0.120144  0.053899      6.000000
  0.139911  0.120844  0.054621     12.000000
 -0.116592  0.113145  0.046680     12.000000
 -0.093274  0.113845  0.047402     12.000000
 -0.069955  0.114545  0.048124     12.000000
 -0.046637  0.115245  0.048846     12.000000
  0.139911  0.144173  0.055342      6.000000
 -0.116592  0.136474  0.047402     12.000000
 -0.093274  0.137174  0.048124     12.000000
 -0.069955  0.137874  0.048846     12.000000
 -0.046637  0.138574  0.049568      6.000000
 -0.116592 -0.120144  0.039462      6.000000
 -0.093274 -0.119444  0.040183     12.000000
 -0.069955 -0.118744  0.040905     12.000000
 -0.093274 -0.096115  0.040905      6.000000
 -0.069955 -0.095415  0.041627     12.000000
 -0.069955 -0.072086  0.042349      6.000000
  0.069955  0.072086  0.074351      2.000000
  0.093274  0.072786  0.075073      6.000000
  0.116592  0.073486  0.075795      6.000000
  0.139911  0.074186  0.076517      6.000000
 -0.116592  0.066487  0.068577      6.000000
 -0.093274  0.067187  0.069298      6.000000
 -0.069955  0.067887  0.070020      6.000000
  0.093274  0.096115  0.075795      6.000000
  0.116592  0.096815  0.076517     12.000000
  0.139911  0.097515  0.077239     12.000000
 -0.116592  0.089816  0.069298     12.000000
 -0.093274  0.090516  0.070020     12.000000
 -0.069955  0.091216  0.070742     12.000000
  0.116592  0.120144  0.077239      6.000000
  0.139911  0.120844  0.077961     12.000000
 -0.116592  0.113145  0.070020     12.000000
 -0.093274  0.113845  0.070742     12.000000
 -0.069955  0.114545  0.071464     12.000000
  0.139911  0.144173  0.078683      6.000000
 -0.116592  0.136474  0.070742     12.000000
 -0.093274  0.137174  0.071464     12.000000
 -0.069955  0.137874  0.072186      6.000000
 -0.116592 -0.120144  0.062802      6.000000
 -0.093274 -0.119444  0.063524     12.000000
 -0.093274 -0.096115  0.064245      6.000000
  0.093274  0.096115  0.099135      2.000000
  0.116592  0.096815  0.099857      6.000000
  0.139911  0.097515  0.100579      6.000000
 -0.116592  0.089816  0.092639      6.000000
 -0.093274  0.090516  0.093360      6.000000
  0.116592  0.120144  0.100579      6.000000
  0.139911  0.120844  0.101301     12.000000
 -0.116592  0.113145  0.093360     12.000000
 -0.093274  0.113845  0.094082     12.000000
  0.139911  0.144173  0.102023      6.000000
 -0.116592  0.136474  0.094082     12.000000
 -0.093274  0.137174  0.094804      6.000000
 -0.116592 -0.120144  0.086142      6.000000
  0.116592  0.120144  0.123919      2.000000
  0.139911  0.120844  0.124641      6.000000
 -0.116592  0.113145  0.116701      6.000000
  0.139911  0.144173  0.125363      6.000000
 -0.116592  0.136474  0.117422      6.000000
  0.139911  0.144173  0.148703      1.000000
 
 TETIRR: Found   2550 inequivalent tetrahedra from    10368


--------------------------------------------------------------------------------------------------------




 Dimension of arrays:
   k-points           NKPTS =    189   k-points in BZ     NKDIM =    189   number of bands    NBANDS=     24
   number of dos      NEDOS =    301   number of ions     NIONS =      8
   non local maximal  LDIM  =      4   non local SUM 2l+1 LMDIM =      8
   total plane-waves  NPLWV =  13824
   max r-space proj   IRMAX =      1   max aug-charges    IRDMAX=   3730
   dimension x,y,z NGX =    24 NGY =   24 NGZ =   24
   dimension x,y,z NGXF=    48 NGYF=   48 NGZF=   48
   support grid    NGXF=    48 NGYF=   48 NGZF=   48
   ions per type =               8
   NGX,Y,Z   is equivalent  to a cutoff of  11.11, 11.11, 11.11 a.u.
   NGXF,Y,Z  is equivalent  to a cutoff of  22.23, 22.23, 22.23 a.u.

 SYSTEM =  unknown system                          
 POSCAR =  C8                                      

 Startparameter for this run:
   NWRITE =      2    write-flag & timer
   PREC   = accura    normal or accurate (medium, high low for compatibility)
   ISTART =      0    job   : 0-new  1-cont  2-samecut
   ICHARG =      2    charge: 1-file 2-atom 10-const
   ISPIN  =      1    spin polarized calculation?
   LNONCOLLINEAR =      F non collinear calculations
   LSORBIT =      F    spin-orbit coupling
   INIWAV =      1    electr: 0-lowe 1-rand  2-diag
   LASPH  =      F    aspherical Exc in radial PAW
   METAGGA=      F    non-selfconsistent MetaGGA calc.

 Electronic Relaxation 1
   ENCUT  =  400.0 eV  29.40 Ry    5.42 a.u.   5.85  5.85  5.85*2*pi/ulx,y,z
   ENINI  =  400.0     initial cutoff
   ENAUG  =  644.9 eV  augmentation charge cutoff
   NELM   =     60;   NELMIN=  2; NELMDL= -5     # of ELM steps 
   EDIFF  = 0.1E-05   stopping-criterion for ELM
   LREAL  =      F    real-space projection
   NLSPLINE    = F    spline interpolate recip. space projectors
   LCOMPAT=      F    compatible to vasp.4.4
   GGA_COMPAT  = T    GGA compatible to vasp.4.4-vasp.4.6
   LMAXPAW     = -100 max onsite density
   LMAXMIX     =    2 max onsite mixed and CHGCAR
   VOSKOWN=      0    Vosko Wilk Nusair interpolation
   ROPT   =    0.00000
 Ionic relaxation
   EDIFFG = 0.1E-04   stopping-criterion for IOM
   NSW    =      0    number of steps for IOM
   NBLOCK =      1;   KBLOCK =      1    inner block; outer block 
   IBRION =     -1    ionic relax: 0-MD 1-quasi-New 2-CG
   NFREE  =      0    steps in history (QN), initial steepest desc. (CG)
   ISIF   =      2    stress and relaxation
   IWAVPR =     10    prediction:  0-non 1-charg 2-wave 3-comb
   ISYM   =      2    0-nonsym 1-usesym 2-fastsym
   LCORR  =      T    Harris-Foulkes like correction to forces

   POTIM  = 0.0200    time-step for ionic-motion
   TEIN   =    0.0    initial temperature
   TEBEG  =    0.0;   TEEND  =   0.0 temperature during run
   SMASS  =  -3.00    Nose mass-parameter (am)
   estimated Nose-frequenzy (Omega)   =  0.10E-29 period in steps =****** mass=  -0.295E-27a.u.
   SCALEE = 1.0000    scale energy and forces
   NPACO  =    256;   APACO  = 16.0  distance and # of slots for P.C.
   PSTRESS=    0.0 pullay stress

  Mass of Ions in am
   POMASS =  12.01
  Ionic Valenz
   ZVAL   =   4.00
  Atomic Wigner-Seitz radii
   RWIGS  =  -1.00
  virtual crystal weights 
   VCA    =   1.00
   NELECT =      32.0000    total number of electrons
   NUPDOWN=      -1.0000    fix difference up-down

 DOS related values:
   EMIN   =  10.00;   EMAX   =-10.00  energy-range for DOS
   EFERMI =   0.00
   ISMEAR =    -5;   SIGMA  =   0.06  broadening in eV -4-tet -1-fermi 0-gaus

 Electronic relaxation 2 (details)
   IALGO  =     38    algorithm
   LDIAG  =      T    sub-space diagonalisation (order eigenvalues)
   LSUBROT=      F    optimize rotation matrix (better conditioning)
   TURBO    =      0    0=normal 1=particle mesh
   IRESTART =      0    0=no restart 2=restart with 2 vectors
   NREBOOT  =      0    no. of reboots
   NMIN     =      0    reboot dimension
   EREF     =   0.00    reference energy to select bands
   IMIX   =      4    mixing-type and parameters
     AMIX     =   0.40;   BMIX     =  1.00
     AMIX_MAG =   1.60;   BMIX_MAG =  1.00
     AMIN     =   0.10
     WC   =   100.;   INIMIX=   1;  MIXPRE=   1;  MAXMIX= -45

 Intra band minimization:
   WEIMIN = 0.0000     energy-eigenvalue tresh-hold
   EBREAK =  0.10E-07  absolut break condition
   DEPER  =   0.30     relativ break condition  

   TIME   =   0.40     timestep for ELM

  volume/ion in A,a.u.               =       5.78        38.98
  Fermi-wavevector in a.u.,A,eV,Ry     =   1.448427  2.737131 28.544234  2.097942
  Thomas-Fermi vector in A             =   2.566270
 
 Write flags
   LWAVE        =      F    write WAVECAR
   LDOWNSAMPLE  =      F    k-point downsampling of WAVECAR
   LCHARG       =      F    write CHGCAR
   LVTOT        =      F    write LOCPOT, total local potential
   LVHAR        =      F    write LOCPOT, Hartree potential only
   LELF         =      F    write electronic localiz. function (ELF)
   LORBIT       =      0    0 simple, 1 ext, 2 COOP (PROOUT), +10 PAW based schemes


 Dipole corrections
   LMONO  =      F    monopole corrections only (constant potential shift)
   LDIPOL =      F    correct potential (dipole corrections)
   IDIPOL =      0    1-x, 2-y, 3-z, 4-all directions 
   EPSILON=  1.0000000 bulk dielectric constant

 Exchange correlation treatment:
   GGA     =    --    GGA type
   LEXCH   =     8    internal setting for exchange type
   VOSKOWN=      0    Vosko Wilk Nusair interpolation
   LHFCALC =     F    Hartree Fock is set to
   LHFONE  =     F    Hartree Fock one center treatment
   AEXX    =    0.0000 exact exchange contribution

 Linear response parameters
   LEPSILON=     F    determine dielectric tensor
   LRPA    =     F    only Hartree local field effects (RPA)
   LNABLA  =     F    use nabla operator in PAW spheres
   LVEL    =     F    velocity operator in full k-point grid
   LINTERFAST=   F  fast interpolation
   KINTER  =     0    interpolate to denser k-point grid
   CSHIFT  =0.1000    complex shift for real part using Kramers Kronig
   OMEGAMAX=  -1.0    maximum frequency
   DEG_THRESHOLD= 0.2000000E-02 threshold for treating states as degnerate
   RTIME   =   -0.100 relaxation time in fs
  (WPLASMAI=    0.000 imaginary part of plasma frequency in eV, 0.658/RTIME)
   DFIELD  = 0.0000000 0.0000000 0.0000000 field for delta impulse in time
 
 Orbital magnetization related:
   ORBITALMAG=     F  switch on orbital magnetization
   LCHIMAG   =     F  perturbation theory with respect to B field
   DQ        =  0.001000  dq finite difference perturbation B field
   LLRAUG    =     F  two centre corrections for induced B field



--------------------------------------------------------------------------------------------------------


 Static calculation
 charge density and potential will be updated during run
 non-spin polarized calculation
 Variant of blocked Davidson
 Davidson routine will perform the subspace rotation
 perform sub-space diagonalisation
    after iterative eigenvector-optimisation
 modified Broyden-mixing scheme, WC =      100.0
 initial mixing is a Kerker type mixing with AMIX =  0.4000 and BMIX =      1.0000
 Hartree-type preconditioning will be used
 using additional bands            8
 reciprocal scheme for non local part
 calculate Harris-corrections to forces 
   (improved forces if not selfconsistent)
 use gradient corrections 
 use of overlap-Matrix (Vanderbilt PP)
 Fermi weights with tetrahedron method with Bloechl corrections


--------------------------------------------------------------------------------------------------------


  energy-cutoff  :      400.00
  volume of cell :       46.20
      direct lattice vectors                 reciprocal lattice vectors
     3.589999359  0.000000000  0.000000000     0.278551582  0.008360288  0.008622976
    -0.107699679  3.588383025  0.000000000     0.000000000  0.278677051  0.008622974
    -0.107699679 -0.110980566  3.586667240     0.000000000  0.000000000  0.278810364

  length of vectors
     3.589999359  3.589998880  3.589999693     0.278810390  0.278810428  0.278810364


 
 k-points in units of 2pi/SCALE and weight: kpt_density=1000                        
   0.00000000  0.00000000  0.00000000       0.001
   0.02331844  0.00069987  0.00072186       0.003
   0.04663688  0.00139973  0.00144371       0.003
   0.06995531  0.00209960  0.00216557       0.003
   0.09327375  0.00279947  0.00288743       0.003
   0.11659219  0.00349933  0.00360928       0.003
   0.13991063  0.00419920  0.00433114       0.002
   0.02331844  0.02402881  0.00144371       0.003
   0.04663688  0.02472867  0.00216557       0.007
   0.06995531  0.02542854  0.00288743       0.007
   0.09327375  0.02612841  0.00360928       0.007
   0.11659219  0.02682827  0.00433114       0.007
   0.13991063  0.02752814  0.00505300       0.007
  -0.11659219  0.01982961 -0.00288743       0.007
  -0.09327375  0.02052948 -0.00216557       0.007
  -0.06995531  0.02122934 -0.00144371       0.007
  -0.04663688  0.02192921 -0.00072186       0.007
  -0.02331844  0.02262907 -0.00000000       0.003
   0.04663688  0.04805761  0.00288743       0.003
   0.06995531  0.04875748  0.00360928       0.007
   0.09327375  0.04945735  0.00433114       0.007
   0.11659219  0.05015721  0.00505300       0.007
   0.13991063  0.05085708  0.00577485       0.007
  -0.11659219  0.04315855 -0.00216557       0.007
  -0.09327375  0.04385842 -0.00144371       0.007
  -0.06995531  0.04455828 -0.00072186       0.007
  -0.04663688  0.04525815 -0.00000000       0.003
   0.06995531  0.07208642  0.00433114       0.003
   0.09327375  0.07278629  0.00505300       0.007
   0.11659219  0.07348615  0.00577485       0.007
   0.13991063  0.07418602  0.00649671       0.007
  -0.11659219  0.06648749 -0.00144371       0.007
  -0.09327375  0.06718736 -0.00072186       0.007
  -0.06995531  0.06788722 -0.00000000       0.003
   0.09327375  0.09611523  0.00577485       0.003
   0.11659219  0.09681510  0.00649671       0.007
   0.13991063  0.09751496  0.00721857       0.007
  -0.11659219  0.08981643 -0.00072186       0.007
  -0.09327375  0.09051630 -0.00000000       0.003
   0.11659219  0.12014404  0.00721857       0.003
   0.13991063  0.12084390  0.00794042       0.007
  -0.11659219  0.11314537 -0.00000000       0.003
   0.13991063  0.14417284  0.00866228       0.002
   0.02331844  0.02402881  0.02478381       0.001
   0.04663688  0.02472867  0.02550567       0.003
   0.06995531  0.02542854  0.02622753       0.003
   0.09327375  0.02612841  0.02694938       0.003
   0.11659219  0.02682827  0.02767124       0.003
   0.13991063  0.02752814  0.02839310       0.003
  -0.11659219  0.01982961  0.02045267       0.003
  -0.09327375  0.02052948  0.02117453       0.003
  -0.06995531  0.02122934  0.02189639       0.003
  -0.04663688  0.02192921  0.02261824       0.003
  -0.02331844  0.02262907  0.02334010       0.003
   0.04663688  0.04805761  0.02622753       0.003
   0.06995531  0.04875748  0.02694938       0.007
   0.09327375  0.04945735  0.02767124       0.007
   0.11659219  0.05015721  0.02839310       0.007
   0.13991063  0.05085708  0.02911495       0.007
  -0.11659219  0.04315855  0.02117453       0.007
  -0.09327375  0.04385842  0.02189639       0.007
  -0.06995531  0.04455828  0.02261824       0.007
  -0.04663688  0.04525815  0.02334010       0.007
  -0.02331844  0.04595802  0.02406196       0.007
   0.06995531  0.07208642  0.02767124       0.003
   0.09327375  0.07278629  0.02839310       0.007
   0.11659219  0.07348615  0.02911495       0.007
   0.13991063  0.07418602  0.02983681       0.007
  -0.11659219  0.06648749  0.02189639       0.007
  -0.09327375  0.06718736  0.02261824       0.007
  -0.06995531  0.06788722  0.02334010       0.007
  -0.04663688  0.06858709  0.02406196       0.007
  -0.02331844  0.06928696  0.02478381       0.007
   0.09327375  0.09611523  0.02911495       0.003
   0.11659219  0.09681510  0.02983681       0.007
   0.13991063  0.09751496  0.03055867       0.007
  -0.11659219  0.08981643  0.02261824       0.007
  -0.09327375  0.09051630  0.02334010       0.007
  -0.06995531  0.09121617  0.02406196       0.007
  -0.04663688  0.09191603  0.02478381       0.007
  -0.02331844  0.09261590  0.02550567       0.007
   0.11659219  0.12014404  0.03055867       0.003
   0.13991063  0.12084390  0.03128052       0.007
  -0.11659219  0.11314537  0.02334010       0.007
  -0.09327375  0.11384524  0.02406196       0.007
  -0.06995531  0.11454511  0.02478381       0.007
  -0.04663688  0.11524497  0.02550567       0.007
  -0.02331844  0.11594484  0.02622753       0.007
   0.13991063  0.14417284  0.03200238       0.003
  -0.11659219  0.13647431  0.02406196       0.007
  -0.09327375  0.13717418  0.02478381       0.007
  -0.06995531  0.13787405  0.02550567       0.007
  -0.04663688  0.13857391  0.02622753       0.007
  -0.02331844  0.13927378  0.02694938       0.003
  -0.11659219 -0.12014404  0.01612153       0.003
  -0.09327375 -0.11944417  0.01684339       0.007
  -0.06995531 -0.11874430  0.01756525       0.007
  -0.04663688 -0.11804444  0.01828711       0.007
  -0.09327375 -0.09611523  0.01756525       0.003
  -0.06995531 -0.09541536  0.01828710       0.007
  -0.04663688 -0.09471550  0.01900896       0.007
  -0.06995531 -0.07208642  0.01900896       0.003
  -0.04663688 -0.07138656  0.01973082       0.007
  -0.04663688 -0.04805761  0.02045267       0.003
   0.04663688  0.04805761  0.04956763       0.001
   0.06995531  0.04875748  0.05028949       0.003
   0.09327375  0.04945735  0.05101134       0.003
   0.11659219  0.05015721  0.05173320       0.003
   0.13991063  0.05085708  0.05245506       0.003
  -0.11659219  0.04315855  0.04451463       0.003
  -0.09327375  0.04385842  0.04523649       0.003
  -0.06995531  0.04455828  0.04595834       0.003
  -0.04663688  0.04525815  0.04668020       0.003
   0.06995531  0.07208642  0.05101134       0.003
   0.09327375  0.07278629  0.05173320       0.007
   0.11659219  0.07348615  0.05245506       0.007
   0.13991063  0.07418602  0.05317691       0.007
  -0.11659219  0.06648749  0.04523649       0.007
  -0.09327375  0.06718736  0.04595834       0.007
  -0.06995531  0.06788722  0.04668020       0.007
  -0.04663688  0.06858709  0.04740206       0.007
   0.09327375  0.09611523  0.05245505       0.003
   0.11659219  0.09681510  0.05317691       0.007
   0.13991063  0.09751496  0.05389877       0.007
  -0.11659219  0.08981643  0.04595834       0.007
  -0.09327375  0.09051630  0.04668020       0.007
  -0.06995531  0.09121617  0.04740206       0.007
  -0.04663688  0.09191603  0.04812391       0.007
   0.11659219  0.12014404  0.05389877       0.003
   0.13991063  0.12084390  0.05462062       0.007
  -0.11659219  0.11314537  0.04668020       0.007
  -0.09327375  0.11384524  0.04740206       0.007
  -0.06995531  0.11454511  0.04812391       0.007
  -0.04663688  0.11524497  0.04884577       0.007
   0.13991063  0.14417284  0.05534248       0.003
  -0.11659219  0.13647431  0.04740206       0.007
  -0.09327375  0.13717418  0.04812391       0.007
  -0.06995531  0.13787405  0.04884577       0.007
  -0.04663688  0.13857391  0.04956763       0.003
  -0.11659219 -0.12014404  0.03946164       0.003
  -0.09327375 -0.11944417  0.04018349       0.007
  -0.06995531 -0.11874430  0.04090535       0.007
  -0.09327375 -0.09611523  0.04090535       0.003
  -0.06995531 -0.09541536  0.04162721       0.007
  -0.06995531 -0.07208642  0.04234906       0.003
   0.06995531  0.07208642  0.07435144       0.001
   0.09327375  0.07278629  0.07507330       0.003
   0.11659219  0.07348615  0.07579516       0.003
   0.13991063  0.07418602  0.07651701       0.003
  -0.11659219  0.06648749  0.06857659       0.003
  -0.09327375  0.06718736  0.06929845       0.003
  -0.06995531  0.06788722  0.07002030       0.003
   0.09327375  0.09611523  0.07579516       0.003
   0.11659219  0.09681510  0.07651701       0.007
   0.13991063  0.09751496  0.07723887       0.007
  -0.11659219  0.08981643  0.06929845       0.007
  -0.09327375  0.09051630  0.07002030       0.007
  -0.06995531  0.09121617  0.07074216       0.007
   0.11659219  0.12014404  0.07723887       0.003
   0.13991063  0.12084390  0.07796073       0.007
  -0.11659219  0.11314537  0.07002030       0.007
  -0.09327375  0.11384524  0.07074216       0.007
  -0.06995531  0.11454511  0.07146402       0.007
   0.13991063  0.14417284  0.07868258       0.003
  -0.11659219  0.13647431  0.07074216       0.007
  -0.09327375  0.13717418  0.07146402       0.007
  -0.06995531  0.13787405  0.07218587       0.003
  -0.11659219 -0.12014404  0.06280174       0.003
  -0.09327375 -0.11944417  0.06352359       0.007
  -0.09327375 -0.09611523  0.06424545       0.003
   0.09327375  0.09611523  0.09913526       0.001
   0.11659219  0.09681510  0.09985711       0.003
   0.13991063  0.09751496  0.10057897       0.003
  -0.11659219  0.08981643  0.09263855       0.003
  -0.09327375  0.09051630  0.09336040       0.003
   0.11659219  0.12014404  0.10057897       0.003
   0.13991063  0.12084390  0.10130083       0.007
  -0.11659219  0.11314537  0.09336040       0.007
  -0.09327375  0.11384524  0.09408226       0.007
   0.13991063  0.14417284  0.10202268       0.003
  -0.11659219  0.13647431  0.09408226       0.007
  -0.09327375  0.13717418  0.09480412       0.003
  -0.11659219 -0.12014404  0.08614184       0.003
   0.11659219  0.12014404  0.12391907       0.001
   0.13991063  0.12084390  0.12464093       0.003
  -0.11659219  0.11314537  0.11670050       0.003
   0.13991063  0.14417284  0.12536278       0.003
  -0.11659219  0.13647431  0.11742236       0.003
   0.13991063  0.14417284  0.14870289       0.001
 
 k-points in reciprocal lattice and weights: kpt_density=1000                        
   0.00000000  0.00000000  0.00000000       0.001
   0.08333333  0.00000000 -0.00000000       0.003
   0.16666667 -0.00000000  0.00000000       0.003
   0.25000000 -0.00000000 -0.00000000       0.003
   0.33333333  0.00000000  0.00000000       0.003
   0.41666667 -0.00000000 -0.00000000       0.003
   0.50000000 -0.00000000 -0.00000000       0.002
   0.08333333  0.08333333 -0.00000000       0.003
   0.16666667  0.08333333 -0.00000000       0.007
   0.25000000  0.08333333  0.00000000       0.007
   0.33333333  0.08333333  0.00000000       0.007
   0.41666667  0.08333333 -0.00000000       0.007
   0.50000000  0.08333333  0.00000000       0.007
  -0.41666667  0.08333333  0.00000000       0.007
  -0.33333333  0.08333333  0.00000000       0.007
  -0.25000000  0.08333333  0.00000000       0.007
  -0.16666667  0.08333333  0.00000000       0.007
  -0.08333333  0.08333333 -0.00000000       0.003
   0.16666667  0.16666667 -0.00000000       0.003
   0.25000000  0.16666667 -0.00000000       0.007
   0.33333333  0.16666667 -0.00000000       0.007
   0.41666667  0.16666667 -0.00000000       0.007
   0.50000000  0.16666667 -0.00000000       0.007
  -0.41666667  0.16666667  0.00000000       0.007
  -0.33333333  0.16666667  0.00000000       0.007
  -0.25000000  0.16666667 -0.00000000       0.007
  -0.16666667  0.16666667 -0.00000000       0.003
   0.25000000  0.25000000 -0.00000000       0.003
   0.33333333  0.25000000  0.00000000       0.007
   0.41666667  0.25000000  0.00000000       0.007
   0.50000000  0.25000000  0.00000000       0.007
  -0.41666667  0.25000000 -0.00000000       0.007
  -0.33333333  0.25000000  0.00000000       0.007
  -0.25000000  0.25000000  0.00000000       0.003
   0.33333333  0.33333333  0.00000000       0.003
   0.41666667  0.33333333  0.00000000       0.007
   0.50000000  0.33333333  0.00000000       0.007
  -0.41666667  0.33333333 -0.00000000       0.007
  -0.33333333  0.33333333  0.00000000       0.003
   0.41666667  0.41666667  0.00000000       0.003
   0.50000000  0.41666667 -0.00000000       0.007
  -0.41666667  0.41666667  0.00000000       0.003
   0.50000000  0.50000000 -0.00000000       0.002
   0.08333333  0.08333333  0.08333333       0.001
   0.16666667  0.08333333  0.08333333       0.003
   0.25000000  0.08333333  0.08333333       0.003
   0.33333333  0.08333333  0.08333333       0.003
   0.41666667  0.08333333  0.08333333       0.003
   0.50000000  0.08333333  0.08333333       0.003
  -0.41666667  0.08333333  0.08333333       0.003
  -0.33333333  0.08333333  0.08333333       0.003
  -0.25000000  0.08333333  0.08333333       0.003
  -0.16666667  0.08333333  0.08333333       0.003
  -0.08333333  0.08333333  0.08333333       0.003
   0.16666667  0.16666667  0.08333333       0.003
   0.25000000  0.16666667  0.08333333       0.007
   0.33333333  0.16666667  0.08333333       0.007
   0.41666667  0.16666667  0.08333333       0.007
   0.50000000  0.16666667  0.08333333       0.007
  -0.41666667  0.16666667  0.08333333       0.007
  -0.33333333  0.16666667  0.08333333       0.007
  -0.25000000  0.16666667  0.08333333       0.007
  -0.16666667  0.16666667  0.08333333       0.007
  -0.08333333  0.16666667  0.08333333       0.007
   0.25000000  0.25000000  0.08333333       0.003
   0.33333333  0.25000000  0.08333333       0.007
   0.41666667  0.25000000  0.08333333       0.007
   0.50000000  0.25000000  0.08333333       0.007
  -0.41666667  0.25000000  0.08333333       0.007
  -0.33333333  0.25000000  0.08333333       0.007
  -0.25000000  0.25000000  0.08333333       0.007
  -0.16666667  0.25000000  0.08333333       0.007
  -0.08333333  0.25000000  0.08333333       0.007
   0.33333333  0.33333333  0.08333333       0.003
   0.41666667  0.33333333  0.08333333       0.007
   0.50000000  0.33333333  0.08333333       0.007
  -0.41666667  0.33333333  0.08333333       0.007
  -0.33333333  0.33333333  0.08333333       0.007
  -0.25000000  0.33333333  0.08333333       0.007
  -0.16666667  0.33333333  0.08333333       0.007
  -0.08333333  0.33333333  0.08333333       0.007
   0.41666667  0.41666667  0.08333333       0.003
   0.50000000  0.41666667  0.08333333       0.007
  -0.41666667  0.41666667  0.08333333       0.007
  -0.33333333  0.41666667  0.08333333       0.007
  -0.25000000  0.41666667  0.08333333       0.007
  -0.16666667  0.41666667  0.08333333       0.007
  -0.08333333  0.41666667  0.08333333       0.007
   0.50000000  0.50000000  0.08333333       0.003
  -0.41666667  0.50000000  0.08333333       0.007
  -0.33333333  0.50000000  0.08333333       0.007
  -0.25000000  0.50000000  0.08333333       0.007
  -0.16666667  0.50000000  0.08333333       0.007
  -0.08333333  0.50000000  0.08333333       0.003
  -0.41666667 -0.41666667  0.08333333       0.003
  -0.33333333 -0.41666667  0.08333333       0.007
  -0.25000000 -0.41666667  0.08333333       0.007
  -0.16666667 -0.41666667  0.08333333       0.007
  -0.33333333 -0.33333333  0.08333333       0.003
  -0.25000000 -0.33333333  0.08333333       0.007
  -0.16666667 -0.33333333  0.08333333       0.007
  -0.25000000 -0.25000000  0.08333333       0.003
  -0.16666667 -0.25000000  0.08333333       0.007
  -0.16666667 -0.16666667  0.08333333       0.003
   0.16666667  0.16666667  0.16666667       0.001
   0.25000000  0.16666667  0.16666667       0.003
   0.33333333  0.16666667  0.16666667       0.003
   0.41666667  0.16666667  0.16666667       0.003
   0.50000000  0.16666667  0.16666667       0.003
  -0.41666667  0.16666667  0.16666667       0.003
  -0.33333333  0.16666667  0.16666667       0.003
  -0.25000000  0.16666667  0.16666667       0.003
  -0.16666667  0.16666667  0.16666667       0.003
   0.25000000  0.25000000  0.16666667       0.003
   0.33333333  0.25000000  0.16666667       0.007
   0.41666667  0.25000000  0.16666667       0.007
   0.50000000  0.25000000  0.16666667       0.007
  -0.41666667  0.25000000  0.16666667       0.007
  -0.33333333  0.25000000  0.16666667       0.007
  -0.25000000  0.25000000  0.16666667       0.007
  -0.16666667  0.25000000  0.16666667       0.007
   0.33333333  0.33333333  0.16666667       0.003
   0.41666667  0.33333333  0.16666667       0.007
   0.50000000  0.33333333  0.16666667       0.007
  -0.41666667  0.33333333  0.16666667       0.007
  -0.33333333  0.33333333  0.16666667       0.007
  -0.25000000  0.33333333  0.16666667       0.007
  -0.16666667  0.33333333  0.16666667       0.007
   0.41666667  0.41666667  0.16666667       0.003
   0.50000000  0.41666667  0.16666667       0.007
  -0.41666667  0.41666667  0.16666667       0.007
  -0.33333333  0.41666667  0.16666667       0.007
  -0.25000000  0.41666667  0.16666667       0.007
  -0.16666667  0.41666667  0.16666667       0.007
   0.50000000  0.50000000  0.16666667       0.003
  -0.41666667  0.50000000  0.16666667       0.007
  -0.33333333  0.50000000  0.16666667       0.007
  -0.25000000  0.50000000  0.16666667       0.007
  -0.16666667  0.50000000  0.16666667       0.003
  -0.41666667 -0.41666667  0.16666667       0.003
  -0.33333333 -0.41666667  0.16666667       0.007
  -0.25000000 -0.41666667  0.16666667       0.007
  -0.33333333 -0.33333333  0.16666667       0.003
  -0.25000000 -0.33333333  0.16666667       0.007
  -0.25000000 -0.25000000  0.16666667       0.003
   0.25000000  0.25000000  0.25000000       0.001
   0.33333333  0.25000000  0.25000000       0.003
   0.41666667  0.25000000  0.25000000       0.003
   0.50000000  0.25000000  0.25000000       0.003
  -0.41666667  0.25000000  0.25000000       0.003
  -0.33333333  0.25000000  0.25000000       0.003
  -0.25000000  0.25000000  0.25000000       0.003
   0.33333333  0.33333333  0.25000000       0.003
   0.41666667  0.33333333  0.25000000       0.007
   0.50000000  0.33333333  0.25000000       0.007
  -0.41666667  0.33333333  0.25000000       0.007
  -0.33333333  0.33333333  0.25000000       0.007
  -0.25000000  0.33333333  0.25000000       0.007
   0.41666667  0.41666667  0.25000000       0.003
   0.50000000  0.41666667  0.25000000       0.007
  -0.41666667  0.41666667  0.25000000       0.007
  -0.33333333  0.41666667  0.25000000       0.007
  -0.25000000  0.41666667  0.25000000       0.007
   0.50000000  0.50000000  0.25000000       0.003
  -0.41666667  0.50000000  0.25000000       0.007
  -0.33333333  0.50000000  0.25000000       0.007
  -0.25000000  0.50000000  0.25000000       0.003
  -0.41666667 -0.41666667  0.25000000       0.003
  -0.33333333 -0.41666667  0.25000000       0.007
  -0.33333333 -0.33333333  0.25000000       0.003
   0.33333333  0.33333333  0.33333333       0.001
   0.41666667  0.33333333  0.33333333       0.003
   0.50000000  0.33333333  0.33333333       0.003
  -0.41666667  0.33333333  0.33333333       0.003
  -0.33333333  0.33333333  0.33333333       0.003
   0.41666667  0.41666667  0.33333333       0.003
   0.50000000  0.41666667  0.33333333       0.007
  -0.41666667  0.41666667  0.33333333       0.007
  -0.33333333  0.41666667  0.33333333       0.007
   0.50000000  0.50000000  0.33333333       0.003
  -0.41666667  0.50000000  0.33333333       0.007
  -0.33333333  0.50000000  0.33333333       0.003
  -0.41666667 -0.41666667  0.33333333       0.003
   0.41666667  0.41666667  0.41666667       0.001
   0.50000000  0.41666667  0.41666667       0.003
  -0.41666667  0.41666667  0.41666667       0.003
   0.50000000  0.50000000  0.41666667       0.003
  -0.41666667  0.50000000  0.41666667       0.003
   0.50000000  0.50000000  0.50000000       0.001
 
 position of ions in fractional coordinates (direct lattice) 
   0.25000000  0.75000000  0.25000000
   0.00000000  0.00000000  0.50000000
   0.25000000  0.25000000  0.75000000
   0.00000000  0.50000000  0.00000000
   0.75000000  0.75000000  0.75000000
   0.50000000  0.00000000  0.00000000
   0.75000000  0.25000000  0.25000000
   0.50000000  0.50000000  0.50000000
 
 position of ions in cartesian coordinates  (Angst):
   0.78980016  2.66354213  0.89666681
  -0.05384984 -0.05549028  1.79333362
   0.78980016  0.81386033  2.69000043
  -0.05384984  1.79419151  0.00000000
   2.53095000  2.60805184  2.69000043
   1.79499968  0.00000000  0.00000000
   2.63864968  0.86935061  0.89666681
   1.68730000  1.73870123  1.79333362
 


--------------------------------------------------------------------------------------------------------


 k-point  1 :   0.0000 0.0000 0.0000  plane waves:     841
 k-point  2 :   0.0833 0.0000-0.0000  plane waves:     838
 k-point  3 :   0.1667-0.0000 0.0000  plane waves:     831
 k-point  4 :   0.2500-0.0000-0.0000  plane waves:     837
 k-point  5 :   0.3333 0.0000 0.0000  plane waves:     840
 k-point  6 :   0.4167-0.0000-0.0000  plane waves:     836
 k-point  7 :   0.5000-0.0000-0.0000  plane waves:     836
 k-point  8 :   0.0833 0.0833-0.0000  plane waves:     839
 k-point  9 :   0.1667 0.0833-0.0000  plane waves:     838
 k-point 10 :   0.2500 0.0833 0.0000  plane waves:     841
 k-point 11 :   0.3333 0.0833 0.0000  plane waves:     844
 k-point 12 :   0.4167 0.0833-0.0000  plane waves:     841
 k-point 13 :   0.5000 0.0833 0.0000  plane waves:     834
 k-point 14 :  -0.4167 0.0833 0.0000  plane waves:     838
 k-point 15 :  -0.3333 0.0833 0.0000  plane waves:     832
 k-point 16 :  -0.2500 0.0833 0.0000  plane waves:     829
 k-point 17 :  -0.1667 0.0833 0.0000  plane waves:     829
 k-point 18 :  -0.0833 0.0833-0.0000  plane waves:     829
 k-point 19 :   0.1667 0.1667-0.0000  plane waves:     842
 k-point 20 :   0.2500 0.1667-0.0000  plane waves:     841
 k-point 21 :   0.3333 0.1667-0.0000  plane waves:     841
 k-point 22 :   0.4167 0.1667-0.0000  plane waves:     840
 k-point 23 :   0.5000 0.1667-0.0000  plane waves:     834
 k-point 24 :  -0.4167 0.1667 0.0000  plane waves:     833
 k-point 25 :  -0.3333 0.1667 0.0000  plane waves:     836
 k-point 26 :  -0.2500 0.1667-0.0000  plane waves:     833
 k-point 27 :  -0.1667 0.1667-0.0000  plane waves:     829
 k-point 28 :   0.2500 0.2500-0.0000  plane waves:     841
 k-point 29 :   0.3333 0.2500 0.0000  plane waves:     838
 k-point 30 :   0.4167 0.2500 0.0000  plane waves:     840
 k-point 31 :   0.5000 0.2500 0.0000  plane waves:     841
 k-point 32 :  -0.4167 0.2500-0.0000  plane waves:     838
 k-point 33 :  -0.3333 0.2500 0.0000  plane waves:     839
 k-point 34 :  -0.2500 0.2500 0.0000  plane waves:     836
 k-point 35 :   0.3333 0.3333 0.0000  plane waves:     846
 k-point 36 :   0.4167 0.3333 0.0000  plane waves:     841
 k-point 37 :   0.5000 0.3333 0.0000  plane waves:     846
 k-point 38 :  -0.4167 0.3333-0.0000  plane waves:     841
 k-point 39 :  -0.3333 0.3333 0.0000  plane waves:     840
 k-point 40 :   0.4167 0.4167 0.0000  plane waves:     840
 k-point 41 :   0.5000 0.4167-0.0000  plane waves:     844
 k-point 42 :  -0.4167 0.4167 0.0000  plane waves:     842
 k-point 43 :   0.5000 0.5000-0.0000  plane waves:     846
 k-point 44 :   0.0833 0.0833 0.0833  plane waves:     841
 k-point 45 :   0.1667 0.0833 0.0833  plane waves:     841
 k-point 46 :   0.2500 0.0833 0.0833  plane waves:     847
 k-point 47 :   0.3333 0.0833 0.0833  plane waves:     838
 k-point 48 :   0.4167 0.0833 0.0833  plane waves:     841
 k-point 49 :   0.5000 0.0833 0.0833  plane waves:     837
 k-point 50 :  -0.4167 0.0833 0.0833  plane waves:     840
 k-point 51 :  -0.3333 0.0833 0.0833  plane waves:     838
 k-point 52 :  -0.2500 0.0833 0.0833  plane waves:     826
 k-point 53 :  -0.1667 0.0833 0.0833  plane waves:     825
 k-point 54 :  -0.0833 0.0833 0.0833  plane waves:     829
 k-point 55 :   0.1667 0.1667 0.0833  plane waves:     842
 k-point 56 :   0.2500 0.1667 0.0833  plane waves:     848
 k-point 57 :   0.3333 0.1667 0.0833  plane waves:     843
 k-point 58 :   0.4167 0.1667 0.0833  plane waves:     840
 k-point 59 :   0.5000 0.1667 0.0833  plane waves:     840
 k-point 60 :  -0.4167 0.1667 0.0833  plane waves:     833
 k-point 61 :  -0.3333 0.1667 0.0833  plane waves:     833
 k-point 62 :  -0.2500 0.1667 0.0833  plane waves:     830
 k-point 63 :  -0.1667 0.1667 0.0833  plane waves:     828
 k-point 64 :  -0.0833 0.1667 0.0833  plane waves:     831
 k-point 65 :   0.2500 0.2500 0.0833  plane waves:     841
 k-point 66 :   0.3333 0.2500 0.0833  plane waves:     845
 k-point 67 :   0.4167 0.2500 0.0833  plane waves:     838
 k-point 68 :   0.5000 0.2500 0.0833  plane waves:     841
 k-point 69 :  -0.4167 0.2500 0.0833  plane waves:     837
 k-point 70 :  -0.3333 0.2500 0.0833  plane waves:     841
 k-point 71 :  -0.2500 0.2500 0.0833  plane waves:     839
 k-point 72 :  -0.1667 0.2500 0.0833  plane waves:     831
 k-point 73 :  -0.0833 0.2500 0.0833  plane waves:     831
 k-point 74 :   0.3333 0.3333 0.0833  plane waves:     843
 k-point 75 :   0.4167 0.3333 0.0833  plane waves:     838
 k-point 76 :   0.5000 0.3333 0.0833  plane waves:     842
 k-point 77 :  -0.4167 0.3333 0.0833  plane waves:     842
 k-point 78 :  -0.3333 0.3333 0.0833  plane waves:     841
 k-point 79 :  -0.2500 0.3333 0.0833  plane waves:     838
 k-point 80 :  -0.1667 0.3333 0.0833  plane waves:     833
 k-point 81 :  -0.0833 0.3333 0.0833  plane waves:     836
 k-point 82 :   0.4167 0.4167 0.0833  plane waves:     839
 k-point 83 :   0.5000 0.4167 0.0833  plane waves:     839
 k-point 84 :  -0.4167 0.4167 0.0833  plane waves:     845
 k-point 85 :  -0.3333 0.4167 0.0833  plane waves:     840
 k-point 86 :  -0.2500 0.4167 0.0833  plane waves:     837
 k-point 87 :  -0.1667 0.4167 0.0833  plane waves:     838
 k-point 88 :  -0.0833 0.4167 0.0833  plane waves:     835
 k-point 89 :   0.5000 0.5000 0.0833  plane waves:     842
 k-point 90 :  -0.4167 0.5000 0.0833  plane waves:     843
 k-point 91 :  -0.3333 0.5000 0.0833  plane waves:     844
 k-point 92 :  -0.2500 0.5000 0.0833  plane waves:     837
 k-point 93 :  -0.1667 0.5000 0.0833  plane waves:     835
 k-point 94 :  -0.0833 0.5000 0.0833  plane waves:     832
 k-point 95 :  -0.4167-0.4167 0.0833  plane waves:     837
 k-point 96 :  -0.3333-0.4167 0.0833  plane waves:     835
 k-point 97 :  -0.2500-0.4167 0.0833  plane waves:     836
 k-point 98 :  -0.1667-0.4167 0.0833  plane waves:     840
 k-point 99 :  -0.3333-0.3333 0.0833  plane waves:     836
 k-point ** :  -0.2500-0.3333 0.0833  plane waves:     838
 k-point ** :  -0.1667-0.3333 0.0833  plane waves:     840
 k-point ** :  -0.2500-0.2500 0.0833  plane waves:     845
 k-point ** :  -0.1667-0.2500 0.0833  plane waves:     839
 k-point ** :  -0.1667-0.1667 0.0833  plane waves:     839
 k-point ** :   0.1667 0.1667 0.1667  plane waves:     844
 k-point ** :   0.2500 0.1667 0.1667  plane waves:     840
 k-point ** :   0.3333 0.1667 0.1667  plane waves:     846
 k-point ** :   0.4167 0.1667 0.1667  plane waves:     846
 k-point ** :   0.5000 0.1667 0.1667  plane waves:     847
 k-point ** :  -0.4167 0.1667 0.1667  plane waves:     838
 k-point ** :  -0.3333 0.1667 0.1667  plane waves:     832
 k-point ** :  -0.2500 0.1667 0.1667  plane waves:     830
 k-point ** :  -0.1667 0.1667 0.1667  plane waves:     830
 k-point ** :   0.2500 0.2500 0.1667  plane waves:     840
 k-point ** :   0.3333 0.2500 0.1667  plane waves:     844
 k-point ** :   0.4167 0.2500 0.1667  plane waves:     841
 k-point ** :   0.5000 0.2500 0.1667  plane waves:     844
 k-point ** :  -0.4167 0.2500 0.1667  plane waves:     843
 k-point ** :  -0.3333 0.2500 0.1667  plane waves:     836
 k-point ** :  -0.2500 0.2500 0.1667  plane waves:     836
 k-point ** :  -0.1667 0.2500 0.1667  plane waves:     835
 k-point ** :   0.3333 0.3333 0.1667  plane waves:     845
 k-point ** :   0.4167 0.3333 0.1667  plane waves:     842
 k-point ** :   0.5000 0.3333 0.1667  plane waves:     840
 k-point ** :  -0.4167 0.3333 0.1667  plane waves:     842
 k-point ** :  -0.3333 0.3333 0.1667  plane waves:     842
 k-point ** :  -0.2500 0.3333 0.1667  plane waves:     840
 k-point ** :  -0.1667 0.3333 0.1667  plane waves:     840
 k-point ** :   0.4167 0.4167 0.1667  plane waves:     841
 k-point ** :   0.5000 0.4167 0.1667  plane waves:     840
 k-point ** :  -0.4167 0.4167 0.1667  plane waves:     841
 k-point ** :  -0.3333 0.4167 0.1667  plane waves:     837
 k-point ** :  -0.2500 0.4167 0.1667  plane waves:     838
 k-point ** :  -0.1667 0.4167 0.1667  plane waves:     839
 k-point ** :   0.5000 0.5000 0.1667  plane waves:     843
 k-point ** :  -0.4167 0.5000 0.1667  plane waves:     835
 k-point ** :  -0.3333 0.5000 0.1667  plane waves:     835
 k-point ** :  -0.2500 0.5000 0.1667  plane waves:     837
 k-point ** :  -0.1667 0.5000 0.1667  plane waves:     834
 k-point ** :  -0.4167-0.4167 0.1667  plane waves:     837
 k-point ** :  -0.3333-0.4167 0.1667  plane waves:     833
 k-point ** :  -0.2500-0.4167 0.1667  plane waves:     839
 k-point ** :  -0.3333-0.3333 0.1667  plane waves:     830
 k-point ** :  -0.2500-0.3333 0.1667  plane waves:     837
 k-point ** :  -0.2500-0.2500 0.1667  plane waves:     832
 k-point ** :   0.2500 0.2500 0.2500  plane waves:     844
 k-point ** :   0.3333 0.2500 0.2500  plane waves:     845
 k-point ** :   0.4167 0.2500 0.2500  plane waves:     847
 k-point ** :   0.5000 0.2500 0.2500  plane waves:     839
 k-point ** :  -0.4167 0.2500 0.2500  plane waves:     842
 k-point ** :  -0.3333 0.2500 0.2500  plane waves:     838
 k-point ** :  -0.2500 0.2500 0.2500  plane waves:     835
 k-point ** :   0.3333 0.3333 0.2500  plane waves:     845
 k-point ** :   0.4167 0.3333 0.2500  plane waves:     846
 k-point ** :   0.5000 0.3333 0.2500  plane waves:     844
 k-point ** :  -0.4167 0.3333 0.2500  plane waves:     842
 k-point ** :  -0.3333 0.3333 0.2500  plane waves:     837
 k-point ** :  -0.2500 0.3333 0.2500  plane waves:     838
 k-point ** :   0.4167 0.4167 0.2500  plane waves:     844
 k-point ** :   0.5000 0.4167 0.2500  plane waves:     846
 k-point ** :  -0.4167 0.4167 0.2500  plane waves:     841
 k-point ** :  -0.3333 0.4167 0.2500  plane waves:     840
 k-point ** :  -0.2500 0.4167 0.2500  plane waves:     843
 k-point ** :   0.5000 0.5000 0.2500  plane waves:     845
 k-point ** :  -0.4167 0.5000 0.2500  plane waves:     845
 k-point ** :  -0.3333 0.5000 0.2500  plane waves:     840
 k-point ** :  -0.2500 0.5000 0.2500  plane waves:     842
 k-point ** :  -0.4167-0.4167 0.2500  plane waves:     835
 k-point ** :  -0.3333-0.4167 0.2500  plane waves:     839
 k-point ** :  -0.3333-0.3333 0.2500  plane waves:     838
 k-point ** :   0.3333 0.3333 0.3333  plane waves:     852
 k-point ** :   0.4167 0.3333 0.3333  plane waves:     849
 k-point ** :   0.5000 0.3333 0.3333  plane waves:     842
 k-point ** :  -0.4167 0.3333 0.3333  plane waves:     850
 k-point ** :  -0.3333 0.3333 0.3333  plane waves:     834
 k-point ** :   0.4167 0.4167 0.3333  plane waves:     850
 k-point ** :   0.5000 0.4167 0.3333  plane waves:     845
 k-point ** :  -0.4167 0.4167 0.3333  plane waves:     847
 k-point ** :  -0.3333 0.4167 0.3333  plane waves:     836
 k-point ** :   0.5000 0.5000 0.3333  plane waves:     851
 k-point ** :  -0.4167 0.5000 0.3333  plane waves:     852
 k-point ** :  -0.3333 0.5000 0.3333  plane waves:     842
 k-point ** :  -0.4167-0.4167 0.3333  plane waves:     839
 k-point ** :   0.4167 0.4167 0.4167  plane waves:     843
 k-point ** :   0.5000 0.4167 0.4167  plane waves:     850
 k-point ** :  -0.4167 0.4167 0.4167  plane waves:     851
 k-point ** :   0.5000 0.5000 0.4167  plane waves:     852
 k-point ** :  -0.4167 0.5000 0.4167  plane waves:     854
 k-point ** :   0.5000 0.5000 0.5000  plane waves:     864

 maximum and minimum number of plane-waves per node :       227      192

 maximum number of plane-waves:       864
 maximum index in each direction: 
   IXMAX=    6   IYMAX=    6   IZMAX=    5
   IXMIN=   -6   IYMIN=   -6   IZMIN=   -6


 parallel 3D FFT for wavefunctions:
    minimum data exchange during FFTs selected (reduces bandwidth)
 parallel 3D FFT for charge:
    minimum data exchange during FFTs selected (reduces bandwidth)


 total amount of memory used by VASP MPI-rank0    37803. kBytes
=======================================================================

   base      :      30000. kBytes
   nonl-proj :       2689. kBytes
   fftplans  :        346. kBytes
   grid      :        481. kBytes
   one-center:          6. kBytes
   wavefun   :       4281. kBytes
 
     INWAV:  cpu time    0.0003: real time    0.0005
 Broyden mixing: mesh for mixing (old mesh)
   NGX = 11   NGY = 11   NGZ = 11
  (NGX  = 48   NGY  = 48   NGZ  = 48)
  gives a total of   1331 points

 initial charge density was supplied:
 charge density of overlapping atoms calculated
 number of electron      32.0000000 magnetization 
 keeping initial charge density in first step


--------------------------------------------------------------------------------------------------------


 Maximum index for augmentation-charges          277 (set IRDMAX)


--------------------------------------------------------------------------------------------------------


 First call to EWALD:  gamma=   0.494
 Maximum number of real-space cells 3x 3x 3
 Maximum number of reciprocal cells 3x 3x 3

    FEWALD:  cpu time    0.0054: real time    0.0054


--------------------------------------- Iteration      1(   1)  ---------------------------------------


    POTLOK:  cpu time    0.0254: real time    0.0291
    SETDIJ:  cpu time    0.0066: real time    0.0066
     EDDAV:  cpu time    8.6604: real time    8.6717
 BZINTS: Fermi energy: 18.270892; 32.000000 electrons
         Band energy: 118.346445;  BLOECHL correction: -0.177150
       DOS:  cpu time    0.4925: real time    0.4925
    --------------------------------------------
      LOOP:  cpu time    9.1848: real time    9.1999

 eigenvalue-minimisations  :  9080
 total energy-change (2. order) : 0.5783075E+02  (-0.1439838E+04)
 number of electron      32.0000000 magnetization 
 augmentation part       32.0000000 magnetization 

 Free energy of the ion-electron system (eV)
  ---------------------------------------------------
  alpha Z        PSCENC =       112.86196773
  Ewald energy   TEWEN  =     -1382.75938172
  -Hartree energ DENC   =       -72.37213533
  -exchange      EXHF   =         0.00000000
  -V(xc)+E(xc)   XCENC  =       113.93989840
  PAW double counting   =       302.65154477     -311.85538214
  entropy T*S    EENTRO =         0.00000000
  eigenvalues    EBANDS =       118.34644543
  atomic energy  EATOM  =      1177.01779097
  Solvation  Ediel_sol  =         0.00000000
  ---------------------------------------------------
  free energy    TOTEN  =        57.83074811 eV

  energy without entropy =       57.83074811  energy(sigma->0) =       57.83074811


--------------------------------------------------------------------------------------------------------




--------------------------------------- Iteration      1(   2)  ---------------------------------------


     EDDAV:  cpu time   10.7466: real time   10.7475
 BZINTS: Fermi energy:  9.408963; 32.000000 electrons
         Band energy: -10.230864;  BLOECHL correction:  0.000000
       DOS:  cpu time    0.1896: real time    0.1896
    --------------------------------------------
      LOOP:  cpu time   10.9362: real time   10.9371

 eigenvalue-minimisations  : 12520
 total energy-change (2. order) :-0.1285773E+03  (-0.1221969E+03)
 number of electron      32.0000000 magnetization 
 augmentation part       32.0000000 magnetization 

 Free energy of the ion-electron system (eV)
  ---------------------------------------------------
  alpha Z        PSCENC =       112.86196773
  Ewald energy   TEWEN  =     -1382.75938172
  -Hartree energ DENC   =       -72.37213533
  -exchange      EXHF   =         0.00000000
  -V(xc)+E(xc)   XCENC  =       113.93989840
  PAW double counting   =       302.65154477     -311.85538214
  entropy T*S    EENTRO =         0.00000000
  eigenvalues    EBANDS =       -10.23086356
  atomic energy  EATOM  =      1177.01779097
  Solvation  Ediel_sol  =         0.00000000
  ---------------------------------------------------
  free energy    TOTEN  =       -70.74656088 eV

  energy without entropy =      -70.74656088  energy(sigma->0) =      -70.74656088


--------------------------------------------------------------------------------------------------------




--------------------------------------- Iteration      1(   3)  ---------------------------------------


     EDDAV:  cpu time   10.4815: real time   10.4872
 BZINTS: Fermi energy:  8.267670; 32.000000 electrons
         Band energy: -14.389712;  BLOECHL correction:  0.000000
       DOS:  cpu time    0.1214: real time    0.2252
    --------------------------------------------
      LOOP:  cpu time   10.6029: real time   10.7124

 eigenvalue-minimisations  : 11856
 total energy-change (2. order) :-0.4158848E+01  (-0.4138391E+01)
 number of electron      32.0000000 magnetization 
 augmentation part       32.0000000 magnetization 

 Free energy of the ion-electron system (eV)
  ---------------------------------------------------
  alpha Z        PSCENC =       112.86196773
  Ewald energy   TEWEN  =     -1382.75938172
  -Hartree energ DENC   =       -72.37213533
  -exchange      EXHF   =         0.00000000
  -V(xc)+E(xc)   XCENC  =       113.93989840
  PAW double counting   =       302.65154477     -311.85538214
  entropy T*S    EENTRO =         0.00000000
  eigenvalues    EBANDS =       -14.38971183
  atomic energy  EATOM  =      1177.01779097
  Solvation  Ediel_sol  =         0.00000000
  ---------------------------------------------------
  free energy    TOTEN  =       -74.90540915 eV

  energy without entropy =      -74.90540915  energy(sigma->0) =      -74.90540915


--------------------------------------------------------------------------------------------------------




--------------------------------------- Iteration      1(   4)  ---------------------------------------


     EDDAV:  cpu time   10.0853: real time   10.2742
 BZINTS: Fermi energy:  8.247453; 32.000000 electrons
         Band energy: -14.431546;  BLOECHL correction:  0.000000
       DOS:  cpu time    0.1072: real time    0.1072
    --------------------------------------------
      LOOP:  cpu time   10.1924: real time   10.3814

 eigenvalue-minimisations  : 11384
 total energy-change (2. order) :-0.4183383E-01  (-0.4179061E-01)
 number of electron      32.0000000 magnetization 
 augmentation part       32.0000000 magnetization 

 Free energy of the ion-electron system (eV)
  ---------------------------------------------------
  alpha Z        PSCENC =       112.86196773
  Ewald energy   TEWEN  =     -1382.75938172
  -Hartree energ DENC   =       -72.37213533
  -exchange      EXHF   =         0.00000000
  -V(xc)+E(xc)   XCENC  =       113.93989840
  PAW double counting   =       302.65154477     -311.85538214
  entropy T*S    EENTRO =         0.00000000
  eigenvalues    EBANDS =       -14.43154566
  atomic energy  EATOM  =      1177.01779097
  Solvation  Ediel_sol  =         0.00000000
  ---------------------------------------------------
  free energy    TOTEN  =       -74.94724298 eV

  energy without entropy =      -74.94724298  energy(sigma->0) =      -74.94724298


--------------------------------------------------------------------------------------------------------




--------------------------------------- Iteration      1(   5)  ---------------------------------------


     EDDAV:  cpu time   10.2993: real time   10.3003
 BZINTS: Fermi energy:  8.234548; 32.000000 electrons
         Band energy: -14.432402;  BLOECHL correction:  0.000000
       DOS:  cpu time    0.1070: real time    0.1070
    CHARGE:  cpu time    0.2422: real time    0.2422
    MIXING:  cpu time    0.0017: real time    0.0017
    --------------------------------------------
      LOOP:  cpu time   10.6503: real time   10.6513

 eigenvalue-minimisations  : 11808
 total energy-change (2. order) :-0.8563632E-03  (-0.8559772E-03)
 number of electron      32.0000022 magnetization 
 augmentation part        0.7751189 magnetization 

 Broyden mixing:
  rms(total) = 0.93438E+00    rms(broyden)= 0.93419E+00
  rms(prec ) = 0.22023E+01
  weight for this iteration     100.00

 Free energy of the ion-electron system (eV)
  ---------------------------------------------------
  alpha Z        PSCENC =       112.86196773
  Ewald energy   TEWEN  =     -1382.75938172
  -Hartree energ DENC   =       -72.37213533
  -exchange      EXHF   =         0.00000000
  -V(xc)+E(xc)   XCENC  =       113.93989840
  PAW double counting   =       302.65154477     -311.85538214
  entropy T*S    EENTRO =         0.00000000
  eigenvalues    EBANDS =       -14.43240203
  atomic energy  EATOM  =      1177.01779097
  Solvation  Ediel_sol  =         0.00000000
  ---------------------------------------------------
  free energy    TOTEN  =       -74.94809934 eV

  energy without entropy =      -74.94809934  energy(sigma->0) =      -74.94809934


--------------------------------------------------------------------------------------------------------




--------------------------------------- Iteration      1(   6)  ---------------------------------------


    POTLOK:  cpu time    0.0195: real time    0.0198
    SETDIJ:  cpu time    0.0059: real time    0.0058
     EDDAV:  cpu time    9.4248: real time    9.4252
 BZINTS: Fermi energy:  8.807287; 32.000000 electrons
         Band energy:   1.540789;  BLOECHL correction:  0.000000
       DOS:  cpu time    0.1074: real time    0.1074
    CHARGE:  cpu time    0.2555: real time    0.2556
    MIXING:  cpu time    0.0022: real time    0.1187
    --------------------------------------------
      LOOP:  cpu time    9.8153: real time    9.9326

 eigenvalue-minimisations  : 10392
 total energy-change (2. order) : 0.1824577E+01  (-0.1218182E+00)
 number of electron      32.0000021 magnetization 
 augmentation part        0.7576753 magnetization 

 Broyden mixing:
  rms(total) = 0.51325E+00    rms(broyden)= 0.51323E+00
  rms(prec ) = 0.11919E+01
  weight for this iteration     100.00

 eigenvalues of (default mixing * dielectric matrix)
  average eigenvalue GAMMA=   2.1708
  2.1708

 Free energy of the ion-electron system (eV)
  ---------------------------------------------------
  alpha Z        PSCENC =       112.86196773
  Ewald energy   TEWEN  =     -1382.75938172
  -Hartree energ DENC   =       -87.39931702
  -exchange      EXHF   =         0.00000000
  -V(xc)+E(xc)   XCENC  =       115.34023325
  PAW double counting   =       391.03073517     -400.75634015
  entropy T*S    EENTRO =         0.00000000
  eigenvalues    EBANDS =         1.54078937
  atomic energy  EATOM  =      1177.01779097
  Solvation  Ediel_sol  =         0.00000000
  ---------------------------------------------------
  free energy    TOTEN  =       -73.12352240 eV

  energy without entropy =      -73.12352240  energy(sigma->0) =      -73.12352240


--------------------------------------------------------------------------------------------------------




--------------------------------------- Iteration      1(   7)  ---------------------------------------


    POTLOK:  cpu time    0.0196: real time    0.0199
    SETDIJ:  cpu time    0.0058: real time    0.0058
     EDDAV:  cpu time    9.7621: real time    9.7626
 BZINTS: Fermi energy:  9.523963; 32.000000 electrons
         Band energy:  20.008573;  BLOECHL correction:  0.000000
       DOS:  cpu time    0.1078: real time    0.1078
    CHARGE:  cpu time    0.2480: real time    0.2480
    MIXING:  cpu time    0.0019: real time    0.0019
    --------------------------------------------
      LOOP:  cpu time   10.1453: real time   10.1460

 eigenvalue-minimisations  : 10736
 total energy-change (2. order) : 0.6147780E+00  (-0.1391371E+00)
 number of electron      32.0000021 magnetization 
 augmentation part        0.7389299 magnetization 

 Broyden mixing:
  rms(total) = 0.69844E-01    rms(broyden)= 0.69509E-01
  rms(prec ) = 0.12209E+00
  weight for this iteration     100.00

 eigenvalues of (default mixing * dielectric matrix)
  average eigenvalue GAMMA=   2.2701
  2.0167  2.5236

 Free energy of the ion-electron system (eV)
  ---------------------------------------------------
  alpha Z        PSCENC =       112.86196773
  Ewald energy   TEWEN  =     -1382.75938172
  -Hartree energ DENC   =      -106.56641950
  -exchange      EXHF   =         0.00000000
  -V(xc)+E(xc)   XCENC  =       117.14859149
  PAW double counting   =       510.80210841     -521.02197507
  entropy T*S    EENTRO =         0.00000000
  eigenvalues    EBANDS =        20.00857324
  atomic energy  EATOM  =      1177.01779097
  Solvation  Ediel_sol  =         0.00000000
  ---------------------------------------------------
  free energy    TOTEN  =       -72.50874444 eV

  energy without entropy =      -72.50874444  energy(sigma->0) =      -72.50874444


--------------------------------------------------------------------------------------------------------




--------------------------------------- Iteration      1(   8)  ---------------------------------------


    POTLOK:  cpu time    0.0197: real time    0.0201
    SETDIJ:  cpu time    0.0059: real time    0.0059
     EDDAV:  cpu time   10.0034: real time   10.0039
 BZINTS: Fermi energy:  9.635298; 32.000000 electrons
         Band energy:  20.272600;  BLOECHL correction:  0.000000
       DOS:  cpu time    0.1217: real time    0.1217
    CHARGE:  cpu time    0.2413: real time    0.2413
    MIXING:  cpu time    0.0020: real time    0.0020
    --------------------------------------------
      LOOP:  cpu time   10.3940: real time   10.3949

 eigenvalue-minimisations  : 11400
 total energy-change (2. order) :-0.7510463E-02  (-0.3113381E-02)
 number of electron      32.0000021 magnetization 
 augmentation part        0.7394322 magnetization 

 Broyden mixing:
  rms(total) = 0.77204E-02    rms(broyden)= 0.76158E-02
  rms(prec ) = 0.13202E-01
  weight for this iteration     100.00

 eigenvalues of (default mixing * dielectric matrix)
  average eigenvalue GAMMA=   2.0629
  1.4076  2.6540  2.1270

 Free energy of the ion-electron system (eV)
  ---------------------------------------------------
  alpha Z        PSCENC =       112.86196773
  Ewald energy   TEWEN  =     -1382.75938172
  -Hartree energ DENC   =      -107.01265882
  -exchange      EXHF   =         0.00000000
  -V(xc)+E(xc)   XCENC  =       117.19496795
  PAW double counting   =       519.56171171     -529.65325253
[...]

 k-point   177 :       0.5000    0.4167    0.3333
  band No.  band energies     occupation 
      1      -7.2665      2.00000
      2      -6.7420      2.00000
      3      -6.2235      2.00000
      4      -6.1478      2.00000
      5      -3.2265      2.00000
      6      -3.1483      2.00000
      7      -2.1257      2.00000
      8      -1.8880      2.00000
      9       5.5279      2.00000
     10       5.5919      2.00000
     11       5.8182      2.00000
     12       6.2842      2.00000
     13       6.3975      2.00000
     14       6.5047      2.00000
     15       6.5249      2.00000
     16       6.8641      2.00000
     17      17.2291      0.00000
     18      17.5532      0.00000
     19      17.5855      0.00000
     20      17.5894      0.00000
     21      17.7911      0.00000
     22      17.9935      0.00000
     23      18.0750      0.00000
     24      18.1090      0.00000

 k-point   178 :      -0.4167    0.4167    0.3333
  band No.  band energies     occupation 
      1      -7.8363      2.00000
      2      -6.5412      2.00000
      3      -5.9884      2.00000
      4      -5.9621      2.00000
      5      -3.3225      2.00000
      6      -2.7584      2.00000
      7      -2.5330      2.00000
      8      -1.4881      2.00000
      9       5.3029      2.00000
     10       5.3110      2.00000
     11       5.7455      2.00000
     12       5.8854      2.00000
     13       6.3365      2.00000
     14       6.4825      2.00000
     15       6.7215      2.00000
     16       7.1642      2.00000
     17      16.9367      0.00000
     18      17.3627      0.00000
     19      17.4206      0.00000
     20      17.5135      0.00000
     21      17.8685      0.00000
     22      17.9648      0.00000
     23      18.3400      0.00000
     24      18.9185      0.00000

 k-point   179 :      -0.3333    0.4167    0.3333
  band No.  band energies     occupation 
      1      -8.3148      2.00000
      2      -6.9653      2.00000
      3      -5.9686      2.00000
      4      -5.2198      2.00000
      5      -3.0119      2.00000
      6      -2.9862      2.00000
      7      -2.0435      2.00000
      8      -0.7248      2.00000
      9       4.4739      2.00000
     10       5.0173      2.00000
     11       5.4658      2.00000
     12       5.7951      2.00000
     13       5.8705      2.00000
     14       6.1661      2.00000
     15       6.9158      2.00000
     16       7.2821      2.00000
     17      16.6028      0.00000
     18      17.0022      0.00000
     19      17.2171      0.00000
     20      17.2735      0.00000
     21      17.9330      0.00000
     22      18.5791      0.00000
     23      19.0132      0.00000
     24      19.2012      0.00000

 k-point   180 :       0.5000    0.5000    0.3333
  band No.  band energies     occupation 
      1      -6.7312      2.00000
      2      -6.7312      2.00000
      3      -6.6534      2.00000
      4      -6.1012      2.00000
      5      -2.8609      2.00000
      6      -2.7798      2.00000
      7      -2.7798      2.00000
      8      -2.6277      2.00000
      9       5.5082      2.00000
     10       6.0118      2.00000
     11       6.0118      2.00000
     12       6.0403      2.00000
     13       6.3290      2.00000
     14       6.8167      2.00000
     15       6.8167      2.00000
     16       6.8708      2.00000
     17      17.2661      0.00000
     18      17.6266      0.00000
     19      17.6266      0.00000
     20      17.6614      0.00000
     21      17.8619      0.00000
     22      17.9470      0.00000
     23      17.9668      0.00000
     24      18.3265      0.00000

 k-point   181 :      -0.4167    0.5000    0.3333
  band No.  band energies     occupation 
      1      -7.2380      2.00000
      2      -7.1932      2.00000
      3      -6.2130      2.00000
      4      -5.4402      2.00000
      5      -3.1954      2.00000
      6      -3.1796      2.00000
      7      -2.2404      2.00000
      8      -2.1923      2.00000
      9       5.1138      2.00000
     10       5.6864      2.00000
     11       5.9797      2.00000
     12       6.3392      2.00000
     13       6.3790      2.00000
     14       6.3980      2.00000
     15       6.8556      2.00000
     16       6.9670      2.00000
     17      17.2333      0.00000
     18      17.4374      0.00000
     19      17.4537      0.00000
     20      17.5395      0.00000
     21      17.7349      0.00000
     22      17.9754      0.00000
     23      18.4489      0.00000
     24      18.8210      0.00000

 k-point   182 :      -0.3333    0.5000    0.3333
  band No.  band energies     occupation 
      1      -7.6814      2.00000
      2      -7.6814      2.00000
      3      -5.8613      2.00000
      4      -4.9862      2.00000
      5      -3.3187      2.00000
      6      -3.2250      2.00000
      7      -1.4529      2.00000
      8      -1.4529      2.00000
      9       4.5238      2.00000
     10       5.1580      2.00000
     11       5.5475      2.00000
     12       5.8596      2.00000
     13       6.4983      2.00000
     14       6.4983      2.00000
     15       6.7465      2.00000
     16       6.7465      2.00000
     17      17.1499      0.00000
     18      17.1499      0.00000
     19      17.2766      0.00000
     20      17.6139      0.00000
     21      17.6971      0.00000
     22      18.4857      0.00000
     23      18.4857      0.00000
     24      19.4345      0.00000

 k-point   183 :      -0.4167   -0.4167    0.3333
  band No.  band energies     occupation 
      1      -7.7970      2.00000
      2      -6.5880      2.00000
      3      -6.5880      2.00000
      4      -5.0928      2.00000
      5      -3.4205      2.00000
      6      -2.7275      2.00000
      7      -2.7275      2.00000
      8      -1.5484      2.00000
      9       4.8547      2.00000
     10       5.8125      2.00000
     11       5.9283      2.00000
     12       5.9283      2.00000
     13       6.2616      2.00000
     14       6.2616      2.00000
     15       6.7261      2.00000
     16       7.2729      2.00000
     17      16.7623      0.00000
     18      17.3494      0.00000
     19      17.3780      0.00000
     20      17.3780      0.00000
     21      17.8277      0.00000
     22      18.6710      0.00000
     23      18.7494      0.00000
     24      19.1344      0.00000

 k-point   184 :       0.4167    0.4167    0.4167
  band No.  band energies     occupation 
      1      -6.8554      2.00000
      2      -6.3319      2.00000
      3      -6.3319      2.00000
      4      -6.3319      2.00000
      5      -3.2586      2.00000
      6      -3.2586      2.00000
      7      -3.2586      2.00000
      8      -1.9837      2.00000
      9       6.1690      2.00000
     10       6.1690      2.00000
     11       6.1690      2.00000
     12       6.4701      2.00000
     13       6.4701      2.00000
     14       6.5596      2.00000
     15       6.5596      2.00000
     16       6.5596      2.00000
     17      17.0580      0.00000
     18      17.4188      0.00000
     19      17.4188      0.00000
     20      17.4188      0.00000
     21      17.6383      0.00000
     22      17.6383      0.00000
     23      18.1935      0.00000
     24      18.1935      0.00000

 k-point   185 :       0.5000    0.4167    0.4167
  band No.  band energies     occupation 
      1      -6.8422      2.00000
      2      -6.2116      2.00000
      3      -6.1779      2.00000
      4      -6.1779      2.00000
      5      -3.5426      2.00000
      6      -3.5426      2.00000
      7      -2.8878      2.00000
      8      -2.7299      2.00000
      9       6.2371      2.00000
     10       6.2666      2.00000
     11       6.2666      2.00000
     12       6.3078      2.00000
     13       6.7245      2.00000
     14       6.7245      2.00000
     15       6.7326      2.00000
     16       6.8377      2.00000
     17      17.1622      0.00000
     18      17.5363      0.00000
     19      17.6543      0.00000
     20      17.7389      0.00000
     21      17.7543      0.00000
     22      17.7547      0.00000
     23      17.8231      0.00000
     24      17.8382      0.00000

 k-point   186 :      -0.4167    0.4167    0.4167
  band No.  band energies     occupation 
      1      -7.3516      2.00000
      2      -6.2961      2.00000
      3      -6.2961      2.00000
      4      -5.5472      2.00000
      5      -3.3319      2.00000
      6      -3.3319      2.00000
      7      -3.2850      2.00000
      8      -2.2959      2.00000
      9       5.7351      2.00000
     10       6.0121      2.00000
     11       6.2358      2.00000
     12       6.2358      2.00000
     13       6.5657      2.00000
     14       6.5657      2.00000
     15       6.9270      2.00000
     16       7.0829      2.00000
     17      17.0397      0.00000
     18      17.4405      0.00000
     19      17.4405      0.00000
     20      17.4526      0.00000
     21      17.7725      0.00000
     22      17.9217      0.00000
     23      18.2478      0.00000
     24      18.4451      0.00000

 k-point   187 :       0.5000    0.5000    0.4167
  band No.  band energies     occupation 
      1      -6.4312      2.00000
      2      -6.4312      2.00000
      3      -6.4059      2.00000
      4      -5.6571      2.00000
      5      -3.4411      2.00000
      6      -3.4149      2.00000
      7      -3.4149      2.00000
      8      -3.3882      2.00000
      9       6.1225      2.00000
     10       6.3373      2.00000
     11       6.6064      2.00000
     12       6.6539      2.00000
     13       6.6539      2.00000
     14       6.8755      2.00000
     15       6.8755      2.00000
     16       6.9473      2.00000
     17      17.1999      0.00000
     18      17.5417      0.00000
     19      17.5418      0.00000
     20      17.5878      0.00000
     21      17.6505      0.00000
     22      17.7132      0.00000
     23      17.7853      0.00000
     24      17.9530      0.00000

 k-point   188 :      -0.4167    0.5000    0.4167
  band No.  band energies     occupation 
      1      -6.8113      2.00000
      2      -6.8113      2.00000
      3      -6.1848      2.00000
      4      -5.3069      2.00000
      5      -3.6298      2.00000
      6      -3.5537      2.00000
      7      -2.9383      2.00000
      8      -2.9383      2.00000
      9       5.8065      2.00000
     10       6.1394      2.00000
     11       6.4410      2.00000
     12       6.5573      2.00000
     13       6.7225      2.00000
     14       6.7225      2.00000
     15       6.9124      2.00000
     16       6.9124      2.00000
     17      17.3521      0.00000
     18      17.4402      0.00000
     19      17.4402      0.00000
     20      17.4890      0.00000
     21      17.4985      0.00000
     22      17.9926      0.00000
     23      17.9926      0.00000
     24      18.1496      0.00000

 k-point   189 :       0.5000    0.5000    0.5000
  band No.  band energies     occupation 
      1      -6.2931      2.00000
      2      -6.2931      2.00000
      3      -6.2931      2.00000
      4      -5.4145      2.00000
      5      -3.7366      2.00000
      6      -3.6654      2.00000
      7      -3.6654      2.00000
      8      -3.6654      2.00000
      9       6.3390      2.00000
     10       6.3390      2.00000
     11       6.8049      2.00000
     12       6.8049      2.00000
     13       6.8049      2.00000
     14       6.9752      2.00000
     15       6.9752      2.00000
     16       6.9752      2.00000
     17      17.0869      0.00000
     18      17.4866      0.00000
     19      17.4866      0.00000
     20      17.4866      0.00000
     21      17.6291      0.00000
     22      17.6292      0.00000
     23      17.8115      0.00000
     24      17.8115      0.00000


--------------------------------------------------------------------------------------------------------


 soft charge-density along one line, spin component           1
         0         1         2         3         4         5         6         7         8         9
 total charge-density along one line
 
 pseudopotential strength for first ion, spin component:           1
  9.453  -0.004  -0.000  -0.000  -0.000   0.000   0.000   0.000
 -0.004  -0.002  -0.000  -0.000  -0.000   0.000   0.000   0.000
 -0.000  -0.000  -3.674   0.000   0.000  -0.008  -0.000  -0.000
 -0.000  -0.000   0.000  -3.674   0.000  -0.000  -0.008  -0.000
 -0.000  -0.000   0.000   0.000  -3.674  -0.000  -0.000  -0.008
  0.000   0.000  -0.008  -0.000  -0.000  -0.757   0.000   0.000
  0.000   0.000  -0.000  -0.008  -0.000   0.000  -0.757   0.000
  0.000   0.000  -0.000  -0.000  -0.008   0.000   0.000  -0.757
 total augmentation occupancy for first ion, spin component:           1
  1.423  -1.012  -0.010  -0.010  -0.010  -0.005  -0.005  -0.005
 -1.012   1.001   0.025   0.026   0.025   0.008   0.008   0.008
 -0.010   0.025   1.090   0.022   0.021   0.182   0.003   0.003
 -0.010   0.026   0.022   1.091   0.021   0.003   0.182   0.003
 -0.010   0.025   0.021   0.021   1.089   0.003   0.003   0.182
 -0.005   0.008   0.182   0.003   0.003   0.036   0.001   0.001
 -0.005   0.008   0.003   0.182   0.003   0.001   0.036   0.001
 -0.005   0.008   0.003   0.003   0.182   0.001   0.001   0.036


------------------------ aborting loop because EDIFF is reached ----------------------------------------


    CHARGE:  cpu time    0.2431: real time    0.2431
    FORLOC:  cpu time    0.0016: real time    0.0017
    FORNL :  cpu time    0.4332: real time    0.4332
    STRESS:  cpu time    1.0181: real time    1.0183
    FORHAR:  cpu time    0.0058: real time    0.0058
    MIXING:  cpu time    0.0019: real time    0.0019
    OFIELD:  cpu time    0.0001: real time    0.0001

  FORCE on cell =-STRESS in cart. coord.  units (eV):
  Direction    XX          YY          ZZ          XY          YZ          ZX
  --------------------------------------------------------------------------------------
  Alpha Z   112.86197   112.86197   112.86197
  Ewald    -461.85931  -460.94979  -459.95295    15.15328    16.10553    15.62941
  Hartree    35.43863    35.65819    35.89882     3.65797     3.88784     3.77290
  E(xc)    -119.24158  -119.24045  -119.23921     0.01886     0.02004     0.01945
  Local     -47.15317   -48.18339   -49.31258   -17.16465   -18.24331   -17.70398
  n-local   -27.48169   -27.89321   -27.52439    -0.73981    -0.20988    -1.11803
  augment    -2.78012    -2.78037    -2.78063    -0.00405    -0.00431    -0.00418
  Kinetic   501.69596   507.78583   514.12085     4.44983     0.01756     7.09064
  Fock        0.00000     0.00000     0.00000     0.00000     0.00000     0.00000
  -------------------------------------------------------------------------------------
  Total      -2.69395    -2.40543    -2.08930     4.80638     5.10842     4.95740
  in kB     -93.41468   -83.41029   -72.44809   166.66487   177.13845   171.90171
  external pressure =      -83.09 kB  Pullay stress =        0.00 kB


 VOLUME and BASIS-vectors are now :
 -----------------------------------------------------------------------------
  energy-cutoff  :      400.00
  volume of cell :       46.20
      direct lattice vectors                 reciprocal lattice vectors
     3.589999359  0.000000000  0.000000000     0.278551582  0.008360288  0.008622976
    -0.107699679  3.588383025  0.000000000     0.000000000  0.278677051  0.008622974
    -0.107699679 -0.110980566  3.586667240     0.000000000  0.000000000  0.278810364

  length of vectors
     3.589999359  3.589998880  3.589999693     0.278810390  0.278810428  0.278810364


 FORCES acting on ions
    electron-ion (+dipol)            ewald-force                    non-local-force                 convergence-correction
 -----------------------------------------------------------------------------------------------
   -.519E+01 -.534E+01 -.551E+01   0.535E+01 0.551E+01 0.569E+01   -.286E-01 -.294E-01 -.303E-01   -.222E-04 -.229E-04 -.236E-04
   0.519E+01 0.534E+01 0.551E+01   -.535E+01 -.551E+01 -.569E+01   0.286E-01 0.294E-01 0.303E-01   0.222E-04 0.229E-04 0.236E-04
   -.519E+01 -.534E+01 -.551E+01   0.535E+01 0.551E+01 0.569E+01   -.286E-01 -.294E-01 -.303E-01   -.222E-04 -.229E-04 -.236E-04
   0.519E+01 0.534E+01 0.551E+01   -.535E+01 -.551E+01 -.569E+01   0.286E-01 0.294E-01 0.303E-01   0.222E-04 0.229E-04 0.236E-04
   -.519E+01 -.534E+01 -.551E+01   0.535E+01 0.551E+01 0.569E+01   -.286E-01 -.294E-01 -.303E-01   -.222E-04 -.229E-04 -.236E-04
   0.519E+01 0.534E+01 0.551E+01   -.535E+01 -.551E+01 -.569E+01   0.286E-01 0.294E-01 0.303E-01   0.222E-04 0.229E-04 0.236E-04
   -.519E+01 -.534E+01 -.551E+01   0.535E+01 0.551E+01 0.569E+01   -.286E-01 -.294E-01 -.303E-01   -.222E-04 -.229E-04 -.236E-04
   0.519E+01 0.534E+01 0.551E+01   -.535E+01 -.551E+01 -.569E+01   0.286E-01 0.294E-01 0.303E-01   0.222E-04 0.229E-04 0.236E-04
 -----------------------------------------------------------------------------------------------
   0.790E-13 0.764E-13 -.409E-13   -.124E-13 0.178E-14 -.178E-14   -.347E-17 -.173E-16 -.278E-16   -.474E-14 -.206E-13 0.514E-13
 
 
 POSITION                                       TOTAL-FORCE (eV/Angst)
 -----------------------------------------------------------------------------------
      0.78980      2.66354      0.89667         0.135507      0.139635      0.144023
     -0.05385     -0.05549      1.79333        -0.135507     -0.139635     -0.144023
      0.78980      0.81386      2.69000         0.135507      0.139635      0.144023
     -0.05385      1.79419      0.00000        -0.135507     -0.139635     -0.144023
      2.53095      2.60805      2.69000         0.135507      0.139635      0.144023
      1.79500      0.00000      0.00000        -0.135507     -0.139635     -0.144023
      2.63865      0.86935      0.89667         0.135507      0.139635      0.144023
      1.68730      1.73870      1.79333        -0.135507     -0.139635     -0.144023
 -----------------------------------------------------------------------------------
    total drift:                                0.000000      0.000000      0.000000


--------------------------------------------------------------------------------------------------------



  FREE ENERGIE OF THE ION-ELECTRON SYSTEM (eV)
  ---------------------------------------------------
  free  energy   TOTEN  =       -72.51654681 eV

  energy  without entropy=      -72.51654681  energy(sigma->0) =      -72.51654681
 


--------------------------------------------------------------------------------------------------------


    POTLOK:  cpu time    0.0264: real time    0.0264


--------------------------------------------------------------------------------------------------------


     LOOP+:  cpu time  121.8241: real time  122.8909
    4ORBIT:  cpu time    0.0000: real time    0.0000
 BZINTS: Fermi energy:  9.624206; 32.000000 electrons
         Band energy:  20.247977;  BLOECHL correction:  0.000000

 total amount of memory used by VASP MPI-rank0    37803. kBytes
=======================================================================

   base      :      30000. kBytes
   nonl-proj :       2689. kBytes
   fftplans  :        346. kBytes
   grid      :        481. kBytes
   one-center:          6. kBytes
   wavefun   :       4281. kBytes
 
  
  
 General timing and accounting informations for this job:
 ========================================================
  
                  Total CPU time used (sec):      125.451
                            User time (sec):      121.506
                          System time (sec):        3.945
                         Elapsed time (sec):      129.712
  
                   Maximum memory used (kb):      193692.
                   Average memory used (kb):           0.
  
                          Minor page faults:        36895
                          Major page faults:           36
                 Voluntary context switches:          789
