<?xml version="1.0" encoding="ISO-8859-1"?>
<modeling>
 <generator>
  <i name="program" type="string">vasp </i>
  <i name="version" type="string">5.4.4.18Apr17-6-g9f103f2a35  </i>
  <i name="subversion" type="string">(build Mar 12 2022 03:36:41) complex            parallel </i>
  <i name="platform" type="string">IFC19.0.3.199_CrayMPICH7.7.19 </i>
  <i name="date" type="string">2022 12 01 </i>
  <i name="time" type="string">10:49:56 </i>
 </generator>
 <incar>
  <i type="int" name="ISTART">     0</i>
  <i type="string" name="PREC">accurate</i>
  <i name="EDIFF">      0.00000100</i>
  <i name="POTIM">      0.02000000</i>
  <i type="int" name="ISMEAR">    -5</i>
  <i name="SIGMA">      0.06000000</i>
  <i type="logical" name="LWAVE"> F  </i>
  <i type="logical" name="LCHARG"> F  </i>
  <v type="int" name="KPOINT_BSE">    -1     0     0     0</v>
 </incar>
 <structure name="primitive_cell" >
  <crystal>
   <varray name="basis" >
    <v>      -0.10769968       1.73870123       1.79333362 </v>
    <v>       1.74114984      -0.05549028       1.79333362 </v>
    <v>       1.74114984       1.79419151      -0.00000000 </v>
   </varray>
   <i name="volume">     11.55112435 </i>
   <varray name="rec_basis" >
    <v>      -0.27855158       0.27031676       0.27881036 </v>
    <v>       0.27855158      -0.27031676       0.27881037 </v>
    <v>       0.27855158       0.28703734      -0.26156441 </v>
   </varray>
  </crystal>
  <varray name="positions" >
   <v>      -0.25000000      -0.25000000      -0.25000000 </v>
   <v>      -0.50000000      -0.50000000      -0.50000000 </v>
  </varray>
 </structure>
 <varray name="primitive_index" >
  <v type="int" >        1 </v>
  <v type="int" >        4 </v>
 </varray>
 <kpoints>
  <generation param="Gamma">
   <v type="int" name="divisions">      12       12       12 </v>
   <v name="usershift">      0.00000000       0.00000000       0.00000000 </v>
   <v name="genvec1">      0.08333333       0.00000000       0.00000000 </v>
   <v name="genvec2">      0.00000000       0.08333333       0.00000000 </v>
   <v name="genvec3">      0.00000000       0.00000000       0.08333333 </v>
   <v name="shift">      0.00000000       0.00000000       0.00000000 </v>
  </generation>
  <varray name="kpointlist" >
   <v>       0.00000000       0.00000000       0.00000000 </v>
   <v>       0.08333333       0.00000000      -0.00000000 </v>
   <v>       0.16666667      -0.00000000       0.00000000 </v>
   <v>       0.25000000      -0.00000000      -0.00000000 </v>
   <v>       0.33333333       0.00000000       0.00000000 </v>
   <v>       0.41666667      -0.00000000      -0.00000000 </v>
   <v>       0.50000000      -0.00000000      -0.00000000 </v>
   <v>       0.08333333       0.08333333      -0.00000000 </v>
   <v>       0.16666667       0.08333333      -0.00000000 </v>
   <v>       0.25000000       0.08333333       0.00000000 </v>
   <v>       0.33333333       0.08333333       0.00000000 </v>
   <v>       0.41666667       0.08333333      -0.00000000 </v>
   <v>       0.50000000       0.08333333       0.00000000 </v>
   <v>      -0.41666667       0.08333333       0.00000000 </v>
   <v>      -0.33333333       0.08333333       0.00000000 </v>
   <v>      -0.25000000       0.08333333       0.00000000 </v>
   <v>      -0.16666667       0.08333333       0.00000000 </v>
   <v>      -0.08333333       0.08333333      -0.00000000 </v>
   <v>       0.16666667       0.16666667      -0.00000000 </v>
   <v>       0.25000000       0.16666667      -0.00000000 </v>
   <v>       0.33333333       0.16666667      -0.00000000 </v>
   <v>       0.41666667       0.16666667      -0.00000000 </v>
   <v>       0.50000000       0.16666667      -0.00000000 </v>
   <v>      -0.41666667       0.16666667       0.00000000 </v>
   <v>      -0.33333333       0.16666667       0.00000000 </v>
   <v>      -0.25000000       0.16666667      -0.00000000 </v>
   <v>      -0.16666667       0.16666667      -0.00000000 </v>
   <v>       0.25000000       0.25000000      -0.00000000 </v>
   <v>       0.33333333       0.25000000       0.00000000 </v>
   <v>       0.41666667       0.25000000       0.00000000 </v>
   <v>       0.50000000       0.25000000       0.00000000 </v>
   <v>      -0.41666667       0.25000000      -0.00000000 </v>
   <v>      -0.33333333       0.25000000       0.00000000 </v>
   <v>      -0.25000000       0.25000000       0.00000000 </v>
   <v>       0.33333333       0.33333333       0.00000000 </v>
   <v>       0.41666667       0.33333333       0.00000000 </v>
   <v>       0.50000000       0.33333333       0.00000000 </v>
   <v>      -0.41666667       0.33333333      -0.00000000 </v>
   <v>      -0.33333333       0.33333333       0.00000000 </v>
   <v>       0.41666667       0.41666667       0.00000000 </v>
   <v>       0.50000000       0.41666667      -0.00000000 </v>
   <v>      -0.41666667       0.41666667       0.00000000 </v>
   <v>       0.50000000       0.50000000      -0.00000000 </v>
   <v>       0.08333333       0.08333333       0.08333333 </v>
   <v>       0.16666667       0.08333333       0.08333333 </v>
   <v>       0.25000000       0.08333333       0.08333333 </v>
   <v>       0.33333333       0.08333333       0.08333333 </v>
   <v>       0.41666667       0.08333333       0.08333333 </v>
   <v>       0.50000000       0.08333333       0.08333333 </v>
   <v>      -0.41666667       0.08333333       0.08333333 </v>
   <v>      -0.33333333       0.08333333       0.08333333 </v>
   <v>      -0.25000000       0.08333333       0.08333333 </v>
   <v>      -0.16666667       0.08333333       0.08333333 </v>
   <v>      -0.08333333       0.08333333       0.08333333 </v>
   <v>       0.16666667       0.16666667       0.08333333 </v>
   <v>       0.25000000       0.16666667       0.08333333 </v>
   <v>       0.33333333       0.16666667       0.08333333 </v>
   <v>       0.41666667       0.16666667       0.08333333 </v>
   <v>       0.50000000       0.16666667       0.08333333 </v>
   <v>      -0.41666667       0.16666667       0.08333333 </v>
   <v>      -0.33333333       0.16666667       0.08333333 </v>
   <v>      -0.25000000       0.16666667       0.08333333 </v>
   <v>      -0.16666667       0.16666667       0.08333333 </v>
   <v>      -0.08333333       0.16666667       0.08333333 </v>
   <v>       0.25000000       0.25000000       0.08333333 </v>
   <v>       0.33333333       0.25000000       0.08333333 </v>
   <v>       0.41666667       0.25000000       0.08333333 </v>
   <v>       0.50000000       0.25000000       0.08333333 </v>
   <v>      -0.41666667       0.25000000       0.08333333 </v>
   <v>      -0.33333333       0.25000000       0.08333333 </v>
   <v>      -0.25000000       0.25000000       0.08333333 </v>
   <v>      -0.16666667       0.25000000       0.08333333 </v>
   <v>      -0.08333333       0.25000000       0.08333333 </v>
   <v>       0.33333333       0.33333333       0.08333333 </v>
   <v>       0.41666667       0.33333333       0.08333333 </v>
   <v>       0.50000000       0.33333333       0.08333333 </v>
   <v>      -0.41666667       0.33333333       0.08333333 </v>
   <v>      -0.33333333       0.33333333       0.08333333 </v>
   <v>      -0.25000000       0.33333333       0.08333333 </v>
   <v>      -0.16666667       0.33333333       0.08333333 </v>
   <v>      -0.08333333       0.33333333       0.08333333 </v>
   <v>       0.41666667       0.41666667       0.08333333 </v>
   <v>       0.50000000       0.41666667       0.08333333 </v>
   <v>      -0.41666667       0.41666667       0.08333333 </v>
   <v>      -0.33333333       0.41666667       0.08333333 </v>
   <v>      -0.25000000       0.41666667       0.08333333 </v>
   <v>      -0.16666667       0.41666667       0.08333333 </v>
   <v>      -0.08333333       0.41666667       0.08333333 </v>
   <v>       0.50000000       0.50000000       0.08333333 </v>
   <v>      -0.41666667       0.50000000       0.08333333 </v>
   <v>      -0.33333333       0.50000000       0.08333333 </v>
   <v>      -0.25000000       0.50000000       0.08333333 </v>
   <v>      -0.16666667       0.50000000       0.08333333 </v>
   <v>      -0.08333333       0.50000000       0.08333333 </v>
   <v>      -0.41666667      -0.41666667       0.08333333 </v>
   <v>      -0.33333333      -0.41666667       0.08333333 </v>
   <v>      -0.25000000      -0.41666667       0.08333333 </v>
   <v>      -0.16666667      -0.41666667       0.08333333 </v>
   <v>      -0.33333333      -0.33333333       0.08333333 </v>
   <v>      -0.25000000      -0.33333333       0.08333333 </v>
   <v>      -0.16666667      -0.33333333       0.08333333 </v>
   <v>      -0.25000000      -0.25000000       0.08333333 </v>
   <v>      -0.16666667      -0.25000000       0.08333333 </v>
   <v>      -0.16666667      -0.16666667       0.08333333 </v>
   <v>       0.16666667       0.16666667       0.16666667 </v>
   <v>       0.25000000       0.16666667       0.16666667 </v>
   <v>       0.33333333       0.16666667       0.16666667 </v>
   <v>       0.41666667       0.16666667       0.16666667 </v>
   <v>       0.50000000       0.16666667       0.16666667 </v>
   <v>      -0.41666667       0.16666667       0.16666667 </v>
   <v>      -0.33333333       0.16666667       0.16666667 </v>
   <v>      -0.25000000       0.16666667       0.16666667 </v>
   <v>      -0.16666667       0.16666667       0.16666667 </v>
   <v>       0.25000000       0.25000000       0.16666667 </v>
   <v>       0.33333333       0.25000000       0.16666667 </v>
   <v>       0.41666667       0.25000000       0.16666667 </v>
   <v>       0.50000000       0.25000000       0.16666667 </v>
   <v>      -0.41666667       0.25000000       0.16666667 </v>
   <v>      -0.33333333       0.25000000       0.16666667 </v>
   <v>      -0.25000000       0.25000000       0.16666667 </v>
   <v>      -0.16666667       0.25000000       0.16666667 </v>
   <v>       0.33333333       0.33333333       0.16666667 </v>
   <v>       0.41666667       0.33333333       0.16666667 </v>
   <v>       0.50000000       0.33333333       0.16666667 </v>
   <v>      -0.41666667       0.33333333       0.16666667 </v>
   <v>      -0.33333333       0.33333333       0.16666667 </v>
   <v>      -0.25000000       0.33333333       0.16666667 </v>
   <v>      -0.16666667       0.33333333       0.16666667 </v>
   <v>       0.41666667       0.41666667       0.16666667 </v>
   <v>       0.50000000       0.41666667       0.16666667 </v>
   <v>      -0.41666667       0.41666667       0.16666667 </v>
   <v>      -0.33333333       0.41666667       0.16666667 </v>
   <v>      -0.25000000       0.41666667       0.16666667 </v>
   <v>      -0.16666667       0.41666667       0.16666667 </v>
   <v>       0.50000000       0.50000000       0.16666667 </v>
   <v>      -0.41666667       0.50000000       0.16666667 </v>
   <v>      -0.33333333       0.50000000       0.16666667 </v>
   <v>      -0.25000000       0.50000000       0.16666667 </v>
   <v>      -0.16666667       0.50000000       0.16666667 </v>
   <v>      -0.41666667      -0.41666667       0.16666667 </v>
   <v>      -0.33333333      -0.41666667       0.16666667 </v>
   <v>      -0.25000000      -0.41666667       0.16666667 </v>
   <v>      -0.33333333      -0.33333333       0.16666667 </v>
   <v>      -0.25000000      -0.33333333       0.16666667 </v>
   <v>      -0.25000000      -0.25000000       0.16666667 </v>
   <v>       0.25000000       0.25000000       0.25000000 </v>
   <v>       0.33333333       0.25000000       0.25000000 </v>
   <v>       0.41666667       0.25000000       0.25000000 </v>
   <v>       0.50000000       0.25000000       0.25000000 </v>
   <v>      -0.41666667       0.25000000       0.25000000 </v>
   <v>      -0.33333333       0.25000000       0.25000000 </v>
   <v>      -0.25000000       0.25000000       0.25000000 </v>
   <v>       0.33333333       0.33333333       0.25000000 </v>
   <v>       0.41666667       0.33333333       0.25000000 </v>
   <v>       0.50000000       0.33333333       0.25000000 </v>
   <v>      -0.41666667       0.33333333       0.25000000 </v>
   <v>      -0.33333333       0.33333333       0.25000000 </v>
   <v>      -0.25000000       0.33333333       0.25000000 </v>
   <v>       0.41666667       0.41666667       0.25000000 </v>
   <v>       0.50000000       0.41666667       0.25000000 </v>
   <v>      -0.41666667       0.41666667       0.25000000 </v>
   <v>      -0.33333333       0.41666667       0.25000000 </v>
   <v>      -0.25000000       0.41666667       0.25000000 </v>
   <v>       0.50000000       0.50000000       0.25000000 </v>
   <v>      -0.41666667       0.50000000       0.25000000 </v>
   <v>      -0.33333333       0.50000000       0.25000000 </v>
   <v>      -0.25000000       0.50000000       0.25000000 </v>
   <v>      -0.41666667      -0.41666667       0.25000000 </v>
   <v>      -0.33333333      -0.41666667       0.25000000 </v>
   <v>      -0.33333333      -0.33333333       0.25000000 </v>
   <v>       0.33333333       0.33333333       0.33333333 </v>
   <v>       0.41666667       0.33333333       0.33333333 </v>
   <v>       0.50000000       0.33333333       0.33333333 </v>
   <v>      -0.41666667       0.33333333       0.33333333 </v>
   <v>      -0.33333333       0.33333333       0.33333333 </v>
   <v>       0.41666667       0.41666667       0.33333333 </v>
   <v>       0.50000000       0.41666667       0.33333333 </v>
   <v>      -0.41666667       0.41666667       0.33333333 </v>
   <v>      -0.33333333       0.41666667       0.33333333 </v>
   <v>       0.50000000       0.50000000       0.33333333 </v>
   <v>      -0.41666667       0.50000000       0.33333333 </v>
   <v>      -0.33333333       0.50000000       0.33333333 </v>
   <v>      -0.41666667      -0.41666667       0.33333333 </v>
   <v>       0.41666667       0.41666667       0.41666667 </v>
   <v>       0.50000000       0.41666667       0.41666667 </v>
   <v>      -0.41666667       0.41666667       0.41666667 </v>
   <v>       0.50000000       0.50000000       0.41666667 </v>
   <v>      -0.41666667       0.50000000       0.41666667 </v>
   <v>       0.50000000       0.50000000       0.50000000 </v>
  </varray>
  <varray name="weights" >
   <v>       0.00057870 </v>
   <v>       0.00347222 </v>
   <v>       0.00347222 </v>
   <v>       0.00347222 </v>
   <v>       0.00347222 </v>
   <v>       0.00347222 </v>
   <v>       0.00173611 </v>
   <v>       0.00347222 </v>
   <v>       0.00694444 </v>
   <v>       0.00694444 </v>
   <v>       0.00694444 </v>
   <v>       0.00694444 </v>
   <v>       0.00694444 </v>
   <v>       0.00694444 </v>
   <v>       0.00694444 </v>
   <v>       0.00694444 </v>
   <v>       0.00694444 </v>
   <v>       0.00347222 </v>
   <v>       0.00347222 </v>
   <v>       0.00694444 </v>
   <v>       0.00694444 </v>
   <v>       0.00694444 </v>
   <v>       0.00694444 </v>
   <v>       0.00694444 </v>
   <v>       0.00694444 </v>
   <v>       0.00694444 </v>
   <v>       0.00347222 </v>
   <v>       0.00347222 </v>
   <v>       0.00694444 </v>
   <v>       0.00694444 </v>
   <v>       0.00694444 </v>
   <v>       0.00694444 </v>
   <v>       0.00694444 </v>
   <v>       0.00347222 </v>
   <v>       0.00347222 </v>
   <v>       0.00694444 </v>
   <v>       0.00694444 </v>
   <v>       0.00694444 </v>
   <v>       0.00347222 </v>
   <v>       0.00347222 </v>
   <v>       0.00694444 </v>
   <v>       0.00347222 </v>
   <v>       0.00173611 </v>
   <v>       0.00115741 </v>
   <v>       0.00347222 </v>
   <v>       0.00347222 </v>
   <v>       0.00347222 </v>
   <v>       0.00347222 </v>
   <v>       0.00347222 </v>
   <v>       0.00347222 </v>
   <v>       0.00347222 </v>
   <v>       0.00347222 </v>
   <v>       0.00347222 </v>
   <v>       0.00347222 </v>
   <v>       0.00347222 </v>
   <v>       0.00694444 </v>
   <v>       0.00694444 </v>
   <v>       0.00694444 </v>
   <v>       0.00694444 </v>
   <v>       0.00694444 </v>
   <v>       0.00694444 </v>
   <v>       0.00694444 </v>
   <v>       0.00694444 </v>
   <v>       0.00694444 </v>
   <v>       0.00347222 </v>
   <v>       0.00694444 </v>
   <v>       0.00694444 </v>
   <v>       0.00694444 </v>
   <v>       0.00694444 </v>
   <v>       0.00694444 </v>
   <v>       0.00694444 </v>
   <v>       0.00694444 </v>
   <v>       0.00694444 </v>
   <v>       0.00347222 </v>
   <v>       0.00694444 </v>
   <v>       0.00694444 </v>
   <v>       0.00694444 </v>
   <v>       0.00694444 </v>
   <v>       0.00694444 </v>
   <v>       0.00694444 </v>
   <v>       0.00694444 </v>
   <v>       0.00347222 </v>
   <v>       0.00694444 </v>
   <v>       0.00694444 </v>
   <v>       0.00694444 </v>
   <v>       0.00694444 </v>
   <v>       0.00694444 </v>
   <v>       0.00694444 </v>
   <v>       0.00347222 </v>
   <v>       0.00694444 </v>
   <v>       0.00694444 </v>
   <v>       0.00694444 </v>
   <v>       0.00694444 </v>
   <v>       0.00347222 </v>
   <v>       0.00347222 </v>
   <v>       0.00694444 </v>
   <v>       0.00694444 </v>
   <v>       0.00694444 </v>
   <v>       0.00347222 </v>
   <v>       0.00694444 </v>
   <v>       0.00694444 </v>
   <v>       0.00347222 </v>
   <v>       0.00694444 </v>
   <v>       0.00347222 </v>
   <v>       0.00115741 </v>
   <v>       0.00347222 </v>
   <v>       0.00347222 </v>
   <v>       0.00347222 </v>
   <v>       0.00347222 </v>
   <v>       0.00347222 </v>
   <v>       0.00347222 </v>
   <v>       0.00347222 </v>
   <v>       0.00347222 </v>
   <v>       0.00347222 </v>
   <v>       0.00694444 </v>
   <v>       0.00694444 </v>
   <v>       0.00694444 </v>
   <v>       0.00694444 </v>
   <v>       0.00694444 </v>
   <v>       0.00694444 </v>
   <v>       0.00694444 </v>
   <v>       0.00347222 </v>
   <v>       0.00694444 </v>
   <v>       0.00694444 </v>
   <v>       0.00694444 </v>
   <v>       0.00694444 </v>
   <v>       0.00694444 </v>
   <v>       0.00694444 </v>
   <v>       0.00347222 </v>
   <v>       0.00694444 </v>
   <v>       0.00694444 </v>
   <v>       0.00694444 </v>
   <v>       0.00694444 </v>
   <v>       0.00694444 </v>
   <v>       0.00347222 </v>
   <v>       0.00694444 </v>
   <v>       0.00694444 </v>
   <v>       0.00694444 </v>
   <v>       0.00347222 </v>
   <v>       0.00347222 </v>
   <v>       0.00694444 </v>
   <v>       0.00694444 </v>
   <v>       0.00347222 </v>
   <v>       0.00694444 </v>
   <v>       0.00347222 </v>
   <v>       0.00115741 </v>
   <v>       0.00347222 </v>
   <v>       0.00347222 </v>
   <v>       0.00347222 </v>
   <v>       0.00347222 </v>
   <v>       0.00347222 </v>
   <v>       0.00347222 </v>
   <v>       0.00347222 </v>
   <v>       0.00694444 </v>
   <v>       0.00694444 </v>
   <v>       0.00694444 </v>
   <v>       0.00694444 </v>
   <v>       0.00694444 </v>
   <v>       0.00347222 </v>
   <v>       0.00694444 </v>
   <v>       0.00694444 </v>
   <v>       0.00694444 </v>
   <v>       0.00694444 </v>
   <v>       0.00347222 </v>
   <v>       0.00694444 </v>
   <v>       0.00694444 </v>
   <v>       0.00347222 </v>
   <v>       0.00347222 </v>
   <v>       0.00694444 </v>
   <v>       0.00347222 </v>
   <v>       0.00115741 </v>
   <v>       0.00347222 </v>
   <v>       0.00347222 </v>
   <v>       0.00347222 </v>
   <v>       0.00347222 </v>
   <v>       0.00347222 </v>
   <v>       0.00694444 </v>
   <v>       0.00694444 </v>
   <v>       0.00694444 </v>
   <v>       0.00347222 </v>
   <v>       0.00694444 </v>
   <v>       0.00347222 </v>
   <v>       0.00347222 </v>
   <v>       0.00115741 </v>
   <v>       0.00347222 </v>
   <v>       0.00347222 </v>
   <v>       0.00347222 </v>
   <v>       0.00347222 </v>
   <v>       0.00057870 </v>
  </varray>
  <varray name="tetrahedronlist"  type="int" >
   <v type="int" >        4        1        2        2        8 </v>
   <v type="int" >        4        2        2        8        8 </v>
   <v type="int" >        4        2        8        8       44 </v>
   <v type="int" >        4        2        3        8        9 </v>
   <v type="int" >        4        2        8        8        9 </v>
   <v type="int" >        4        8        8        9       44 </v>
   <v type="int" >        4        3        8        9        9 </v>
   <v type="int" >        8        8        9        9       45 </v>
   <v type="int" >        8        8        9       44       45 </v>
   <v type="int" >        4        3        4        9       10 </v>
   <v type="int" >        4        3        9        9       10 </v>
   <v type="int" >        4        9        9       10       45 </v>
   <v type="int" >        4        4        9       10       10 </v>
   <v type="int" >        4        9       10       10       46 </v>
   <v type="int" >        4        9       10       45       46 </v>
   <v type="int" >        4        4        5       10       11 </v>
   <v type="int" >        4        4       10       10       11 </v>
   <v type="int" >        4       10       10       11       46 </v>
   <v type="int" >        4        5       10       11       11 </v>
   <v type="int" >        4       10       11       11       47 </v>
   <v type="int" >        4       10       11       46       47 </v>
   <v type="int" >        4        5        6       11       12 </v>
   <v type="int" >        4        5       11       11       12 </v>
   <v type="int" >        4       11       11       12       47 </v>
   <v type="int" >        4        6       11       12       12 </v>
   <v type="int" >        4       11       12       12       48 </v>
   <v type="int" >        4       11       12       47       48 </v>
   <v type="int" >        8        6        7       12       13 </v>
   <v type="int" >        4        6       12       12       13 </v>
   <v type="int" >        4       12       12       13       48 </v>
   <v type="int" >        8        7       12       13       13 </v>
   <v type="int" >        4       12       13       13       49 </v>
   <v type="int" >        4       12       13       48       49 </v>
   <v type="int" >        4        6        7       13       14 </v>
   <v type="int" >        4        7       13       13       14 </v>
   <v type="int" >        4       13       13       14       49 </v>
   <v type="int" >        4        6       13       14       14 </v>
   <v type="int" >        4       13       14       14       50 </v>
   <v type="int" >        4       13       14       49       50 </v>
   <v type="int" >        4        5        6       14       15 </v>
   <v type="int" >        4        6       14       14       15 </v>
   <v type="int" >        4       14       14       15       50 </v>
   <v type="int" >        4        5       14       15       15 </v>
   <v type="int" >        4       14       15       15       51 </v>
   <v type="int" >        4       14       15       50       51 </v>
   <v type="int" >        4        4        5       15       16 </v>
   <v type="int" >        4        5       15       15       16 </v>
   <v type="int" >        4       15       15       16       51 </v>
   <v type="int" >        4        4       15       16       16 </v>
   <v type="int" >        4       15       16       16       52 </v>
   <v type="int" >        4       15       16       51       52 </v>
   <v type="int" >        4        3        4       16       17 </v>
   <v type="int" >        4        4       16       16       17 </v>
   <v type="int" >        4       16       16       17       52 </v>
   <v type="int" >        4        3       16       17       17 </v>
   <v type="int" >        4       16       17       17       53 </v>
   <v type="int" >        4       16       17       52       53 </v>
   <v type="int" >        4        2        3       17       18 </v>
   <v type="int" >        4        3       17       17       18 </v>
   <v type="int" >        8       17       17       18       53 </v>
   <v type="int" >        4        2       17       18       18 </v>
   <v type="int" >        4       17       18       18       54 </v>
   <v type="int" >        8       17       18       53       54 </v>
   <v type="int" >        8        1        2        2       18 </v>
   <v type="int" >        4        2        2       18       18 </v>
   <v type="int" >        4        2       18       18       54 </v>
   <v type="int" >        4        2        2        8       18 </v>
   <v type="int" >        4        2        8       18       54 </v>
   <v type="int" >        4        8        9       19       44 </v>
   <v type="int" >        4        9       19       44       45 </v>
   <v type="int" >        4       19       44       45       55 </v>
   <v type="int" >        4        9       10       20       45 </v>
   <v type="int" >        4        9       19       20       45 </v>
   <v type="int" >        4       19       20       45       55 </v>
   <v type="int" >        4       10       20       45       46 </v>
   <v type="int" >        4       20       45       46       56 </v>
   <v type="int" >        4       20       45       55       56 </v>
   <v type="int" >        4       10       11       21       46 </v>
   <v type="int" >        4       10       20       21       46 </v>
   <v type="int" >        4       20       21       46       56 </v>
   <v type="int" >        4       11       21       46       47 </v>
   <v type="int" >        4       21       46       47       57 </v>
   <v type="int" >        4       21       46       56       57 </v>
   <v type="int" >        4       11       12       22       47 </v>
   <v type="int" >        4       11       21       22       47 </v>
   <v type="int" >        4       21       22       47       57 </v>
   <v type="int" >        4       12       22       47       48 </v>
   <v type="int" >        4       22       47       48       58 </v>
   <v type="int" >        4       22       47       57       58 </v>
   <v type="int" >        4       12       13       23       48 </v>
   <v type="int" >        4       12       22       23       48 </v>
   <v type="int" >        4       22       23       48       58 </v>
   <v type="int" >        4       13       23       48       49 </v>
   <v type="int" >        4       23       48       49       59 </v>
   <v type="int" >        4       23       48       58       59 </v>
   <v type="int" >        4       13       14       24       49 </v>
   <v type="int" >        4       13       23       24       49 </v>
   <v type="int" >        4       23       24       49       59 </v>
   <v type="int" >        4       14       24       49       50 </v>
   <v type="int" >        4       24       49       50       60 </v>
   <v type="int" >        4       24       49       59       60 </v>
   <v type="int" >        4       14       15       25       50 </v>
   <v type="int" >        4       14       24       25       50 </v>
   <v type="int" >        4       24       25       50       60 </v>
   <v type="int" >        4       15       25       50       51 </v>
   <v type="int" >        4       25       50       51       61 </v>
   <v type="int" >        4       25       50       60       61 </v>
   <v type="int" >        4       15       16       26       51 </v>
   <v type="int" >        4       15       25       26       51 </v>
   <v type="int" >        4       25       26       51       61 </v>
   <v type="int" >        4       16       26       51       52 </v>
   <v type="int" >        4       26       51       52       62 </v>
   <v type="int" >        4       26       51       61       62 </v>
   <v type="int" >        4       16       17       27       52 </v>
   <v type="int" >        4       16       26       27       52 </v>
   <v type="int" >        4       26       27       52       62 </v>
   <v type="int" >        4       17       27       52       53 </v>
   <v type="int" >        4       27       52       53       63 </v>
   <v type="int" >        4       27       52       62       63 </v>
   <v type="int" >        4       17       17       27       53 </v>
   <v type="int" >        4       17       27       53       63 </v>
   <v type="int" >        4       17       53       54       64 </v>
   <v type="int" >        4       17       53       63       64 </v>
   <v type="int" >        4        2        3       18       54 </v>
   <v type="int" >        4        3       17       18       54 </v>
   <v type="int" >        4        3       17       54       64 </v>
   <v type="int" >        4        2        3        8       54 </v>
   <v type="int" >        4        3        8        9       54 </v>
   <v type="int" >        4        3        9       54       64 </v>
   <v type="int" >        4       19       20       28       55 </v>
   <v type="int" >        4       20       28       55       56 </v>
   <v type="int" >        4       28       55       56       65 </v>
   <v type="int" >        4       20       21       29       56 </v>
   <v type="int" >        4       20       28       29       56 </v>
   <v type="int" >        4       28       29       56       65 </v>
   <v type="int" >        4       21       29       56       57 </v>
   <v type="int" >        4       29       56       57       66 </v>
   <v type="int" >        4       29       56       65       66 </v>
   <v type="int" >        4       21       22       30       57 </v>
   <v type="int" >        4       21       29       30       57 </v>
   <v type="int" >        4       29       30       57       66 </v>
   <v type="int" >        4       22       30       57       58 </v>
   <v type="int" >        4       30       57       58       67 </v>
   <v type="int" >        4       30       57       66       67 </v>
   <v type="int" >        4       22       23       31       58 </v>
   <v type="int" >        4       22       30       31       58 </v>
   <v type="int" >        4       30       31       58       67 </v>
   <v type="int" >        4       23       31       58       59 </v>
   <v type="int" >        4       31       58       59       68 </v>
   <v type="int" >        4       31       58       67       68 </v>
   <v type="int" >        4       23       24       32       59 </v>
   <v type="int" >        4       23       31       32       59 </v>
   <v type="int" >        4       31       32       59       68 </v>
   <v type="int" >        4       24       32       59       60 </v>
   <v type="int" >        4       32       59       60       69 </v>
   <v type="int" >        4       32       59       68       69 </v>
   <v type="int" >        4       24       25       33       60 </v>
   <v type="int" >        4       24       32       33       60 </v>
   <v type="int" >        4       32       33       60       69 </v>
   <v type="int" >        4       25       33       60       61 </v>
   <v type="int" >        4       33       60       61       70 </v>
   <v type="int" >        4       33       60       69       70 </v>
   <v type="int" >        4       25       26       34       61 </v>
   <v type="int" >        4       25       33       34       61 </v>
   <v type="int" >        4       33       34       61       70 </v>
   <v type="int" >        4       26       34       61       62 </v>
   <v type="int" >        4       34       61       62       71 </v>
   <v type="int" >        4       34       61       70       71 </v>
   <v type="int" >        4       26       26       27       62 </v>
   <v type="int" >        4       26       26       34       62 </v>
   <v type="int" >        4       26       34       62       71 </v>
   <v type="int" >        4       26       27       62       63 </v>
   <v type="int" >        4       26       62       63       72 </v>
   <v type="int" >        4       26       62       71       72 </v>
   <v type="int" >        4       16       17       27       63 </v>
   <v type="int" >        4       16       26       27       63 </v>
   <v type="int" >        4       16       26       63       72 </v>
   <v type="int" >        4       16       17       63       64 </v>
   <v type="int" >        4       16       63       64       73 </v>
   <v type="int" >        4       16       63       72       73 </v>
   <v type="int" >        4        3        4       17       64 </v>
   <v type="int" >        4        4       16       17       64 </v>
   <v type="int" >        4        4       16       64       73 </v>
   <v type="int" >        4        3        4        9       64 </v>
   <v type="int" >        4        4        9       10       64 </v>
   <v type="int" >        4        4       10       64       73 </v>
   <v type="int" >        4       28       29       35       65 </v>
   <v type="int" >        4       29       35       65       66 </v>
   <v type="int" >        4       35       65       66       74 </v>
   <v type="int" >        4       29       30       36       66 </v>
   <v type="int" >        4       29       35       36       66 </v>
   <v type="int" >        4       35       36       66       74 </v>
   <v type="int" >        4       30       36       66       67 </v>
   <v type="int" >        4       36       66       67       75 </v>
   <v type="int" >        4       36       66       74       75 </v>
   <v type="int" >        4       30       31       37       67 </v>
   <v type="int" >        4       30       36       37       67 </v>
   <v type="int" >        4       36       37       67       75 </v>
   <v type="int" >        4       31       37       67       68 </v>
   <v type="int" >        4       37       67       68       76 </v>
   <v type="int" >        4       37       67       75       76 </v>
   <v type="int" >        4       31       32       38       68 </v>
   <v type="int" >        4       31       37       38       68 </v>
   <v type="int" >        4       37       38       68       76 </v>
   <v type="int" >        4       32       38       68       69 </v>
   <v type="int" >        4       38       68       69       77 </v>
   <v type="int" >        4       38       68       76       77 </v>
   <v type="int" >        4       32       33       39       69 </v>
   <v type="int" >        4       32       38       39       69 </v>
   <v type="int" >        4       38       39       69       77 </v>
   <v type="int" >        4       33       39       69       70 </v>
   <v type="int" >        4       39       69       70       78 </v>
   <v type="int" >        4       39       69       77       78 </v>
   <v type="int" >        4       33       33       34       70 </v>
   <v type="int" >        4       33       33       39       70 </v>
   <v type="int" >        4       33       39       70       78 </v>
   <v type="int" >        4       33       34       70       71 </v>
   <v type="int" >        4       33       70       71       79 </v>
   <v type="int" >        4       33       70       78       79 </v>
   <v type="int" >        4       25       26       34       71 </v>
   <v type="int" >        4       25       33       34       71 </v>
   <v type="int" >        4       25       33       71       79 </v>
   <v type="int" >        4       25       26       71       72 </v>
   <v type="int" >        4       25       71       72       80 </v>
   <v type="int" >        4       25       71       79       80 </v>
   <v type="int" >        4       15       16       26       72 </v>
   <v type="int" >        4       15       25       26       72 </v>
   <v type="int" >        4       15       25       72       80 </v>
   <v type="int" >        4       15       16       72       73 </v>
   <v type="int" >        4       15       72       73       81 </v>
   <v type="int" >        4       15       72       80       81 </v>
   <v type="int" >        4        4        5       16       73 </v>
   <v type="int" >        4        5       15       16       73 </v>
   <v type="int" >        4        5       15       73       81 </v>
   <v type="int" >        4        4        5       10       73 </v>
   <v type="int" >        4        5       10       11       73 </v>
   <v type="int" >        4        5       11       73       81 </v>
   <v type="int" >        4       35       36       40       74 </v>
   <v type="int" >        4       36       40       74       75 </v>
   <v type="int" >        4       40       74       75       82 </v>
   <v type="int" >        4       36       37       41       75 </v>
   <v type="int" >        4       36       40       41       75 </v>
   <v type="int" >        4       40       41       75       82 </v>
   <v type="int" >        4       37       41       75       76 </v>
   <v type="int" >        4       41       75       76       83 </v>
   <v type="int" >        4       41       75       82       83 </v>
   <v type="int" >        4       37       38       42       76 </v>
   <v type="int" >        4       37       41       42       76 </v>
   <v type="int" >        4       41       42       76       83 </v>
   <v type="int" >        4       38       42       76       77 </v>
   <v type="int" >        4       42       76       77       84 </v>
   <v type="int" >        4       42       76       83       84 </v>
   <v type="int" >        4       38       38       39       77 </v>
   <v type="int" >        4       38       38       42       77 </v>
   <v type="int" >        4       38       42       77       84 </v>
   <v type="int" >        4       38       39       77       78 </v>
   <v type="int" >        4       38       77       78       85 </v>
   <v type="int" >        4       38       77       84       85 </v>
   <v type="int" >        4       32       33       39       78 </v>
   <v type="int" >        4       32       38       39       78 </v>
   <v type="int" >        4       32       38       78       85 </v>
   <v type="int" >        4       32       33       78       79 </v>
   <v type="int" >        4       32       78       79       86 </v>
   <v type="int" >        4       32       78       85       86 </v>
   <v type="int" >        4       24       25       33       79 </v>
   <v type="int" >        4       24       32       33       79 </v>
   <v type="int" >        4       24       32       79       86 </v>
   <v type="int" >        4       24       25       79       80 </v>
   <v type="int" >        4       24       79       80       87 </v>
   <v type="int" >        4       24       79       86       87 </v>
   <v type="int" >        4       14       15       25       80 </v>
   <v type="int" >        4       14       24       25       80 </v>
   <v type="int" >        4       14       24       80       87 </v>
   <v type="int" >        4       14       15       80       81 </v>
   <v type="int" >        4       14       80       81       88 </v>
   <v type="int" >        4       14       80       87       88 </v>
   <v type="int" >        4        5        6       15       81 </v>
   <v type="int" >        4        6       14       15       81 </v>
   <v type="int" >        4        6       14       81       88 </v>
   <v type="int" >        4        5        6       11       81 </v>
   <v type="int" >        4        6       11       12       81 </v>
   <v type="int" >        4        6       12       81       88 </v>
   <v type="int" >        4       40       41       43       82 </v>
   <v type="int" >        4       41       43       82       83 </v>
   <v type="int" >        4       43       82       83       89 </v>
   <v type="int" >        4       41       41       42       83 </v>
   <v type="int" >        8       41       41       43       83 </v>
   <v type="int" >        8       41       43       83       89 </v>
   <v type="int" >        4       41       42       83       84 </v>
   <v type="int" >        4       41       83       84       90 </v>
   <v type="int" >        4       41       83       89       90 </v>
   <v type="int" >        4       37       38       42       84 </v>
   <v type="int" >        4       37       41       42       84 </v>
   <v type="int" >        4       37       41       84       90 </v>
   <v type="int" >        4       37       38       84       85 </v>
   <v type="int" >        4       37       84       85       91 </v>
   <v type="int" >        4       37       84       90       91 </v>
   <v type="int" >        4       31       32       38       85 </v>
   <v type="int" >        4       31       37       38       85 </v>
   <v type="int" >        4       31       37       85       91 </v>
   <v type="int" >        4       31       32       85       86 </v>
   <v type="int" >        4       31       85       86       92 </v>
   <v type="int" >        4       31       85       91       92 </v>
   <v type="int" >        4       23       24       32       86 </v>
   <v type="int" >        4       23       31       32       86 </v>
   <v type="int" >        4       23       31       86       92 </v>
   <v type="int" >        4       23       24       86       87 </v>
   <v type="int" >        4       23       86       87       93 </v>
   <v type="int" >        4       23       86       92       93 </v>
   <v type="int" >        4       13       14       24       87 </v>
   <v type="int" >        4       13       23       24       87 </v>
   <v type="int" >        4       13       23       87       93 </v>
   <v type="int" >        4       13       14       87       88 </v>
   <v type="int" >        4       13       87       88       94 </v>
   <v type="int" >        4       13       87       93       94 </v>
   <v type="int" >        4        6        7       14       88 </v>
   <v type="int" >        4        7       13       14       88 </v>
   <v type="int" >        8        7       13       88       94 </v>
   <v type="int" >        4        6        7       12       88 </v>
   <v type="int" >        4        7       12       13       88 </v>
   <v type="int" >        4       40       41       43       89 </v>
   <v type="int" >        4       40       41       89       90 </v>
   <v type="int" >        4       40       89       90       95 </v>
   <v type="int" >        4       36       37       41       90 </v>
   <v type="int" >        4       36       40       41       90 </v>
   <v type="int" >        4       36       40       90       95 </v>
   <v type="int" >        4       36       37       90       91 </v>
   <v type="int" >        4       36       90       91       96 </v>
   <v type="int" >        4       36       90       95       96 </v>
   <v type="int" >        4       30       31       37       91 </v>
   <v type="int" >        4       30       36       37       91 </v>
   <v type="int" >        4       30       36       91       96 </v>
   <v type="int" >        4       30       31       91       92 </v>
   <v type="int" >        4       30       91       92       97 </v>
   <v type="int" >        4       30       91       96       97 </v>
   <v type="int" >        4       22       23       31       92 </v>
   <v type="int" >        4       22       30       31       92 </v>
   <v type="int" >        4       22       30       92       97 </v>
   <v type="int" >        4       22       23       92       93 </v>
   <v type="int" >        4       22       92       93       98 </v>
   <v type="int" >        4       22       92       97       98 </v>
   <v type="int" >        4       12       13       23       93 </v>
   <v type="int" >        4       12       22       23       93 </v>
   <v type="int" >        4       12       22       93       98 </v>
   <v type="int" >        4       12       13       93       94 </v>
   <v type="int" >        4       12       88       93       94 </v>
   <v type="int" >        4       12       88       93       98 </v>
   <v type="int" >        8        6        7       13       94 </v>
   <v type="int" >        4        6       12       13       94 </v>
   <v type="int" >        4        6       12       88       94 </v>
   <v type="int" >        4        6       13       14       94 </v>
   <v type="int" >        4        6       14       88       94 </v>
   <v type="int" >        4       35       36       40       95 </v>
   <v type="int" >        4       35       36       95       96 </v>
   <v type="int" >        4       35       95       96       99 </v>
   <v type="int" >        4       29       30       36       96 </v>
   <v type="int" >        4       29       35       36       96 </v>
   <v type="int" >        4       29       35       96       99 </v>
   <v type="int" >        4       29       30       96       97 </v>
   <v type="int" >        4       29       96       97      100 </v>
   <v type="int" >        4       29       96       99      100 </v>
   <v type="int" >        4       21       22       30       97 </v>
   <v type="int" >        4       21       29       30       97 </v>
   <v type="int" >        4       21       29       97      100 </v>
   <v type="int" >        4       21       22       97       98 </v>
   <v type="int" >        4       21       97       98      101 </v>
   <v type="int" >        4       21       97      100      101 </v>
   <v type="int" >        4       11       12       22       98 </v>
   <v type="int" >        4       11       21       22       98 </v>
   <v type="int" >        4       11       21       98      101 </v>
   <v type="int" >        4       11       12       88       98 </v>
   <v type="int" >        4       11       81       88       98 </v>
   <v type="int" >        4       11       81       98      101 </v>
   <v type="int" >        4        5        6       12       88 </v>
   <v type="int" >        4        5       11       12       88 </v>
   <v type="int" >        4        5       11       81       88 </v>
   <v type="int" >        4        5        6       14       88 </v>
   <v type="int" >        4        5       14       15       88 </v>
   <v type="int" >        4        5       15       81       88 </v>
   <v type="int" >        4       28       29       35       99 </v>
   <v type="int" >        4       28       29       99      100 </v>
   <v type="int" >        4       28       99      100      102 </v>
   <v type="int" >        4       20       21       29      100 </v>
   <v type="int" >        4       20       28       29      100 </v>
   <v type="int" >        4       20       28      100      102 </v>
   <v type="int" >        4       20       21      100      101 </v>
   <v type="int" >        4       20      100      101      103 </v>
   <v type="int" >        4       20      100      102      103 </v>
   <v type="int" >        4       10       11       21      101 </v>
   <v type="int" >        4       10       20       21      101 </v>
   <v type="int" >        4       10       20      101      103 </v>
   <v type="int" >        4       10       11       81      101 </v>
   <v type="int" >        4       10       73       81      101 </v>
   <v type="int" >        4       10       73      101      103 </v>
   <v type="int" >        4        4        5       11       81 </v>
   <v type="int" >        4        4       10       11       81 </v>
   <v type="int" >        4        4       10       73       81 </v>
   <v type="int" >        4        4        5       15       81 </v>
   <v type="int" >        4        4       15       16       81 </v>
   <v type="int" >        4        4       16       73       81 </v>
   <v type="int" >        4       19       20       28      102 </v>
   <v type="int" >        4       19       20      102      103 </v>
   <v type="int" >        4       19      102      103      104 </v>
   <v type="int" >        4        9       10       20      103 </v>
   <v type="int" >        4        9       19       20      103 </v>
   <v type="int" >        4        9       19      103      104 </v>
   <v type="int" >        4        9       10       73      103 </v>
   <v type="int" >        4        9       64       73      103 </v>
   <v type="int" >        4        9       64      103      104 </v>
   <v type="int" >        4        3        4       10       73 </v>
   <v type="int" >        4        3        9       10       73 </v>
   <v type="int" >        4        3        9       64       73 </v>
   <v type="int" >        4        3        4       16       73 </v>
   <v type="int" >        4        3       16       17       73 </v>
   <v type="int" >        4        3       17       64       73 </v>
   <v type="int" >        4        8        9       19      104 </v>
   <v type="int" >        4        8        9       64      104 </v>
   <v type="int" >        4        8       54       64      104 </v>
   <v type="int" >        4        2        3        9       64 </v>
   <v type="int" >        4        2        8        9       64 </v>
   <v type="int" >        4        2        8       54       64 </v>
   <v type="int" >        4        2        3       17       64 </v>
   <v type="int" >        4        2       17       18       64 </v>
   <v type="int" >        4        2       18       54       64 </v>
   <v type="int" >        4        1        2        8       54 </v>
   <v type="int" >        8        1        2       18       54 </v>
   <v type="int" >        4        2        3        8       44 </v>
   <v type="int" >        4        3        8        9       44 </v>
   <v type="int" >        4        3        9       44       45 </v>
   <v type="int" >        4        9       44       45       45 </v>
   <v type="int" >        4        9        9       19       45 </v>
   <v type="int" >        4        9       19       45       55 </v>
   <v type="int" >        4        9       45       45       55 </v>
   <v type="int" >        4        9       10       19       46 </v>
   <v type="int" >        4        9       19       45       46 </v>
   <v type="int" >        4       19       45       46       55 </v>
   <v type="int" >        4       10       19       20       46 </v>
   <v type="int" >        4       19       20       46       56 </v>
   <v type="int" >        4       19       46       55       56 </v>
   <v type="int" >        4       10       11       20       47 </v>
   <v type="int" >        4       10       20       46       47 </v>
   <v type="int" >        4       20       46       47       56 </v>
   <v type="int" >        4       11       20       21       47 </v>
   <v type="int" >        4       20       21       47       57 </v>
   <v type="int" >        4       20       47       56       57 </v>
   <v type="int" >        4       11       12       21       48 </v>
   <v type="int" >        4       11       21       47       48 </v>
   <v type="int" >        4       21       47       48       57 </v>
   <v type="int" >        4       12       21       22       48 </v>
   <v type="int" >        4       21       22       48       58 </v>
   <v type="int" >        4       21       48       57       58 </v>
   <v type="int" >        4       12       13       22       49 </v>
   <v type="int" >        4       12       22       48       49 </v>
   <v type="int" >        4       22       48       49       58 </v>
   <v type="int" >        4       13       22       23       49 </v>
   <v type="int" >        4       22       23       49       59 </v>
   <v type="int" >        4       22       49       58       59 </v>
   <v type="int" >        4       13       14       23       50 </v>
   <v type="int" >        4       13       23       49       50 </v>
   <v type="int" >        4       23       49       50       59 </v>
   <v type="int" >        4       14       23       24       50 </v>
   <v type="int" >        4       23       24       50       60 </v>
   <v type="int" >        4       23       50       59       60 </v>
   <v type="int" >        4       14       15       24       51 </v>
   <v type="int" >        4       14       24       50       51 </v>
   <v type="int" >        4       24       50       51       60 </v>
   <v type="int" >        4       15       24       25       51 </v>
   <v type="int" >        4       24       25       51       61 </v>
   <v type="int" >        4       24       51       60       61 </v>
   <v type="int" >        4       15       16       25       52 </v>
   <v type="int" >        4       15       25       51       52 </v>
   <v type="int" >        4       25       51       52       61 </v>
   <v type="int" >        4       16       25       26       52 </v>
   <v type="int" >        4       25       26       52       62 </v>
   <v type="int" >        4       25       52       61       62 </v>
   <v type="int" >        4       16       17       26       53 </v>
   <v type="int" >        4       16       26       52       53 </v>
   <v type="int" >        4       26       52       53       62 </v>
   <v type="int" >        4       17       26       27       53 </v>
   <v type="int" >        4       26       27       53       63 </v>
   <v type="int" >        4       26       53       62       63 </v>
   <v type="int" >        8       17       18       27       54 </v>
   <v type="int" >        4       17       27       53       54 </v>
   <v type="int" >        4       27       53       54       63 </v>
   <v type="int" >        4       17       27       54       64 </v>
   <v type="int" >        4       27       54       63       64 </v>
   <v type="int" >        4        2        8       17       18 </v>
   <v type="int" >        4        8       17       18       54 </v>
   <v type="int" >        4        8       17       54       64 </v>
   <v type="int" >        4        2        3        8       17 </v>
   <v type="int" >        4        3        8        9       17 </v>
   <v type="int" >        4        8        9       17       64 </v>
   <v type="int" >        4       44       45       45       55 </v>
   <v type="int" >        4       45       45       55       55 </v>
   <v type="int" >        4       45       55       55      105 </v>
   <v type="int" >        4       45       46       55       56 </v>
   <v type="int" >        4       45       55       55       56 </v>
   <v type="int" >        4       55       55       56      105 </v>
   <v type="int" >        4       46       55       56       56 </v>
   <v type="int" >        8       55       56       56      106 </v>
   <v type="int" >        8       55       56      105      106 </v>
   <v type="int" >        4       46       47       56       57 </v>
   <v type="int" >        4       46       56       56       57 </v>
   <v type="int" >        4       56       56       57      106 </v>
   <v type="int" >        4       47       56       57       57 </v>
   <v type="int" >        4       56       57       57      107 </v>
   <v type="int" >        4       56       57      106      107 </v>
   <v type="int" >        4       47       48       57       58 </v>
   <v type="int" >        4       47       57       57       58 </v>
   <v type="int" >        4       57       57       58      107 </v>
   <v type="int" >        4       48       57       58       58 </v>
   <v type="int" >        4       57       58       58      108 </v>
   <v type="int" >        4       57       58      107      108 </v>
   <v type="int" >        4       48       49       58       59 </v>
   <v type="int" >        4       48       58       58       59 </v>
   <v type="int" >        4       58       58       59      108 </v>
   <v type="int" >        4       49       58       59       59 </v>
   <v type="int" >        4       58       59       59      109 </v>
   <v type="int" >        4       58       59      108      109 </v>
   <v type="int" >        4       49       50       59       60 </v>
   <v type="int" >        4       49       59       59       60 </v>
   <v type="int" >        4       59       59       60      109 </v>
   <v type="int" >        4       50       59       60       60 </v>
   <v type="int" >        4       59       60       60      110 </v>
   <v type="int" >        4       59       60      109      110 </v>
   <v type="int" >        4       50       51       60       61 </v>
   <v type="int" >        4       50       60       60       61 </v>
   <v type="int" >        4       60       60       61      110 </v>
   <v type="int" >        4       51       60       61       61 </v>
   <v type="int" >        4       60       61       61      111 </v>
   <v type="int" >        4       60       61      110      111 </v>
   <v type="int" >        4       51       52       61       62 </v>
   <v type="int" >        4       51       61       61       62 </v>
   <v type="int" >        4       61       61       62      111 </v>
   <v type="int" >        4       52       61       62       62 </v>
   <v type="int" >        4       61       62       62      112 </v>
   <v type="int" >        4       61       62      111      112 </v>
   <v type="int" >        4       52       53       62       63 </v>
   <v type="int" >        4       52       62       62       63 </v>
   <v type="int" >        4       62       62       63      112 </v>
   <v type="int" >        4       53       62       63       63 </v>
   <v type="int" >        4       62       63       63      113 </v>
   <v type="int" >        4       62       63      112      113 </v>
   <v type="int" >        4       53       54       63       64 </v>
   <v type="int" >        4       53       63       63       64 </v>
   <v type="int" >        4       63       63       64      113 </v>
   <v type="int" >        4       54       63       64       64 </v>
   <v type="int" >        4       63       64       64      104 </v>
   <v type="int" >        4       63       64      104      113 </v>
   <v type="int" >        4        8        9       54       64 </v>
   <v type="int" >        4        9       54       64       64 </v>
   <v type="int" >        4        9       64       64      104 </v>
   <v type="int" >        4        8        9        9       64 </v>
   <v type="int" >        4        9        9       19       64 </v>
   <v type="int" >        4        9       19       64      104 </v>
   <v type="int" >        4       55       56       65      105 </v>
   <v type="int" >        4       56       65      105      106 </v>
   <v type="int" >        4       65      105      106      114 </v>
   <v type="int" >        4       56       57       66      106 </v>
   <v type="int" >        4       56       65       66      106 </v>
   <v type="int" >        4       65       66      106      114 </v>
   <v type="int" >        4       57       66      106      107 </v>
   <v type="int" >        4       66      106      107      115 </v>
   <v type="int" >        4       66      106      114      115 </v>
   <v type="int" >        4       57       58       67      107 </v>
   <v type="int" >        4       57       66       67      107 </v>
   <v type="int" >        4       66       67      107      115 </v>
   <v type="int" >        4       58       67      107      108 </v>
   <v type="int" >        4       67      107      108      116 </v>
   <v type="int" >        4       67      107      115      116 </v>
   <v type="int" >        4       58       59       68      108 </v>
   <v type="int" >        4       58       67       68      108 </v>
   <v type="int" >        4       67       68      108      116 </v>
   <v type="int" >        4       59       68      108      109 </v>
   <v type="int" >        4       68      108      109      117 </v>
   <v type="int" >        4       68      108      116      117 </v>
   <v type="int" >        4       59       60       69      109 </v>
   <v type="int" >        4       59       68       69      109 </v>
   <v type="int" >        4       68       69      109      117 </v>
   <v type="int" >        4       60       69      109      110 </v>
   <v type="int" >        4       69      109      110      118 </v>
   <v type="int" >        4       69      109      117      118 </v>
   <v type="int" >        4       60       61       70      110 </v>
   <v type="int" >        4       60       69       70      110 </v>
   <v type="int" >        4       69       70      110      118 </v>
   <v type="int" >        4       61       70      110      111 </v>
   <v type="int" >        4       70      110      111      119 </v>
   <v type="int" >        4       70      110      118      119 </v>
   <v type="int" >        4       61       62       71      111 </v>
   <v type="int" >        4       61       70       71      111 </v>
   <v type="int" >        4       70       71      111      119 </v>
   <v type="int" >        4       62       71      111      112 </v>
   <v type="int" >        4       71      111      112      120 </v>
   <v type="int" >        4       71      111      119      120 </v>
   <v type="int" >        4       62       63       72      112 </v>
   <v type="int" >        4       62       71       72      112 </v>
   <v type="int" >        4       71       72      112      120 </v>
   <v type="int" >        4       63       72      112      113 </v>
   <v type="int" >        4       72      112      113      121 </v>
   <v type="int" >        4       72      112      120      121 </v>
   <v type="int" >        4       63       64       73      113 </v>
   <v type="int" >        4       63       72       73      113 </v>
   <v type="int" >        4       72       73      113      121 </v>
   <v type="int" >        4       64       73      104      113 </v>
   <v type="int" >        4       73      103      104      113 </v>
   <v type="int" >        4       73      103      113      121 </v>
   <v type="int" >        4        9       10       64      104 </v>
   <v type="int" >        4       10       64       73      104 </v>
   <v type="int" >        4       10       73      103      104 </v>
   <v type="int" >        4        9       10       19      104 </v>
   <v type="int" >        4       10       19       20      104 </v>
   <v type="int" >        4       10       20      103      104 </v>
   <v type="int" >        4       65       66       74      114 </v>
   <v type="int" >        4       66       74      114      115 </v>
   <v type="int" >        4       74      114      115      122 </v>
   <v type="int" >        4       66       67       75      115 </v>
   <v type="int" >        4       66       74       75      115 </v>
   <v type="int" >        4       74       75      115      122 </v>
   <v type="int" >        4       67       75      115      116 </v>
   <v type="int" >        4       75      115      116      123 </v>
   <v type="int" >        4       75      115      122      123 </v>
   <v type="int" >        4       67       68       76      116 </v>
   <v type="int" >        4       67       75       76      116 </v>
   <v type="int" >        4       75       76      116      123 </v>
   <v type="int" >        4       68       76      116      117 </v>
   <v type="int" >        4       76      116      117      124 </v>
   <v type="int" >        4       76      116      123      124 </v>
   <v type="int" >        4       68       69       77      117 </v>
   <v type="int" >        4       68       76       77      117 </v>
   <v type="int" >        4       76       77      117      124 </v>
   <v type="int" >        4       69       77      117      118 </v>
   <v type="int" >        4       77      117      118      125 </v>
   <v type="int" >        4       77      117      124      125 </v>
   <v type="int" >        4       69       70       78      118 </v>
   <v type="int" >        4       69       77       78      118 </v>
   <v type="int" >        4       77       78      118      125 </v>
   <v type="int" >        4       70       78      118      119 </v>
   <v type="int" >        4       78      118      119      126 </v>
   <v type="int" >        4       78      118      125      126 </v>
   <v type="int" >        4       70       71       79      119 </v>
   <v type="int" >        4       70       78       79      119 </v>
   <v type="int" >        4       78       79      119      126 </v>
   <v type="int" >        4       71       79      119      120 </v>
   <v type="int" >        4       79      119      120      127 </v>
   <v type="int" >        4       79      119      126      127 </v>
   <v type="int" >        4       71       72       80      120 </v>
   <v type="int" >        4       71       79       80      120 </v>
   <v type="int" >        4       79       80      120      127 </v>
   <v type="int" >        4       72       80      120      121 </v>
   <v type="int" >        4       80      120      121      128 </v>
   <v type="int" >        4       80      120      127      128 </v>
   <v type="int" >        4       72       73       81      121 </v>
   <v type="int" >        4       72       80       81      121 </v>
   <v type="int" >        4       80       81      121      128 </v>
   <v type="int" >        4       73       81      103      121 </v>
   <v type="int" >        4       81      101      103      121 </v>
   <v type="int" >        4       81      101      121      128 </v>
   <v type="int" >        4       10       11       73      103 </v>
   <v type="int" >        4       11       73       81      103 </v>
   <v type="int" >        4       11       81      101      103 </v>
   <v type="int" >        4       10       11       20      103 </v>
   <v type="int" >        4       11       20       21      103 </v>
   <v type="int" >        4       11       21      101      103 </v>
   <v type="int" >        4       74       75       82      122 </v>
   <v type="int" >        4       75       82      122      123 </v>
   <v type="int" >        4       82      122      123      129 </v>
   <v type="int" >        4       75       76       83      123 </v>
   <v type="int" >        4       75       82       83      123 </v>
   <v type="int" >        4       82       83      123      129 </v>
   <v type="int" >        4       76       83      123      124 </v>
   <v type="int" >        4       83      123      124      130 </v>
   <v type="int" >        4       83      123      129      130 </v>
   <v type="int" >        4       76       77       84      124 </v>
   <v type="int" >        4       76       83       84      124 </v>
   <v type="int" >        4       83       84      124      130 </v>
   <v type="int" >        4       77       84      124      125 </v>
   <v type="int" >        4       84      124      125      131 </v>
   <v type="int" >        4       84      124      130      131 </v>
   <v type="int" >        4       77       78       85      125 </v>
   <v type="int" >        4       77       84       85      125 </v>
   <v type="int" >        4       84       85      125      131 </v>
   <v type="int" >        4       78       85      125      126 </v>
   <v type="int" >        4       85      125      126      132 </v>
   <v type="int" >        4       85      125      131      132 </v>
   <v type="int" >        4       78       79       86      126 </v>
   <v type="int" >        4       78       85       86      126 </v>
   <v type="int" >        4       85       86      126      132 </v>
   <v type="int" >        4       79       86      126      127 </v>
   <v type="int" >        4       86      126      127      133 </v>
   <v type="int" >        4       86      126      132      133 </v>
   <v type="int" >        4       79       80       87      127 </v>
   <v type="int" >        4       79       86       87      127 </v>
   <v type="int" >        4       86       87      127      133 </v>
   <v type="int" >        4       80       87      127      128 </v>
   <v type="int" >        4       87      127      128      134 </v>
   <v type="int" >        4       87      127      133      134 </v>
   <v type="int" >        4       80       81       88      128 </v>
   <v type="int" >        4       80       87       88      128 </v>
   <v type="int" >        4       87       88      128      134 </v>
   <v type="int" >        4       81       88      101      128 </v>
   <v type="int" >        4       88       98      101      128 </v>
   <v type="int" >        4       88       98      128      134 </v>
   <v type="int" >        4       11       12       81      101 </v>
   <v type="int" >        4       12       81       88      101 </v>
   <v type="int" >        4       12       88       98      101 </v>
   <v type="int" >        4       11       12       21      101 </v>
   <v type="int" >        4       12       21       22      101 </v>
   <v type="int" >        4       12       22       98      101 </v>
   <v type="int" >        4       82       83       89      129 </v>
   <v type="int" >        4       83       89      129      130 </v>
   <v type="int" >        4       89      129      130      135 </v>
   <v type="int" >        4       83       84       90      130 </v>
   <v type="int" >        4       83       89       90      130 </v>
   <v type="int" >        4       89       90      130      135 </v>
   <v type="int" >        4       84       90      130      131 </v>
   <v type="int" >        4       90      130      131      136 </v>
   <v type="int" >        4       90      130      135      136 </v>
   <v type="int" >        4       84       85       91      131 </v>
   <v type="int" >        4       84       90       91      131 </v>
   <v type="int" >        4       90       91      131      136 </v>
   <v type="int" >        4       85       91      131      132 </v>
   <v type="int" >        4       91      131      132      137 </v>
   <v type="int" >        4       91      131      136      137 </v>
   <v type="int" >        4       85       86       92      132 </v>
   <v type="int" >        4       85       91       92      132 </v>
   <v type="int" >        4       91       92      132      137 </v>
   <v type="int" >        4       86       92      132      133 </v>
   <v type="int" >        4       92      132      133      138 </v>
   <v type="int" >        4       92      132      137      138 </v>
   <v type="int" >        4       86       87       93      133 </v>
   <v type="int" >        4       86       92       93      133 </v>
   <v type="int" >        4       92       93      133      138 </v>
   <v type="int" >        4       87       93      133      134 </v>
   <v type="int" >        4       93      133      134      139 </v>
   <v type="int" >        4       93      133      138      139 </v>
   <v type="int" >        4       87       88       94      134 </v>
   <v type="int" >        4       87       93       94      134 </v>
   <v type="int" >        8       93       94      134      139 </v>
   <v type="int" >        4       88       94       98      134 </v>
   <v type="int" >        4       93       94       98      134 </v>
   <v type="int" >        4       12       13       88       98 </v>
   <v type="int" >        4       13       88       94       98 </v>
   <v type="int" >        4       13       93       94       98 </v>
   <v type="int" >        4       12       13       22       98 </v>
   <v type="int" >        4       13       22       23       98 </v>
   <v type="int" >        4       13       23       93       98 </v>
   <v type="int" >        4       89       90       95      135 </v>
   <v type="int" >        4       90       95      135      136 </v>
   <v type="int" >        4       95      135      136      140 </v>
   <v type="int" >        4       90       91       96      136 </v>
   <v type="int" >        4       90       95       96      136 </v>
   <v type="int" >        4       95       96      136      140 </v>
   <v type="int" >        4       91       96      136      137 </v>
   <v type="int" >        4       96      136      137      141 </v>
   <v type="int" >        4       96      136      140      141 </v>
   <v type="int" >        4       91       92       97      137 </v>
   <v type="int" >        4       91       96       97      137 </v>
   <v type="int" >        4       96       97      137      141 </v>
   <v type="int" >        4       92       97      137      138 </v>
   <v type="int" >        4       97      137      138      142 </v>
   <v type="int" >        4       97      137      141      142 </v>
   <v type="int" >        4       92       93       98      138 </v>
   <v type="int" >        4       92       97       98      138 </v>
   <v type="int" >        4       97       98      138      142 </v>
   <v type="int" >        4       93       98      138      139 </v>
   <v type="int" >        4       98      134      138      139 </v>
   <v type="int" >        4       98      134      138      142 </v>
   <v type="int" >        8       88       93       94      139 </v>
   <v type="int" >        4       88       93       98      139 </v>
   <v type="int" >        4       88       98      134      139 </v>
   <v type="int" >        4       87       88       93      139 </v>
   <v type="int" >        4       87       88      134      139 </v>
   <v type="int" >        4       13       14       93       94 </v>
   <v type="int" >        4       14       88       93       94 </v>
   <v type="int" >        4       14       87       88       93 </v>
   <v type="int" >        4       13       14       23       93 </v>
   <v type="int" >        4       14       23       24       93 </v>
   <v type="int" >        4       14       24       87       93 </v>
   <v type="int" >        4       95       96       99      140 </v>
   <v type="int" >        4       96       99      140      141 </v>
   <v type="int" >        4       99      140      141      143 </v>
   <v type="int" >        4       96       97      100      141 </v>
   <v type="int" >        4       96       99      100      141 </v>
   <v type="int" >        4       99      100      141      143 </v>
   <v type="int" >        4       97      100      141      142 </v>
   <v type="int" >        4      100      141      142      144 </v>
   <v type="int" >        4      100      141      143      144 </v>
   <v type="int" >        4       97       98      101      142 </v>
   <v type="int" >        4       97      100      101      142 </v>
   <v type="int" >        4      100      101      142      144 </v>
   <v type="int" >        4       98      101      134      142 </v>
   <v type="int" >        4      101      128      134      142 </v>
   <v type="int" >        4      101      128      142      144 </v>
   <v type="int" >        4       81       88       98      134 </v>
   <v type="int" >        4       81       98      101      134 </v>
   <v type="int" >        4       81      101      128      134 </v>
   <v type="int" >        4       81       87       88      134 </v>
   <v type="int" >        4       80       81       87      134 </v>
   <v type="int" >        4       80       81      128      134 </v>
   <v type="int" >        4       14       15       87       88 </v>
   <v type="int" >        4       15       81       87       88 </v>
   <v type="int" >        4       15       80       81       87 </v>
   <v type="int" >        4       14       15       24       87 </v>
   <v type="int" >        4       15       24       25       87 </v>
   <v type="int" >        4       15       25       80       87 </v>
   <v type="int" >        4       99      100      102      143 </v>
   <v type="int" >        4      100      102      143      144 </v>
   <v type="int" >        4      102      143      144      145 </v>
   <v type="int" >        4      100      101      103      144 </v>
   <v type="int" >        4      100      102      103      144 </v>
   <v type="int" >        4      102      103      144      145 </v>
   <v type="int" >        4      101      103      128      144 </v>
   <v type="int" >        4      103      121      128      144 </v>
   <v type="int" >        4      103      121      144      145 </v>
   <v type="int" >        4       73       81      101      128 </v>
   <v type="int" >        4       73      101      103      128 </v>
   <v type="int" >        4       73      103      121      128 </v>
   <v type="int" >        4       73       80       81      128 </v>
   <v type="int" >        4       72       73       80      128 </v>
   <v type="int" >        4       72       73      121      128 </v>
   <v type="int" >        4       15       16       80       81 </v>
   <v type="int" >        4       16       73       80       81 </v>
   <v type="int" >        4       16       72       73       80 </v>
   <v type="int" >        4       15       16       25       80 </v>
   <v type="int" >        4       16       25       26       80 </v>
   <v type="int" >        4       16       26       72       80 </v>
   <v type="int" >        4      102      103      104      145 </v>
   <v type="int" >        4      103      104      121      145 </v>
   <v type="int" >        4      104      113      121      145 </v>
   <v type="int" >        4       64       73      103      121 </v>
   <v type="int" >        4       64      103      104      121 </v>
   <v type="int" >        4       64      104      113      121 </v>
   <v type="int" >        4       64       72       73      121 </v>
   <v type="int" >        4       63       64       72      121 </v>
   <v type="int" >        4       63       64      113      121 </v>
   <v type="int" >        4       16       17       72       73 </v>
   <v type="int" >        4       17       64       72       73 </v>
   <v type="int" >        4       17       63       64       72 </v>
   <v type="int" >        4       16       17       26       72 </v>
   <v type="int" >        4       17       26       27       72 </v>
   <v type="int" >        4       17       27       63       72 </v>
   <v type="int" >        4       54       64      104      113 </v>
   <v type="int" >        4       54       63       64      113 </v>
   <v type="int" >        4       53       54       63      113 </v>
   <v type="int" >        4       17       18       63       64 </v>
   <v type="int" >        4       18       54       63       64 </v>
   <v type="int" >        4       18       53       54       63 </v>
   <v type="int" >        8       17       18       27       63 </v>
   <v type="int" >        4       17       18       53       63 </v>
   <v type="int" >        4        2       18       53       54 </v>
   <v type="int" >        4        2       17       18       53 </v>
   <v type="int" >        4        2        3       17       53 </v>
   <v type="int" >        4        3        4        9       45 </v>
   <v type="int" >        4        4        9       10       45 </v>
   <v type="int" >        4        4       10       45       46 </v>
   <v type="int" >        4        9       10       19       55 </v>
   <v type="int" >        4        9       10       45       55 </v>
   <v type="int" >        4       10       45       46       55 </v>
   <v type="int" >        4       10       19       20       55 </v>
   <v type="int" >        4       10       20       55       56 </v>
   <v type="int" >        4       10       46       55       56 </v>
   <v type="int" >        4       19       20       20       56 </v>
   <v type="int" >        4       19       20       55       56 </v>
   <v type="int" >        4       20       55       56       56 </v>
   <v type="int" >        4       20       20       28       56 </v>
   <v type="int" >        4       20       28       56       65 </v>
   <v type="int" >        4       20       56       56       65 </v>
   <v type="int" >        4       20       21       28       57 </v>
   <v type="int" >        4       20       28       56       57 </v>
   <v type="int" >        4       28       56       57       65 </v>
   <v type="int" >        4       21       28       29       57 </v>
   <v type="int" >        4       28       29       57       66 </v>
   <v type="int" >        4       28       57       65       66 </v>
[...]
       <r>   -6.2961    1.0000 </r>
       <r>   -5.5472    1.0000 </r>
       <r>   -3.3319    1.0000 </r>
       <r>   -3.3319    1.0000 </r>
       <r>   -3.2850    1.0000 </r>
       <r>   -2.2959    1.0000 </r>
       <r>    5.7351    1.0000 </r>
       <r>    6.0121    1.0000 </r>
       <r>    6.2358    1.0000 </r>
       <r>    6.2358    1.0000 </r>
       <r>    6.5657    1.0000 </r>
       <r>    6.5657    1.0000 </r>
       <r>    6.9270    1.0000 </r>
       <r>    7.0829    1.0000 </r>
       <r>   17.0397    0.0000 </r>
       <r>   17.4405    0.0000 </r>
       <r>   17.4405    0.0000 </r>
       <r>   17.4526    0.0000 </r>
       <r>   17.7725    0.0000 </r>
       <r>   17.9217    0.0000 </r>
       <r>   18.2478    0.0000 </r>
       <r>   18.4451    0.0000 </r>
      </set>
      <set comment="kpoint 187">
       <r>   -6.4312    1.0000 </r>
       <r>   -6.4312    1.0000 </r>
       <r>   -6.4059    1.0000 </r>
       <r>   -5.6571    1.0000 </r>
       <r>   -3.4411    1.0000 </r>
       <r>   -3.4149    1.0000 </r>
       <r>   -3.4149    1.0000 </r>
       <r>   -3.3882    1.0000 </r>
       <r>    6.1225    1.0000 </r>
       <r>    6.3373    1.0000 </r>
       <r>    6.6064    1.0000 </r>
       <r>    6.6539    1.0000 </r>
       <r>    6.6539    1.0000 </r>
       <r>    6.8755    1.0000 </r>
       <r>    6.8755    1.0000 </r>
       <r>    6.9473    1.0000 </r>
       <r>   17.1999    0.0000 </r>
       <r>   17.5417    0.0000 </r>
       <r>   17.5418    0.0000 </r>
       <r>   17.5878    0.0000 </r>
       <r>   17.6505    0.0000 </r>
       <r>   17.7132    0.0000 </r>
       <r>   17.7853    0.0000 </r>
       <r>   17.9530    0.0000 </r>
      </set>
      <set comment="kpoint 188">
       <r>   -6.8113    1.0000 </r>
       <r>   -6.8113    1.0000 </r>
       <r>   -6.1848    1.0000 </r>
       <r>   -5.3069    1.0000 </r>
       <r>   -3.6298    1.0000 </r>
       <r>   -3.5537    1.0000 </r>
       <r>   -2.9383    1.0000 </r>
       <r>   -2.9383    1.0000 </r>
       <r>    5.8065    1.0000 </r>
       <r>    6.1394    1.0000 </r>
       <r>    6.4410    1.0000 </r>
       <r>    6.5573    1.0000 </r>
       <r>    6.7225    1.0000 </r>
       <r>    6.7225    1.0000 </r>
       <r>    6.9124    1.0000 </r>
       <r>    6.9124    1.0000 </r>
       <r>   17.3521    0.0000 </r>
       <r>   17.4402    0.0000 </r>
       <r>   17.4402    0.0000 </r>
       <r>   17.4890    0.0000 </r>
       <r>   17.4985    0.0000 </r>
       <r>   17.9926    0.0000 </r>
       <r>   17.9926    0.0000 </r>
       <r>   18.1496    0.0000 </r>
      </set>
      <set comment="kpoint 189">
       <r>   -6.2931    1.0000 </r>
       <r>   -6.2931    1.0000 </r>
       <r>   -6.2931    1.0000 </r>
       <r>   -5.4145    1.0000 </r>
       <r>   -3.7366    1.0000 </r>
       <r>   -3.6654    1.0000 </r>
       <r>   -3.6654    1.0000 </r>
       <r>   -3.6654    1.0000 </r>
       <r>    6.3390    1.0000 </r>
       <r>    6.3390    1.0000 </r>
       <r>    6.8049    1.0000 </r>
       <r>    6.8049    1.0000 </r>
       <r>    6.8049    1.0000 </r>
       <r>    6.9752    1.0000 </r>
       <r>    6.9752    1.0000 </r>
       <r>    6.9752    1.0000 </r>
       <r>   17.0869    0.0000 </r>
       <r>   17.4866    0.0000 </r>
       <r>   17.4866    0.0000 </r>
       <r>   17.4866    0.0000 </r>
       <r>   17.6291    0.0000 </r>
       <r>   17.6292    0.0000 </r>
       <r>   17.8115    0.0000 </r>
       <r>   17.8115    0.0000 </r>
      </set>
     </set>
    </set>
   </array>
  </eigenvalues>
  <separator name="orbital magnetization" >
   <v name="MAGDIPOLOUT">      0.00000000      0.00000000      0.00000000</v>
  </separator>
  <dos>
   <i name="efermi">      9.62420649 </i>
   <total>
    <array>
     <dimension dim="1">gridpoints</dimension>
     <dimension dim="2">spin</dimension>
     <field>energy</field>
     <field>total</field>
     <field>integrated</field>
     <set>
      <set comment="spin 1">
       <r>   -13.4212     0.0000     0.0000 </r>
       <r>   -13.2987     0.0000     0.0000 </r>
       <r>   -13.1761     0.0000     0.0000 </r>
       <r>   -13.0536     0.0000     0.0000 </r>
       <r>   -12.9311     0.0000     0.0000 </r>
       <r>   -12.8085     0.0000     0.0000 </r>
       <r>   -12.6860     0.0000     0.0000 </r>
       <r>   -12.5634     0.0000     0.0000 </r>
       <r>   -12.4409     0.0000     0.0000 </r>
       <r>   -12.3184     0.0000     0.0000 </r>
       <r>   -12.1958     0.0000     0.0000 </r>
       <r>   -12.0733     0.0000     0.0000 </r>
       <r>   -11.9507     0.0000     0.0000 </r>
       <r>   -11.8282     0.0000     0.0000 </r>
       <r>   -11.7056     0.0368     0.0005 </r>
       <r>   -11.5831     0.1572     0.0154 </r>
       <r>   -11.4606     0.2451     0.0402 </r>
       <r>   -11.3380     0.2783     0.0719 </r>
       <r>   -11.2155     0.3274     0.1090 </r>
       <r>   -11.0929     0.3658     0.1519 </r>
       <r>   -10.9704     0.3964     0.1986 </r>
       <r>   -10.8479     0.4296     0.2491 </r>
       <r>   -10.7253     0.4686     0.3042 </r>
       <r>   -10.6028     0.4905     0.3629 </r>
       <r>   -10.4802     0.5147     0.4245 </r>
       <r>   -10.3577     0.5421     0.4892 </r>
       <r>   -10.2351     0.5712     0.5575 </r>
       <r>   -10.1126     0.5970     0.6292 </r>
       <r>    -9.9901     0.6189     0.7036 </r>
       <r>    -9.8675     0.6431     0.7809 </r>
       <r>    -9.7450     0.6711     0.8614 </r>
       <r>    -9.6224     0.7018     0.9455 </r>
       <r>    -9.4999     0.7354     1.0335 </r>
       <r>    -9.3774     0.7364     1.1233 </r>
       <r>    -9.2548     0.7422     1.2139 </r>
       <r>    -9.1323     0.7626     1.3061 </r>
       <r>    -9.0097     0.7797     1.4006 </r>
       <r>    -8.8872     0.8041     1.4976 </r>
       <r>    -8.7647     0.8284     1.5977 </r>
       <r>    -8.6421     0.8480     1.7005 </r>
       <r>    -8.5196     0.8688     1.8055 </r>
       <r>    -8.3970     0.8918     1.9134 </r>
       <r>    -8.2745     0.9124     2.0240 </r>
       <r>    -8.1519     0.9317     2.1370 </r>
       <r>    -8.0294     0.9437     2.2519 </r>
       <r>    -7.9069     0.9612     2.3686 </r>
       <r>    -7.7843     1.0727     2.4924 </r>
       <r>    -7.6618     1.1079     2.6267 </r>
       <r>    -7.5392     1.1193     2.7632 </r>
       <r>    -7.4167     1.0852     2.8989 </r>
       <r>    -7.2942     1.0675     3.0297 </r>
       <r>    -7.1716     1.0657     3.1601 </r>
       <r>    -7.0491     1.1029     3.2930 </r>
       <r>    -6.9265     1.1378     3.4300 </r>
       <r>    -6.8040     1.2058     3.5733 </r>
       <r>    -6.6815     1.1873     3.7195 </r>
       <r>    -6.5589     1.2778     3.8690 </r>
       <r>    -6.4364     1.3032     4.0267 </r>
       <r>    -6.3138     1.4290     4.1934 </r>
       <r>    -6.1913     1.4640     4.3726 </r>
       <r>    -6.0687     1.5569     4.5578 </r>
       <r>    -5.9462     1.4762     4.7483 </r>
       <r>    -5.8237     1.4176     4.9249 </r>
       <r>    -5.7011     1.4006     5.0967 </r>
       <r>    -5.5786     1.4566     5.2707 </r>
       <r>    -5.4560     1.4462     5.4506 </r>
       <r>    -5.3335     1.4075     5.6256 </r>
       <r>    -5.2110     1.3352     5.7934 </r>
       <r>    -5.0884     1.3137     5.9545 </r>
       <r>    -4.9659     1.2565     6.1109 </r>
       <r>    -4.8433     1.2425     6.2646 </r>
       <r>    -4.7208     1.1763     6.4140 </r>
       <r>    -4.5982     1.1325     6.5557 </r>
       <r>    -4.4757     1.0729     6.6905 </r>
       <r>    -4.3532     1.1479     6.8313 </r>
       <r>    -4.2306     1.0525     6.9641 </r>
       <r>    -4.1081     1.0612     7.0934 </r>
       <r>    -3.9855     1.0189     7.2201 </r>
       <r>    -3.8630     0.9706     7.3432 </r>
       <r>    -3.7405     0.8947     7.4573 </r>
       <r>    -3.6179     0.8600     7.5641 </r>
       <r>    -3.4954     1.0112     7.6755 </r>
       <r>    -3.3728     0.9968     7.7986 </r>
       <r>    -3.2503     1.0789     7.9326 </r>
       <r>    -3.1278     0.9169     8.0540 </r>
       <r>    -3.0052     0.7951     8.1568 </r>
       <r>    -2.8827     0.9615     8.2615 </r>
       <r>    -2.7601     0.8073     8.3670 </r>
       <r>    -2.6376     0.8938     8.4701 </r>
       <r>    -2.5150     1.0402     8.5884 </r>
       <r>    -2.3925     1.2301     8.7261 </r>
       <r>    -2.2700     1.5037     8.8932 </r>
       <r>    -2.1474     1.9584     9.1066 </r>
       <r>    -2.0249     2.1287     9.3609 </r>
       <r>    -1.9023     2.2788     9.6277 </r>
       <r>    -1.7798     2.8350     9.9387 </r>
       <r>    -1.6573     2.4637    10.2624 </r>
       <r>    -1.5347     2.2504    10.5558 </r>
       <r>    -1.4122     1.9546    10.8100 </r>
       <r>    -1.2896     1.7044    11.0389 </r>
       <r>    -1.1671     1.5859    11.2400 </r>
       <r>    -1.0445     1.5009    11.4287 </r>
       <r>    -0.9220     1.4424    11.6089 </r>
       <r>    -0.7995     1.3869    11.7823 </r>
       <r>    -0.6769     1.3361    11.9494 </r>
       <r>    -0.5544     1.2845    12.1066 </r>
       <r>    -0.4318     1.2218    12.2598 </r>
       <r>    -0.3093     1.2055    12.4082 </r>
       <r>    -0.1868     1.1288    12.5566 </r>
       <r>    -0.0642     1.0977    12.6932 </r>
       <r>     0.0583     1.0537    12.8252 </r>
       <r>     0.1809     0.9956    12.9505 </r>
       <r>     0.3034     1.0360    13.0747 </r>
       <r>     0.4259     1.2161    13.2102 </r>
       <r>     0.5485     1.5161    13.3770 </r>
       <r>     0.6710     1.7805    13.5794 </r>
       <r>     0.7936     2.1123    13.8133 </r>
       <r>     0.9161     2.2732    14.0958 </r>
       <r>     1.0387     2.2121    14.3704 </r>
       <r>     1.1612     2.1564    14.6373 </r>
       <r>     1.2837     2.2655    14.9106 </r>
       <r>     1.4063     2.2253    15.1913 </r>
       <r>     1.5288     1.8621    15.4413 </r>
       <r>     1.6514     1.4471    15.6407 </r>
       <r>     1.7739     1.4486    15.8205 </r>
       <r>     1.8964     1.7963    16.0150 </r>
       <r>     2.0190     2.2029    16.2578 </r>
       <r>     2.1415     2.5101    16.5586 </r>
       <r>     2.2641     2.3588    16.8525 </r>
       <r>     2.3866     2.2874    17.1365 </r>
       <r>     2.5091     2.3182    17.4170 </r>
       <r>     2.6317     2.3651    17.7075 </r>
       <r>     2.7542     2.4733    18.0025 </r>
       <r>     2.8768     2.9265    18.3450 </r>
       <r>     2.9993     2.9446    18.7099 </r>
       <r>     3.1219     2.7513    19.0600 </r>
       <r>     3.2444     2.7563    19.3953 </r>
       <r>     3.3669     2.6125    19.7254 </r>
       <r>     3.4895     2.6069    20.0464 </r>
       <r>     3.6120     3.0362    20.3936 </r>
       <r>     3.7346     3.6379    20.7983 </r>
       <r>     3.8571     3.4598    21.2499 </r>
       <r>     3.9796     3.1785    21.6531 </r>
       <r>     4.1022     3.1319    22.0374 </r>
       <r>     4.2247     2.8831    22.4026 </r>
       <r>     4.3473     2.9298    22.7526 </r>
       <r>     4.4698     2.8124    23.1035 </r>
       <r>     4.5924     3.0778    23.4592 </r>
       <r>     4.7149     2.8722    23.8364 </r>
       <r>     4.8374     2.9020    24.1891 </r>
       <r>     4.9600     2.9355    24.5463 </r>
       <r>     5.0825     3.0209    24.9090 </r>
       <r>     5.2051     3.0539    25.2817 </r>
       <r>     5.3276     2.9225    25.6533 </r>
       <r>     5.4501     2.6630    25.9946 </r>
       <r>     5.5727     2.4256    26.3034 </r>
       <r>     5.6952     2.5433    26.6052 </r>
       <r>     5.8178     2.6777    26.9256 </r>
       <r>     5.9403     2.8011    27.2617 </r>
       <r>     6.0628     2.7560    27.6034 </r>
       <r>     6.1854     2.8494    27.9506 </r>
       <r>     6.3079     2.7032    28.2928 </r>
       <r>     6.4305     2.4926    28.6078 </r>
       <r>     6.5530     2.2384    28.9024 </r>
       <r>     6.6756     2.2694    29.1705 </r>
       <r>     6.7981     2.2576    29.4438 </r>
       <r>     6.9206     2.3702    29.7363 </r>
       <r>     7.0432     1.8766    29.9934 </r>
       <r>     7.1657     1.6633    30.2085 </r>
       <r>     7.2883     1.4807    30.4011 </r>
       <r>     7.4108     1.3690    30.5761 </r>
       <r>     7.5333     1.2775    30.7383 </r>
       <r>     7.6559     1.1737    30.8888 </r>
       <r>     7.7784     1.0674    31.0255 </r>
       <r>     7.9010     0.9721    31.1504 </r>
       <r>     8.0235     0.8977    31.2650 </r>
       <r>     8.1461     0.8505    31.3715 </r>
       <r>     8.2686     0.8010    31.4734 </r>
       <r>     8.3911     0.6988    31.5650 </r>
       <r>     8.5137     0.6242    31.6460 </r>
       <r>     8.6362     0.5763    31.7194 </r>
       <r>     8.7588     0.5285    31.7867 </r>
       <r>     8.8813     0.4127    31.8455 </r>
       <r>     9.0038     0.3738    31.8923 </r>
       <r>     9.1264     0.3762    31.9380 </r>
       <r>     9.2489     0.1855    31.9732 </r>
       <r>     9.3715     0.1403    31.9907 </r>
       <r>     9.4940     0.0054    31.9999 </r>
       <r>     9.6165     0.0000    32.0000 </r>
       <r>     9.7391     0.0000    32.0000 </r>
       <r>     9.8616     0.0000    32.0000 </r>
       <r>     9.9842     0.0000    32.0000 </r>
       <r>    10.1067     0.0000    32.0000 </r>
       <r>    10.2293     0.0000    32.0000 </r>
       <r>    10.3518     0.0000    32.0000 </r>
       <r>    10.4743     0.0000    32.0000 </r>
       <r>    10.5969     0.0000    32.0000 </r>
       <r>    10.7194     0.0000    32.0000 </r>
       <r>    10.8420     0.0000    32.0000 </r>
       <r>    10.9645     0.0000    32.0000 </r>
       <r>    11.0870     0.0000    32.0000 </r>
       <r>    11.2096     0.0000    32.0000 </r>
       <r>    11.3321     0.0000    32.0000 </r>
       <r>    11.4547     0.0000    32.0000 </r>
       <r>    11.5772     0.0000    32.0000 </r>
       <r>    11.6998     0.0000    32.0000 </r>
       <r>    11.8223     0.0000    32.0000 </r>
       <r>    11.9448     0.0000    32.0000 </r>
       <r>    12.0674     0.0000    32.0000 </r>
       <r>    12.1899     0.0000    32.0000 </r>
       <r>    12.3125     0.0000    32.0000 </r>
       <r>    12.4350     0.0000    32.0000 </r>
       <r>    12.5575     0.0000    32.0000 </r>
       <r>    12.6801     0.0000    32.0000 </r>
       <r>    12.8026     0.0000    32.0000 </r>
       <r>    12.9252     0.0000    32.0000 </r>
       <r>    13.0477     0.0000    32.0000 </r>
       <r>    13.1702     0.0000    32.0000 </r>
       <r>    13.2928     0.0000    32.0000 </r>
       <r>    13.4153     0.0000    32.0000 </r>
       <r>    13.5379     0.0245    32.0004 </r>
       <r>    13.6604     0.2770    32.0172 </r>
       <r>    13.7830     0.7256    32.0736 </r>
       <r>    13.9055     0.5715    32.1479 </r>
       <r>    14.0280     0.6551    32.2230 </r>
       <r>    14.1506     0.7526    32.3084 </r>
       <r>    14.2731     0.8398    32.4062 </r>
       <r>    14.3957     0.9535    32.5164 </r>
       <r>    14.5182     1.0447    32.6388 </r>
       <r>    14.6407     1.2776    32.7851 </r>
       <r>    14.7633     1.3712    32.9486 </r>
       <r>    14.8858     1.3895    33.1170 </r>
       <r>    15.0084     1.4878    33.2942 </r>
       <r>    15.1309     1.5835    33.4842 </r>
       <r>    15.2534     1.6717    33.6826 </r>
       <r>    15.3760     1.7730    33.8933 </r>
       <r>    15.4985     1.9133    34.1190 </r>
       <r>    15.6211     2.0158    34.3595 </r>
       <r>    15.7436     2.1223    34.6140 </r>
       <r>    15.8662     2.2224    34.8826 </r>
       <r>    15.9887     2.1743    35.1568 </r>
       <r>    16.1112     2.1932    35.4234 </r>
       <r>    16.2338     2.2908    35.6985 </r>
       <r>    16.3563     2.4099    35.9868 </r>
       <r>    16.4789     2.5546    36.2916 </r>
       <r>    16.6014     2.7122    36.6144 </r>
       <r>    16.7239     2.8431    36.9538 </r>
       <r>    16.8465     3.4284    37.3261 </r>
       <r>    16.9690     3.3135    37.7410 </r>
       <r>    17.0916     3.4106    38.1487 </r>
       <r>    17.2141     4.1001    38.6160 </r>
       <r>    17.3367     3.6695    39.0931 </r>
       <r>    17.4592     4.4084    39.5812 </r>
       <r>    17.5817     4.4187    40.1410 </r>
       <r>    17.7043     3.4684    40.6363 </r>
       <r>    17.8268     3.7621    41.0999 </r>
       <r>    17.9494     3.5227    41.5456 </r>
       <r>    18.0719     3.1029    41.9441 </r>
       <r>    18.1944     3.3009    42.3321 </r>
       <r>    18.3170     3.1393    42.7249 </r>
       <r>    18.4395     2.9453    43.0968 </r>
       <r>    18.5621     3.0870    43.4636 </r>
       <r>    18.6846     3.5289    43.8642 </r>
       <r>    18.8071     3.1172    44.2597 </r>
       <r>    18.9297     2.9370    44.6340 </r>
       <r>    19.0522     2.8444    44.9901 </r>
       <r>    19.1748     2.8892    45.3392 </r>
       <r>    19.2973     2.8381    45.6849 </r>
       <r>    19.4199     2.8906    46.0371 </r>
       <r>    19.5424     2.7916    46.3862 </r>
       <r>    19.6649     2.6801    46.7209 </r>
       <r>    19.7875     2.5686    47.0446 </r>
       <r>    19.9100     2.2145    47.3446 </r>
       <r>    20.0326     1.6367    47.5828 </r>
       <r>    20.1551     1.0662    47.7476 </r>
       <r>    20.2776     0.6294    47.8501 </r>
       <r>    20.4002     0.3417    47.9071 </r>
       <r>    20.5227     0.2114    47.9407 </r>
       <r>    20.6453     0.1171    47.9605 </r>
       <r>    20.7678     0.0942    47.9734 </r>
       <r>    20.8904     0.0751    47.9838 </r>
       <r>    21.0129     0.0444    47.9912 </r>
       <r>    21.1354     0.0258    47.9953 </r>
       <r>    21.2580     0.0156    47.9979 </r>
       <r>    21.3805     0.0077    47.9993 </r>
       <r>    21.5031     0.0026    47.9999 </r>
       <r>    21.6256     0.0002    48.0000 </r>
       <r>    21.7481     0.0000    48.0000 </r>
       <r>    21.8707     0.0000    48.0000 </r>
       <r>    21.9932     0.0000    48.0000 </r>
       <r>    22.1158     0.0000    48.0000 </r>
       <r>    22.2383     0.0000    48.0000 </r>
       <r>    22.3608     0.0000    48.0000 </r>
       <r>    22.4834     0.0000    48.0000 </r>
       <r>    22.6059     0.0000    48.0000 </r>
       <r>    22.7285     0.0000    48.0000 </r>
       <r>    22.8510     0.0000    48.0000 </r>
       <r>    22.9736     0.0000    48.0000 </r>
       <r>    23.0961     0.0000    48.0000 </r>
       <r>    23.2186     0.0000    48.0000 </r>
       <r>    23.3412     0.0000    48.0000 </r>
      </set>
     </set>
    </array>
   </total>
  </dos>
 </calculation>
 <structure name="finalpos" >
  <crystal>
   <varray name="basis" >
    <v>       3.58999936       0.00000000       0.00000000 </v>
    <v>      -0.10769968       3.58838302       0.00000000 </v>
    <v>      -0.10769968      -0.11098057       3.58666724 </v>
   </varray>
   <i name="volume">     46.20449741 </i>
   <varray name="rec_basis" >
    <v>       0.27855158       0.00836029       0.00862298 </v>
    <v>       0.00000000       0.27867705       0.00862297 </v>
    <v>       0.00000000       0.00000000       0.27881036 </v>
   </varray>
  </crystal>
  <varray name="positions" >
   <v>       0.25000000       0.75000000       0.25000000 </v>
   <v>       0.00000000       0.00000000       0.50000000 </v>
   <v>       0.25000000       0.25000000       0.75000000 </v>
   <v>       0.00000000       0.50000000       0.00000000 </v>
   <v>       0.75000000       0.75000000       0.75000000 </v>
   <v>       0.50000000       0.00000000       0.00000000 </v>
   <v>       0.75000000       0.25000000       0.25000000 </v>
   <v>       0.50000000       0.50000000       0.50000000 </v>
  </varray>
 </structure>
</modeling>
