  64  64   0   0
  0.6403294E+01  0.7427816E-09  0.7427816E-09  0.7427816E-09  0.5000000E-15
  1.000000000000000E-004
  CAR 
 unknown system                          
     20.13334627    -13.36367429  301      8.41636762      1.00000000
    -13.364  0.0000E+00  0.0000E+00
    -13.252  0.0000E+00  0.0000E+00
    -13.140  0.0000E+00  0.0000E+00
    -13.029  0.0000E+00  0.0000E+00
    -12.917  0.0000E+00  0.0000E+00
    -12.805  0.0000E+00  0.0000E+00
    -12.694  0.0000E+00  0.0000E+00
    -12.582  0.0000E+00  0.0000E+00
    -12.470  0.0000E+00  0.0000E+00
    -12.359  0.0000E+00  0.0000E+00
    -12.247  0.0000E+00  0.0000E+00
    -12.135  0.7063E-13  0.7887E-14
    -12.024  0.3290E-06  0.3674E-07
    -11.912  0.3381E-02  0.3775E-03
    -11.800  0.2875E+00  0.3248E-01
    -11.689  0.1190E+01  0.1654E+00
    -11.577  0.1777E+01  0.3638E+00
    -11.466  0.2440E+01  0.6363E+00
    -11.354  0.2638E+01  0.9308E+00
    -11.242  0.2982E+01  0.1264E+01
    -11.131  0.3606E+01  0.1666E+01
    -11.019  0.2919E+01  0.1992E+01
    -10.907  0.4494E+01  0.2494E+01
    -10.796  0.3878E+01  0.2927E+01
    -10.684  0.4352E+01  0.3413E+01
    -10.572  0.4454E+01  0.3910E+01
    -10.461  0.5290E+01  0.4501E+01
    -10.349  0.5055E+01  0.5065E+01
    -10.237  0.3929E+01  0.5504E+01
    -10.126  0.6288E+01  0.6206E+01
    -10.014  0.6259E+01  0.6905E+01
     -9.902  0.4980E+01  0.7461E+01
     -9.791  0.5863E+01  0.8116E+01
     -9.679  0.6326E+01  0.8822E+01
     -9.567  0.7077E+01  0.9612E+01
     -9.456  0.5460E+01  0.1022E+02
     -9.344  0.7942E+01  0.1111E+02
     -9.232  0.5315E+01  0.1170E+02
     -9.121  0.7255E+01  0.1251E+02
     -9.009  0.7573E+01  0.1336E+02
     -8.897  0.9229E+01  0.1439E+02
     -8.786  0.6095E+01  0.1507E+02
     -8.674  0.6340E+01  0.1578E+02
     -8.562  0.9343E+01  0.1682E+02
     -8.451  0.7877E+01  0.1770E+02
     -8.339  0.9102E+01  0.1872E+02
     -8.227  0.7517E+01  0.1955E+02
     -8.116  0.9129E+01  0.2057E+02
     -8.004  0.8472E+01  0.2152E+02
     -7.892  0.8516E+01  0.2247E+02
     -7.781  0.9385E+01  0.2352E+02
     -7.669  0.1031E+02  0.2467E+02
     -7.558  0.1078E+02  0.2587E+02
     -7.446  0.8993E+01  0.2688E+02
     -7.334  0.9254E+01  0.2791E+02
     -7.223  0.8910E+01  0.2891E+02
     -7.111  0.1340E+02  0.3040E+02
     -6.999  0.1144E+02  0.3168E+02
     -6.888  0.1155E+02  0.3297E+02
     -6.776  0.1157E+02  0.3426E+02
     -6.664  0.1486E+02  0.3592E+02
     -6.553  0.1184E+02  0.3724E+02
     -6.441  0.1449E+02  0.3886E+02
     -6.329  0.1111E+02  0.4010E+02
     -6.218  0.1410E+02  0.4167E+02
     -6.106  0.1520E+02  0.4337E+02
     -5.994  0.1135E+02  0.4464E+02
     -5.883  0.9417E+01  0.4569E+02
     -5.771  0.1280E+02  0.4712E+02
     -5.659  0.9607E+01  0.4819E+02
     -5.548  0.1108E+02  0.4943E+02
     -5.436  0.1362E+02  0.5095E+02
     -5.324  0.7789E+01  0.5182E+02
     -5.213  0.1175E+02  0.5313E+02
     -5.101  0.8442E+01  0.5407E+02
     -4.989  0.9800E+01  0.5517E+02
     -4.878  0.9042E+01  0.5618E+02
     -4.766  0.6498E+01  0.5690E+02
     -4.654  0.7678E+01  0.5776E+02
     -4.543  0.8944E+01  0.5876E+02
     -4.431  0.9440E+01  0.5981E+02
     -4.319  0.8648E+01  0.6078E+02
     -4.208  0.6338E+01  0.6149E+02
     -4.096  0.3496E+01  0.6188E+02
     -3.985  0.4119E+01  0.6234E+02
     -3.873  0.6550E+01  0.6307E+02
     -3.761  0.9389E+01  0.6412E+02
     -3.650  0.7802E+01  0.6499E+02
     -3.538  0.8047E+01  0.6589E+02
     -3.426  0.6465E+01  0.6661E+02
     -3.315  0.9039E+01  0.6762E+02
     -3.203  0.7564E+01  0.6846E+02
     -3.091  0.9709E+01  0.6955E+02
     -2.980  0.1054E+02  0.7072E+02
     -2.868  0.1473E+02  0.7237E+02
     -2.756  0.2509E+02  0.7517E+02
     -2.645  0.2818E+02  0.7832E+02
     -2.533  0.2061E+02  0.8062E+02
     -2.421  0.1781E+02  0.8261E+02
     -2.310  0.1347E+02  0.8411E+02
     -2.198  0.1674E+02  0.8598E+02
     -2.086  0.1510E+02  0.8767E+02
     -1.975  0.2213E+02  0.9014E+02
     -1.863  0.1318E+02  0.9161E+02
     -1.751  0.9875E+01  0.9271E+02
     -1.640  0.1126E+02  0.9397E+02
     -1.528  0.9443E+01  0.9502E+02
     -1.416  0.9726E+01  0.9611E+02
     -1.305  0.1176E+02  0.9742E+02
     -1.193  0.1095E+02  0.9864E+02
     -1.081  0.9926E+01  0.9975E+02
     -0.970  0.1095E+02  0.1010E+03
     -0.858  0.1168E+02  0.1023E+03
     -0.746  0.6065E+01  0.1030E+03
     -0.635  0.4356E+01  0.1034E+03
     -0.523  0.8237E+01  0.1044E+03
     -0.411  0.1088E+02  0.1056E+03
     -0.300  0.8723E+01  0.1066E+03
     -0.188  0.7181E+01  0.1074E+03
     -0.077  0.1109E+02  0.1086E+03
      0.035  0.1553E+02  0.1103E+03
      0.147  0.1517E+02  0.1120E+03
      0.258  0.1378E+02  0.1136E+03
      0.370  0.1498E+02  0.1152E+03
      0.482  0.1795E+02  0.1172E+03
      0.593  0.2605E+02  0.1201E+03
      0.705  0.1788E+02  0.1221E+03
      0.817  0.1462E+02  0.1238E+03
      0.928  0.1797E+02  0.1258E+03
      1.040  0.1899E+02  0.1279E+03
      1.152  0.1895E+02  0.1300E+03
      1.263  0.1791E+02  0.1320E+03
      1.375  0.1683E+02  0.1339E+03
      1.487  0.1924E+02  0.1360E+03
      1.598  0.2011E+02  0.1383E+03
      1.710  0.2147E+02  0.1407E+03
      1.822  0.1600E+02  0.1425E+03
      1.933  0.2319E+02  0.1451E+03
      2.045  0.1868E+02  0.1471E+03
      2.157  0.2297E+02  0.1497E+03
      2.268  0.2770E+02  0.1528E+03
      2.380  0.1836E+02  0.1549E+03
      2.492  0.2595E+02  0.1578E+03
      2.603  0.2760E+02  0.1608E+03
      2.715  0.2707E+02  0.1639E+03
      2.827  0.3449E+02  0.1677E+03
      2.938  0.2403E+02  0.1704E+03
      3.050  0.2850E+02  0.1736E+03
      3.162  0.2086E+02  0.1759E+03
      3.273  0.2887E+02  0.1791E+03
      3.385  0.2721E+02  0.1822E+03
      3.496  0.2824E+02  0.1853E+03
      3.608  0.2876E+02  0.1885E+03
      3.720  0.2296E+02  0.1911E+03
      3.831  0.1884E+02  0.1932E+03
      3.943  0.2690E+02  0.1962E+03
      4.055  0.3466E+02  0.2001E+03
      4.166  0.2271E+02  0.2026E+03
      4.278  0.1861E+02  0.2047E+03
      4.390  0.2421E+02  0.2074E+03
      4.501  0.2352E+02  0.2100E+03
      4.613  0.3168E+02  0.2135E+03
      4.725  0.2221E+02  0.2160E+03
      4.836  0.1838E+02  0.2181E+03
      4.948  0.2337E+02  0.2207E+03
      5.060  0.2308E+02  0.2233E+03
      5.171  0.2808E+02  0.2264E+03
      5.283  0.2345E+02  0.2290E+03
      5.395  0.1697E+02  0.2309E+03
      5.506  0.1960E+02  0.2331E+03
      5.618  0.2800E+02  0.2362E+03
      5.730  0.1934E+02  0.2384E+03
      5.841  0.1103E+02  0.2396E+03
      5.953  0.1616E+02  0.2414E+03
      6.065  0.1367E+02  0.2430E+03
      6.176  0.1381E+02  0.2445E+03
      6.288  0.1150E+02  0.2458E+03
      6.400  0.8204E+01  0.2467E+03
      6.511  0.1088E+02  0.2479E+03
      6.623  0.9991E+01  0.2490E+03
      6.735  0.8698E+01  0.2500E+03
      6.846  0.6142E+01  0.2507E+03
      6.958  0.7480E+01  0.2515E+03
      7.070  0.6812E+01  0.2523E+03
      7.181  0.6979E+01  0.2531E+03
      7.293  0.3936E+01  0.2535E+03
      7.404  0.5321E+01  0.2541E+03
      7.516  0.4309E+01  0.2546E+03
      7.628  0.4076E+01  0.2550E+03
      7.739  0.3114E+01  0.2554E+03
      7.851  0.2280E+01  0.2556E+03
      7.963  0.2380E+01  0.2559E+03
      8.074  0.8194E+00  0.2560E+03
      8.186  0.1314E+00  0.2560E+03
      8.298  0.4877E-03  0.2560E+03
      8.409  0.6270E-08  0.2560E+03
      8.521  0.1165E-15  0.2560E+03
      8.633  0.0000E+00  0.2560E+03
      8.744  0.0000E+00  0.2560E+03
      8.856  0.0000E+00  0.2560E+03
      8.968  0.0000E+00  0.2560E+03
      9.079  0.0000E+00  0.2560E+03
      9.191  0.0000E+00  0.2560E+03
      9.303  0.0000E+00  0.2560E+03
      9.414  0.0000E+00  0.2560E+03
      9.526  0.0000E+00  0.2560E+03
      9.638  0.0000E+00  0.2560E+03
      9.749  0.0000E+00  0.2560E+03
      9.861  0.0000E+00  0.2560E+03
      9.973  0.0000E+00  0.2560E+03
     10.084  0.0000E+00  0.2560E+03
     10.196  0.0000E+00  0.2560E+03
     10.308  0.0000E+00  0.2560E+03
     10.419  0.0000E+00  0.2560E+03
     10.531  0.0000E+00  0.2560E+03
     10.643  0.0000E+00  0.2560E+03
     10.754  0.0000E+00  0.2560E+03
     10.866  0.0000E+00  0.2560E+03
     10.977  0.0000E+00  0.2560E+03
     11.089  0.0000E+00  0.2560E+03
     11.201  0.0000E+00  0.2560E+03
     11.312  0.0000E+00  0.2560E+03
     11.424  0.0000E+00  0.2560E+03
     11.536  0.0000E+00  0.2560E+03
     11.647  0.1100E-12  0.2560E+03
     11.759  0.9438E-06  0.2560E+03
     11.871  0.1085E-01  0.2560E+03
     11.982  0.4226E+00  0.2560E+03
     12.094  0.1443E+01  0.2562E+03
     12.206  0.3509E+01  0.2566E+03
     12.317  0.4395E+01  0.2571E+03
     12.429  0.3027E+01  0.2574E+03
     12.541  0.5169E+01  0.2580E+03
     12.652  0.9464E+01  0.2591E+03
     12.764  0.9417E+01  0.2601E+03
     12.876  0.8174E+01  0.2610E+03
     12.987  0.4892E+01  0.2616E+03
     13.099  0.1243E+02  0.2630E+03
     13.211  0.1726E+02  0.2649E+03
     13.322  0.1380E+02  0.2664E+03
     13.434  0.1339E+02  0.2679E+03
     13.546  0.1502E+02  0.2696E+03
     13.657  0.1502E+02  0.2713E+03
     13.769  0.1384E+02  0.2728E+03
     13.881  0.1836E+02  0.2749E+03
     13.992  0.2498E+02  0.2777E+03
     14.104  0.1965E+02  0.2799E+03
     14.216  0.1449E+02  0.2815E+03
     14.327  0.2056E+02  0.2838E+03
     14.439  0.2012E+02  0.2860E+03
     14.551  0.2214E+02  0.2885E+03
     14.662  0.2168E+02  0.2909E+03
     14.774  0.2892E+02  0.2941E+03
     14.885  0.2217E+02  0.2966E+03
     14.997  0.2287E+02  0.2992E+03
     15.109  0.2910E+02  0.3024E+03
     15.220  0.3180E+02  0.3060E+03
     15.332  0.3671E+02  0.3101E+03
     15.444  0.3241E+02  0.3137E+03
     15.555  0.3289E+02  0.3174E+03
     15.667  0.4003E+02  0.3218E+03
     15.779  0.4431E+02  0.3268E+03
     15.890  0.4007E+02  0.3313E+03
     16.002  0.4361E+02  0.3361E+03
     16.114  0.4696E+02  0.3414E+03
     16.225  0.3089E+02  0.3448E+03
     16.337  0.2688E+02  0.3478E+03
     16.449  0.3205E+02  0.3514E+03
     16.560  0.2873E+02  0.3546E+03
     16.672  0.3362E+02  0.3584E+03
     16.784  0.2595E+02  0.3613E+03
     16.895  0.3246E+02  0.3649E+03
     17.007  0.3183E+02  0.3684E+03
     17.119  0.2746E+02  0.3715E+03
     17.230  0.1921E+02  0.3736E+03
     17.342  0.2323E+02  0.3762E+03
     17.454  0.1554E+02  0.3780E+03
     17.565  0.1439E+02  0.3796E+03
     17.677  0.1442E+02  0.3812E+03
     17.789  0.6992E+01  0.3820E+03
     17.900  0.3401E+01  0.3824E+03
     18.012  0.3041E+01  0.3827E+03
     18.124  0.3543E+01  0.3831E+03
     18.235  0.1147E+01  0.3832E+03
     18.347  0.4162E+01  0.3837E+03
     18.458  0.7627E+00  0.3838E+03
     18.570  0.1194E+01  0.3839E+03
     18.682  0.8854E+00  0.3840E+03
     18.793  0.2745E-01  0.3840E+03
     18.905  0.3368E-05  0.3840E+03
     19.017  0.6215E-12  0.3840E+03
     19.128  0.0000E+00  0.3840E+03
     19.240  0.0000E+00  0.3840E+03
     19.352  0.0000E+00  0.3840E+03
     19.463  0.0000E+00  0.3840E+03
     19.575  0.0000E+00  0.3840E+03
     19.687  0.0000E+00  0.3840E+03
     19.798  0.0000E+00  0.3840E+03
     19.910  0.0000E+00  0.3840E+03
     20.022  0.0000E+00  0.3840E+03
     20.133  0.0000E+00  0.3840E+03
