mesh: [    48,    48,    48 ]
nqpoint: 2600   
reciprocal_lattice:
- [   0.26925815,   0.00000000,   0.00000000 ] # a*
- [   0.00000000,   0.26925815,   0.00000000 ] # b*
- [   0.00000000,   0.00000000,   0.26925815 ] # c*
natom:   8      
lattice:
- [     3.713908000000000,     0.000000000000000,     0.000000000000000 ] # a
- [     0.000000000000000,     3.713908000000000,     0.000000000000000 ] # b
- [     0.000000000000000,     0.000000000000000,     3.713908000000000 ] # c
points:
- symbol: C  # 1
  coordinates: [  0.250000000000000,  0.750000000000000,  0.250000000000000 ]
  mass: 12.010700
- symbol: C  # 2
  coordinates: [  0.000000000000000,  0.000000000000000,  0.500000000000000 ]
  mass: 12.010700
- symbol: C  # 3
  coordinates: [  0.250000000000000,  0.250000000000000,  0.750000000000000 ]
  mass: 12.010700
- symbol: C  # 4
  coordinates: [  0.000000000000000,  0.500000000000000,  0.000000000000000 ]
  mass: 12.010700
- symbol: C  # 5
  coordinates: [  0.750000000000000,  0.750000000000000,  0.750000000000000 ]
  mass: 12.010700
- symbol: C  # 6
  coordinates: [  0.500000000000000,  0.000000000000000,  0.000000000000000 ]
  mass: 12.010700
- symbol: C  # 7
  coordinates: [  0.750000000000000,  0.250000000000000,  0.250000000000000 ]
  mass: 12.010700
- symbol: C  # 8
  coordinates: [  0.500000000000000,  0.500000000000000,  0.500000000000000 ]
  mass: 12.010700

phonon:
- q-position: [    0.0104167,    0.0104167,    0.0104167 ]
  distance_from_gamma:  0.004858008
  weight: 8    
  band:
  - # 1
    frequency:     0.5492351838
  - # 2
    frequency:     0.5492351838
  - # 3
    frequency:     0.7784143189
  - # 4
    frequency:    22.5836007958
  - # 5
    frequency:    22.5836007958
  - # 6
    frequency:    22.5836007958
  - # 7
    frequency:    22.5934699896
  - # 8
    frequency:    22.5934699896
  - # 9
    frequency:    22.5934699896
  - # 10
    frequency:    26.1955517496
  - # 11
    frequency:    26.1955517496
  - # 12
    frequency:    26.1955517496
  - # 13
    frequency:    26.1980124127
  - # 14
    frequency:    26.1980124127
  - # 15
    frequency:    26.1980124127
  - # 16
    frequency:    31.8452328666
  - # 17
    frequency:    31.8452328666
  - # 18
    frequency:    31.8452328666
  - # 19
    frequency:    32.1410168144
  - # 20
    frequency:    32.1410168144
  - # 21
    frequency:    32.1410168144
  - # 22
    frequency:    34.3723370351
  - # 23
    frequency:    34.3723370351
  - # 24
    frequency:    34.3771611118

- q-position: [    0.0312500,    0.0104167,    0.0104167 ]
  distance_from_gamma:  0.009302378
  weight: 24   
  band:
  - # 1
    frequency:     1.0437377771
  - # 2
    frequency:     1.0481009470
  - # 3
    frequency:     1.4977879910
  - # 4
    frequency:    22.5195216572
  - # 5
    frequency:    22.5292903077
  - # 6
    frequency:    22.5885526128
  - # 7
    frequency:    22.5885526128
  - # 8
    frequency:    22.6181169703
  - # 9
    frequency:    22.6181169703
  - # 10
    frequency:    26.1928601002
  - # 11
    frequency:    26.1928601002
  - # 12
    frequency:    26.2002625585
  - # 13
    frequency:    26.2002625585
  - # 14
    frequency:    26.2497240464
  - # 15
    frequency:    26.2521283370
  - # 16
    frequency:    31.5332442896
  - # 17
    frequency:    31.8309725530
  - # 18
    frequency:    31.8309725530
  - # 19
    frequency:    32.1267347678
  - # 20
    frequency:    32.1267347678
  - # 21
    frequency:    32.4205560427
  - # 22
    frequency:    34.3610323403
  - # 23
    frequency:    34.3615463604
  - # 24
    frequency:    34.3814306434

- q-position: [    0.0520833,    0.0104167,    0.0104167 ]
  distance_from_gamma:  0.014574025
  weight: 24   
  band:
  - # 1
    frequency:     1.6318284219
  - # 2
    frequency:     1.6356877677
  - # 3
    frequency:     2.3509660153
  - # 4
    frequency:    22.3964035183
  - # 5
    frequency:    22.4060018822
  - # 6
    frequency:    22.6082347788
  - # 7
    frequency:    22.6082347788
  - # 8
    frequency:    22.6573687514
  - # 9
    frequency:    22.6573687514
  - # 10
    frequency:    26.1899164278
  - # 11
    frequency:    26.1899164278
  - # 12
    frequency:    26.2023263344
  - # 13
    frequency:    26.2023263344
  - # 14
    frequency:    26.3529588929
  - # 15
    frequency:    26.3552865601
  - # 16
    frequency:    31.2047760490
  - # 17
    frequency:    31.8025801920
  - # 18
    frequency:    31.8025801920
  - # 19
    frequency:    32.0982842216
  - # 20
    frequency:    32.0982842216
  - # 21
    frequency:    32.6841594144
  - # 22
    frequency:    34.3384438276
  - # 23
    frequency:    34.3390509593
  - # 24
    frequency:    34.3908435963

- q-position: [    0.0729167,    0.0104167,    0.0104167 ]
  distance_from_gamma:  0.020030081
  weight: 24   
  band:
  - # 1
    frequency:     2.2401162830
  - # 2
    frequency:     2.2436412834
  - # 3
    frequency:     3.2310482243
  - # 4
    frequency:    22.2223537455
  - # 5
    frequency:    22.2317538327
  - # 6
    frequency:    22.6424236346
  - # 7
    frequency:    22.6424236346
  - # 8
    frequency:    22.7109215713
  - # 9
    frequency:    22.7109215713
  - # 10
    frequency:    26.1867032685
  - # 11
    frequency:    26.1867032685
  - # 12
    frequency:    26.2042267024
  - # 13
    frequency:    26.2042267024
  - # 14
    frequency:    26.4970284562
  - # 15
    frequency:    26.4993132725
  - # 16
    frequency:    30.8597154397
  - # 17
    frequency:    31.7603133474
  - # 18
    frequency:    31.7603133474
  - # 19
    frequency:    32.0558930097
  - # 20
    frequency:    32.0558930097
  - # 21
    frequency:    32.9320091401
  - # 22
    frequency:    34.3046132535
  - # 23
    frequency:    34.3052581634
  - # 24
    frequency:    34.4049129030

- q-position: [    0.0937500,    0.0104167,    0.0104167 ]
  distance_from_gamma:  0.025552693
  weight: 24   
  band:
  - # 1
    frequency:     2.8546832121
  - # 2
    frequency:     2.8581065240
  - # 3
    frequency:     4.1185720967
  - # 4
    frequency:    22.0061182806
  - # 5
    frequency:    22.0153254996
  - # 6
    frequency:    22.6907603819
  - # 7
    frequency:    22.6907603819
  - # 8
    frequency:    22.7783425745
  - # 9
    frequency:    22.7783425745
  - # 10
    frequency:    26.1832057279
  - # 11
    frequency:    26.1832057279
  - # 12
    frequency:    26.2059850142
  - # 13
    frequency:    26.2059850142
  - # 14
    frequency:    26.6730315289
  - # 15
    frequency:    26.6753641822
  - # 16
    frequency:    30.4979585317
  - # 17
    frequency:    31.7045610215
  - # 18
    frequency:    31.7045610215
  - # 19
    frequency:    31.9999047829
  - # 20
    frequency:    31.9999047829
  - # 21
    frequency:    33.1643190688
  - # 22
    frequency:    34.2596032574
  - # 23
    frequency:    34.2602753989
  - # 24
    frequency:    34.4234129892

- q-position: [    0.1145833,    0.0104167,    0.0104167 ]
  distance_from_gamma:  0.031106431
  weight: 24   
  band:
  - # 1
    frequency:     3.4710565008
  - # 2
    frequency:     3.4745178914
  - # 3
    frequency:     5.0072171475
  - # 4
    frequency:    21.7554746514
  - # 5
    frequency:    21.7645128410
  - # 6
    frequency:    22.7527492723
  - # 7
    frequency:    22.7527492723
  - # 8
    frequency:    22.8590704120
  - # 9
    frequency:    22.8590704120
  - # 10
    frequency:    26.1794115757
  - # 11
    frequency:    26.1794115757
  - # 12
    frequency:    26.2076188147
  - # 13
    frequency:    26.2076188147
  - # 14
    frequency:    26.8729984105
  - # 15
    frequency:    26.8755330467
  - # 16
    frequency:    30.1194353078
  - # 17
    frequency:    31.6358470581
  - # 18
    frequency:    31.6358470581
  - # 19
    frequency:    31.9307814389
  - # 20
    frequency:    31.9307814389
  - # 21
    frequency:    33.3813204597
  - # 22
    frequency:    34.2034973631
  - # 23
    frequency:    34.2041953716
  - # 24
    frequency:    34.4460963016

- q-position: [    0.1354167,    0.0104167,    0.0104167 ]
  distance_from_gamma:  0.036677158
  weight: 24   
  band:
  - # 1
    frequency:     4.0872104838
  - # 2
    frequency:     4.0907930806
  - # 3
    frequency:     5.8940023971
  - # 4
    frequency:    21.4766384832
  - # 5
    frequency:    21.4855375613
  - # 6
    frequency:    22.8277549555
  - # 7
    frequency:    22.8277549555
  - # 8
    frequency:    22.9524153153
  - # 9
    frequency:    22.9524153153
  - # 10
    frequency:    26.1753111150
  - # 11
    frequency:    26.1753111150
  - # 12
    frequency:    26.2091392483
  - # 13
    frequency:    26.2091392483
  - # 14
    frequency:    27.0904571528
  - # 15
    frequency:    27.0934471576
  - # 16
    frequency:    29.7241378960
  - # 17
    frequency:    31.5548350407
  - # 18
    frequency:    31.5548350407
  - # 19
    frequency:    31.8491066122
  - # 20
    frequency:    31.8491066122
  - # 21
    frequency:    33.5832612171
  - # 22
    frequency:    34.1363999728
  - # 23
    frequency:    34.1371251347
  - # 24
    frequency:    34.4726664650

- q-position: [    0.1562500,    0.0104167,    0.0104167 ]
  distance_from_gamma:  0.042258157
  weight: 24   
  band:
  - # 1
    frequency:     4.7019727580
  - # 2
    frequency:     4.7057277111
  - # 3
    frequency:     6.7771095165
  - # 4
    frequency:    21.1742954609
  - # 5
    frequency:    21.1830840476
  - # 6
    frequency:    22.9149986064
  - # 7
    frequency:    22.9149986064
  - # 8
    frequency:    23.0575582282
  - # 9
    frequency:    23.0575582282
  - # 10
    frequency:    26.1708970578
  - # 11
    frequency:    26.1708970578
  - # 12
    frequency:    26.2105478994
  - # 13
    frequency:    26.2105478994
  - # 14
    frequency:    27.3203166970
  - # 15
    frequency:    27.3242377851
  - # 16
    frequency:    29.3122036782
  - # 17
    frequency:    31.4623349919
  - # 18
    frequency:    31.4623349919
  - # 19
    frequency:    31.7555904503
  - # 20
    frequency:    31.7555904503
  - # 21
    frequency:    33.7704061349
  - # 22
    frequency:    34.0584363481
  - # 23
    frequency:    34.0591908048
  - # 24
    frequency:    34.5027762576

- q-position: [    0.1770833,    0.0104167,    0.0104167 ]
  distance_from_gamma:  0.047845833
  weight: 24   
  band:
  - # 1
    frequency:     5.3145301402
  - # 2
    frequency:     5.3184897194
  - # 3
    frequency:     7.6552168071
  - # 4
    frequency:    20.8518749263
  - # 5
    frequency:    20.8605769002
  - # 6
    frequency:    23.0135523194
  - # 7
    frequency:    23.0135523194
  - # 8
    frequency:    23.1735485408
  - # 9
    frequency:    23.1735485408
  - # 10
    frequency:    26.1661646001
  - # 11
    frequency:    26.1661646001
  - # 12
    frequency:    26.2118329614
  - # 13
    frequency:    26.2118329614
  - # 14
    frequency:    27.5582489007
  - # 15
    frequency:    27.5642693390
  - # 16
    frequency:    28.8842591824
  - # 17
    frequency:    31.3593122458
  - # 18
    frequency:    31.3593122458
  - # 19
    frequency:    31.6510759596
  - # 20
    frequency:    31.6510759596
  - # 21
    frequency:    33.9430373873
  - # 22
    frequency:    33.9697525701
  - # 23
    frequency:    33.9705386827
  - # 24
    frequency:    34.5360295910

- q-position: [    0.1979167,    0.0104167,    0.0104167 ]
  distance_from_gamma:  0.053438091
  weight: 24   
  band:
  - # 1
    frequency:     5.9242417340
  - # 2
    frequency:     5.9284263983
  - # 3
    frequency:     8.5272497147
  - # 4
    frequency:    20.5118559234
  - # 5
    frequency:    20.5204893212
  - # 6
    frequency:    23.1223312040
  - # 7
    frequency:    23.1223312040
  - # 8
    frequency:    23.2992998926
  - # 9
    frequency:    23.2992998926
  - # 10
    frequency:    26.1611119501
  - # 11
    frequency:    26.1611119501
  - # 12
    frequency:    26.2129646077
  - # 13
    frequency:    26.2129646077
  - # 14
    frequency:    27.7977854527
  - # 15
    frequency:    27.8108363735
  - # 16
    frequency:    28.4440185555
  - # 17
    frequency:    31.2468989036
  - # 18
    frequency:    31.2468989036
  - # 19
    frequency:    31.5365472672
  - # 20
    frequency:    31.5365472672
  - # 21
    frequency:    33.8705154702
  - # 22
    frequency:    33.8713355555
  - # 23
    frequency:    34.1014551204
  - # 24
    frequency:    34.5719846554

- q-position: [    0.2187500,    0.0104167,    0.0104167 ]
  distance_from_gamma:  0.059033630
  weight: 24   
  band:
  - # 1
    frequency:     6.5305576998
  - # 2
    frequency:     6.5349801051
  - # 3
    frequency:     9.3922735608
  - # 4
    frequency:    20.1560274507
  - # 5
    frequency:    20.1646045443
  - # 6
    frequency:    23.2400826240
  - # 7
    frequency:    23.2400826240
  - # 8
    frequency:    23.4335834124
  - # 9
    frequency:    23.4335834124
  - # 10
    frequency:    26.1557416530
  - # 11
    frequency:    26.1557416530
  - # 12
    frequency:    26.2138894321
  - # 13
    frequency:    26.2138894321
  - # 14
    frequency:    27.9094050422
  - # 15
    frequency:    28.0619066112
  - # 16
    frequency:    28.1189390263
  - # 17
    frequency:    31.1264082573
  - # 18
    frequency:    31.1264082573
  - # 19
    frequency:    31.4131401835
  - # 20
    frequency:    31.4131401835
  - # 21
    frequency:    33.7609125223
  - # 22
    frequency:    33.7617687335
  - # 23
    frequency:    34.2459780913
  - # 24
    frequency:    34.6101576047

- q-position: [    0.2395833,    0.0104167,    0.0104167 ]
  distance_from_gamma:  0.064631597
  weight: 24   
  band:
  - # 1
    frequency:     7.1329802502
  - # 2
    frequency:     7.1376476379
  - # 3
    frequency:    10.2494426814
  - # 4
    frequency:    19.7856877466
  - # 5
    frequency:    19.7942156252
  - # 6
    frequency:    23.3653721290
  - # 7
    frequency:    23.3653721290
  - # 8
    frequency:    23.5750176506
  - # 9
    frequency:    23.5750176506
  - # 10
    frequency:    26.1500631821
  - # 11
    frequency:    26.1500631821
  - # 12
    frequency:    26.2145238668
  - # 13
    frequency:    26.2145238668
  - # 14
    frequency:    27.4736956220
  - # 15
    frequency:    28.3159250924
  - # 16
    frequency:    28.3268631354
  - # 17
    frequency:    30.9993524281
  - # 18
    frequency:    30.9993524281
  - # 19
    frequency:    31.2821554671
  - # 20
    frequency:    31.2821554671
  - # 21
    frequency:    33.6411516851
  - # 22
    frequency:    33.6420459622
  - # 23
    frequency:    34.3769443227
  - # 24
    frequency:    34.6500265723

- q-position: [    0.2604167,    0.0104167,    0.0104167 ]
  distance_from_gamma:  0.070231411
  weight: 24   
  band:
  - # 1
    frequency:     7.7310435280
  - # 2
    frequency:     7.7359592140
  - # 3
    frequency:    11.0979745541
  - # 4
    frequency:    19.4017900174
  - # 5
    frequency:    19.4102713318
  - # 6
    frequency:    23.4965659070
  - # 7
    frequency:    23.4965659070
  - # 8
    frequency:    23.7220543149
  - # 9
    frequency:    23.7220543149
  - # 10
    frequency:    26.1440974405
  - # 11
    frequency:    26.1440974405
  - # 12
    frequency:    26.2147466462
  - # 13
    frequency:    26.2147466462
  - # 14
    frequency:    26.9794164653
  - # 15
    frequency:    28.5716719723
  - # 16
    frequency:    28.5778152243
  - # 17
    frequency:    30.8674631031
  - # 18
    frequency:    30.8674631031
  - # 19
    frequency:    31.1450751248
  - # 20
    frequency:    31.1450751248
  - # 21
    frequency:    33.5114611855
  - # 22
    frequency:    33.5123952440
  - # 23
    frequency:    34.4947117456
  - # 24
    frequency:    34.6910359036

- q-position: [    0.2812500,    0.0104167,    0.0104167 ]
  distance_from_gamma:  0.075832664
  weight: 24   
  band:
  - # 1
    frequency:     8.3243027161
  - # 2
    frequency:     8.3294670591
  - # 3
    frequency:    11.9371359714
  - # 4
    frequency:    19.0050469492
  - # 5
    frequency:    19.0134806582
  - # 6
    frequency:    23.6318101571
  - # 7
    frequency:    23.6318101571
  - # 8
    frequency:    23.8729587258
  - # 9
    frequency:    23.8729587258
  - # 10
    frequency:    26.1378840437
  - # 11
    frequency:    26.1378840437
  - # 12
    frequency:    26.2143907685
  - # 13
    frequency:    26.2143907685
  - # 14
    frequency:    26.4648429543
  - # 15
    frequency:    28.8281615617
  - # 16
    frequency:    28.8325566412
  - # 17
    frequency:    30.7327144995
  - # 18
    frequency:    30.7327144995
  - # 19
    frequency:    31.0035818916
  - # 20
    frequency:    31.0035818916
  - # 21
    frequency:    33.3720892311
  - # 22
    frequency:    33.3730645781
  - # 23
    frequency:    34.5996588046
  - # 24
    frequency:    34.7326005244

- q-position: [    0.3020833,    0.0104167,    0.0104167 ]
  distance_from_gamma:  0.081435059
  weight: 24   
  band:
  - # 1
    frequency:     8.9123280130
  - # 2
    frequency:     8.9177390647
  - # 3
    frequency:    12.7662354050
  - # 4
    frequency:    18.5960051926
  - # 5
    frequency:    18.6043872463
  - # 6
    frequency:    23.7690087904
  - # 7
    frequency:    23.7690087904
  - # 8
    frequency:    24.0257836932
  - # 9
    frequency:    24.0257836932
  - # 10
    frequency:    25.9322165265
  - # 11
    frequency:    26.1314925125
  - # 12
    frequency:    26.1314925125
  - # 13
    frequency:    26.2132362186
  - # 14
    frequency:    26.2132362186
  - # 15
    frequency:    29.0845713588
  - # 16
    frequency:    29.0880658859
  - # 17
    frequency:    30.5973462985
  - # 18
    frequency:    30.5973462985
  - # 19
    frequency:    30.8595816191
  - # 20
    frequency:    30.8595816191
  - # 21
    frequency:    33.2233036431
  - # 22
    frequency:    33.2243216141
  - # 23
    frequency:    34.6921850012
  - # 24
    frequency:    34.7741103761

- q-position: [    0.3229167,    0.0104167,    0.0104167 ]
  distance_from_gamma:  0.087038374
  weight: 24   
  band:
  - # 1
    frequency:     9.4947013357
  - # 2
    frequency:     9.5003552937
  - # 3
    frequency:    13.5846187123
  - # 4
    frequency:    18.1750984505
  - # 5
    frequency:    18.1834223908
  - # 6
    frequency:    23.9058024883
  - # 7
    frequency:    23.9058024883
  - # 8
    frequency:    24.1783353562
  - # 9
    frequency:    24.1783353562
  - # 10
    frequency:    25.3820963433
  - # 11
    frequency:    26.1250386961
  - # 12
    frequency:    26.1250386961
  - # 13
    frequency:    26.2110062306
  - # 14
    frequency:    26.2110062306
  - # 15
    frequency:    29.3401923891
  - # 16
    frequency:    29.3431383855
  - # 17
    frequency:    30.4638819190
  - # 18
    frequency:    30.4638819190
  - # 19
    frequency:    30.7152275420
  - # 20
    frequency:    30.7152275420
  - # 21
    frequency:    33.0653913994
  - # 22
    frequency:    33.0664532144
  - # 23
    frequency:    34.7727113504
  - # 24
    frequency:    34.8149348527

- q-position: [    0.3437500,    0.0104167,    0.0104167 ]
  distance_from_gamma:  0.092642443
  weight: 24   
  band:
  - # 1
    frequency:    10.0710146391
  - # 2
    frequency:    10.0769061719
  - # 3
    frequency:    14.3916667067
  - # 4
    frequency:    17.7426854109
  - # 5
    frequency:    17.7509428880
  - # 6
    frequency:    24.0395545209
  - # 7
    frequency:    24.0395545209
  - # 8
    frequency:    24.3281297780
  - # 9
    frequency:    24.3281297780
  - # 10
    frequency:    24.8147410975
  - # 11
    frequency:    26.1187075934
  - # 12
    frequency:    26.1187075934
  - # 13
    frequency:    26.2073723837
  - # 14
    frequency:    26.2073723837
  - # 15
    frequency:    29.5943945585
  - # 16
    frequency:    29.5969711576
  - # 17
    frequency:    30.3351337818
  - # 18
    frequency:    30.3351337818
  - # 19
    frequency:    30.5729441792
  - # 20
    frequency:    30.5729441792
  - # 21
    frequency:    32.8986580812
  - # 22
    frequency:    32.8997649200
  - # 23
    frequency:    34.8416807267
  - # 24
    frequency:    34.8544271844

- q-position: [    0.3645833,    0.0104167,    0.0104167 ]
  distance_from_gamma:  0.098247138
  weight: 24   
  band:
  - # 1
    frequency:    10.6408692364
  - # 2
    frequency:    10.6469917228
  - # 3
    frequency:    15.1867937862
  - # 4
    frequency:    17.2990769194
  - # 5
    frequency:    17.3072581313
  - # 6
    frequency:    24.1673517840
  - # 7
    frequency:    24.1673517840
  - # 8
    frequency:    24.2303357832
  - # 9
    frequency:    24.4723405857
  - # 10
    frequency:    24.4723405857
  - # 11
    frequency:    26.1127825906
  - # 12
    frequency:    26.1127825906
  - # 13
    frequency:    26.2019774094
  - # 14
    frequency:    26.2019774094
  - # 15
    frequency:    29.8466025869
  - # 16
    frequency:    29.8489130826
  - # 17
    frequency:    30.2141819045
  - # 18
    frequency:    30.2141819045
  - # 19
    frequency:    30.4354469814
  - # 20
    frequency:    30.4354469814
  - # 21
    frequency:    32.7234272191
  - # 22
    frequency:    32.7245803155
  - # 23
    frequency:    34.8919287130
  - # 24
    frequency:    34.8995580725

- q-position: [    0.3854167,    0.0104167,    0.0104167 ]
  distance_from_gamma:  0.103852356
  weight: 24   
  band:
  - # 1
    frequency:    11.2038757569
  - # 2
    frequency:    11.2102214698
  - # 3
    frequency:    15.9694471597
  - # 4
    frequency:    16.8445554559
  - # 5
    frequency:    16.8526495206
  - # 6
    frequency:    23.6290524591
  - # 7
    frequency:    24.2860328707
  - # 8
    frequency:    24.2860328707
  - # 9
    frequency:    24.6077426219
  - # 10
    frequency:    24.6077426219
  - # 11
    frequency:    26.1076776462
  - # 12
    frequency:    26.1076776462
  - # 13
    frequency:    26.1944883205
  - # 14
    frequency:    26.1944883205
  - # 15
    frequency:    30.0962794206
  - # 16
    frequency:    30.0983886371
  - # 17
    frequency:    30.1043054075
  - # 18
    frequency:    30.1043054075
  - # 19
    frequency:    30.3057523448
  - # 20
    frequency:    30.3057523448
  - # 21
    frequency:    32.5400395357
  - # 22
    frequency:    32.5412402924
  - # 23
    frequency:    34.9267730143
  - # 24
    frequency:    34.9468304479

- q-position: [    0.4062500,    0.0104167,    0.0104167 ]
  distance_from_gamma:  0.109458017
  weight: 24   
  band:
  - # 1
    frequency:    11.7596545124
  - # 2
    frequency:    11.7662147638
  - # 3
    frequency:    16.3793890589
  - # 4
    frequency:    16.3873843292
  - # 5
    frequency:    16.7391063984
  - # 6
    frequency:    23.0110718135
  - # 7
    frequency:    24.3922577322
  - # 8
    frequency:    24.3922577322
  - # 9
    frequency:    24.7306679749
  - # 10
    frequency:    24.7306679749
  - # 11
    frequency:    26.1039609255
  - # 12
    frequency:    26.1039609255
  - # 13
    frequency:    26.1846931875
  - # 14
    frequency:    26.1846931875
  - # 15
    frequency:    30.0088387928
  - # 16
    frequency:    30.0088387928
  - # 17
    frequency:    30.1871735213
  - # 18
    frequency:    30.1871735213
  - # 19
    frequency:    30.3429149554
  - # 20
    frequency:    30.3448660969
  - # 21
    frequency:    32.3488520904
  - # 22
    frequency:    32.3501022181
  - # 23
    frequency:    34.9582898276
  - # 24
    frequency:    34.9840068954

- q-position: [    0.4270833,    0.0104167,    0.0104167 ]
  distance_from_gamma:  0.115064057
  weight: 24   
  band:
  - # 1
    frequency:    12.3078361147
  - # 2
    frequency:    12.3146013768
  - # 3
    frequency:    15.9038412033
  - # 4
    frequency:    15.9117255324
  - # 5
    frequency:    17.4952831459
  - # 6
    frequency:    22.3765925190
  - # 7
    frequency:    24.4826340915
  - # 8
    frequency:    24.4826340915
  - # 9
    frequency:    24.8370136702
  - # 10
    frequency:    24.8370136702
  - # 11
    frequency:    26.1023435396
  - # 12
    frequency:    26.1023435396
  - # 13
    frequency:    26.1726458657
  - # 14
    frequency:    26.1726458657
  - # 15
    frequency:    29.9309149636
  - # 16
    frequency:    29.9309149636
  - # 17
    frequency:    30.0833082065
  - # 18
    frequency:    30.0833082065
  - # 19
    frequency:    30.5860185457
  - # 20
    frequency:    30.5878416868
  - # 21
    frequency:    32.1502373354
  - # 22
    frequency:    32.1515390192
  - # 23
    frequency:    34.9858087562
  - # 24
    frequency:    35.0116180991

- q-position: [    0.4479167,    0.0104167,    0.0104167 ]
  distance_from_gamma:  0.120670423
  weight: 24   
  band:
  - # 1
    frequency:    12.8480622218
  - # 2
    frequency:    12.8550222319
  - # 3
    frequency:    15.4181777054
  - # 4
    frequency:    15.4259386706
  - # 5
    frequency:    18.2375208811
  - # 6
    frequency:    21.7258360020
  - # 7
    frequency:    24.5539118334
  - # 8
    frequency:    24.5539118334
  - # 9
    frequency:    24.9223755196
  - # 10
    frequency:    24.9223755196
  - # 11
    frequency:    26.1035863105
  - # 12
    frequency:    26.1035863105
  - # 13
    frequency:    26.1588368805
  - # 14
    frequency:    26.1588368805
  - # 15
    frequency:    29.8730340956
  - # 16
    frequency:    29.8730340956
  - # 17
    frequency:    29.9980619908
  - # 18
    frequency:    29.9980619908
  - # 19
    frequency:    30.8251142160
  - # 20
    frequency:    30.8268309552
  - # 21
    frequency:    31.9445821012
  - # 22
    frequency:    31.9459382031
  - # 23
    frequency:    35.0086627128
  - # 24
    frequency:    35.0302158146

- q-position: [    0.4687500,    0.0104167,    0.0104167 ]
  distance_from_gamma:  0.126277071
  weight: 24   
  band:
  - # 1
    frequency:    13.3799863069
  - # 2
    frequency:    13.3871301652
  - # 3
    frequency:    14.9226714248
  - # 4
    frequency:    14.9302965179
  - # 5
    frequency:    18.9653946640
  - # 6
    frequency:    21.0590492283
  - # 7
    frequency:    24.6032441642
  - # 8
    frequency:    24.6032441642
  - # 9
    frequency:    24.9824101817
  - # 10
    frequency:    24.9824101817
  - # 11
    frequency:    26.1082507727
  - # 12
    frequency:    26.1082507727
  - # 13
    frequency:    26.1443436668
  - # 14
    frequency:    26.1443436668
  - # 15
    frequency:    29.8363365665
  - # 16
    frequency:    29.8363365665
  - # 17
    frequency:    29.9358493532
  - # 18
    frequency:    29.9358493532
  - # 19
    frequency:    31.0597378003
  - # 20
    frequency:    31.0613639888
  - # 21
    frequency:    31.7322865423
  - # 22
    frequency:    31.7337008496
  - # 23
    frequency:    35.0261910877
  - # 24
    frequency:    35.0403720518

- q-position: [    0.4895833,    0.0104167,    0.0104167 ]
  distance_from_gamma:  0.131883965
  weight: 24   
  band:
  - # 1
    frequency:    13.9032743486
  - # 2
    frequency:    13.9105906138
  - # 3
    frequency:    14.4176053306
  - # 4
    frequency:    14.4250821190
  - # 5
    frequency:    19.6785108188
  - # 6
    frequency:    20.3765065169
  - # 7
    frequency:    24.6284890385
  - # 8
    frequency:    24.6284890385
  - # 9
    frequency:    25.0134843891
  - # 10
    frequency:    25.0134843891
  - # 11
    frequency:    26.1158873732
  - # 12
    frequency:    26.1158873732
  - # 13
    frequency:    26.1312621931
  - # 14
    frequency:    26.1312621931
  - # 15
    frequency:    29.8195541867
  - # 16
    frequency:    29.8195541867
  - # 17
    frequency:    29.9020706283
  - # 18
    frequency:    29.9020706283
  - # 19
    frequency:    31.2894354477
  - # 20
    frequency:    31.2909828841
  - # 21
    frequency:    31.5137630859
  - # 22
    frequency:    31.5152406239
  - # 23
    frequency:    35.0377426243
  - # 24
    frequency:    35.0426779921

- q-position: [    0.0312500,    0.0312500,    0.0104167 ]
  distance_from_gamma:  0.012225719
  weight: 24   
  band:
  - # 1
    frequency:     1.3713745053
  - # 2
    frequency:     1.3867769735
  - # 3
    frequency:     1.9603246713
  - # 4
    frequency:    22.5244482305
  - # 5
    frequency:    22.5244482305
  - # 6
    frequency:    22.5537657499
  - # 7
    frequency:    22.5537657499
  - # 8
    frequency:    22.5737353438
  - # 9
    frequency:    22.6622541736
  - # 10
    frequency:    26.1852352125
  - # 11
    frequency:    26.2074277951
  - # 12
    frequency:    26.2470593097
  - # 13
    frequency:    26.2470593097
  - # 14
    frequency:    26.2543804242
  - # 15
    frequency:    26.2543804242
  - # 16
    frequency:    31.5199970474
  - # 17
    frequency:    31.5199970474
  - # 18
    frequency:    31.8143174420
  - # 19
    frequency:    32.1149793938
  - # 20
    frequency:    32.4055549898
  - # 21
    frequency:    32.4055549898
  - # 22
    frequency:    34.3499707626
  - # 23
    frequency:    34.3529585955
  - # 24
    frequency:    34.3832901154

- q-position: [    0.0520833,    0.0312500,    0.0104167 ]
  distance_from_gamma:  0.016593257
  weight: 48   
  band:
  - # 1
    frequency:     1.8591211073
  - # 2
    frequency:     1.8759332654
  - # 3
    frequency:     2.6631076796
  - # 4
    frequency:    22.4012917717
  - # 5
    frequency:    22.4301952206
  - # 6
    frequency:    22.5439118309
  - # 7
    frequency:    22.5736677000
  - # 8
    frequency:    22.5928444960
  - # 9
    frequency:    22.7207004606
  - # 10
    frequency:    26.1773369870
  - # 11
    frequency:    26.2144107514
  - # 12
    frequency:    26.2440081708
  - # 13
    frequency:    26.2566006859
  - # 14
    frequency:    26.3502951080
  - # 15
    frequency:    26.3575018668
  - # 16
    frequency:    31.1925772180
  - # 17
    frequency:    31.4936434542
  - # 18
    frequency:    31.7812805180
  - # 19
    frequency:    32.0914363602
  - # 20
    frequency:    32.3756592241
  - # 21
    frequency:    32.6687188824
  - # 22
    frequency:    34.3275682530
  - # 23
    frequency:    34.3319756464
  - # 24
    frequency:    34.3910764499

- q-position: [    0.0729167,    0.0312500,    0.0104167 ]
  distance_from_gamma:  0.021543866
  weight: 48   
  band: