       N       E                     dE             d eps       ncg     rms          rms(c)
DAV:   1     0.500484104579E+03    0.50048E+03   -0.11164E+05 13440   0.105E+03
DAV:   2    -0.544806605268E+03   -0.10453E+04   -0.99328E+03 17952   0.224E+02
DAV:   3    -0.588753120547E+03   -0.43947E+02   -0.43648E+02 17920   0.432E+01
DAV:   4    -0.589330668683E+03   -0.57755E+00   -0.57652E+00 18336   0.533E+00
DAV:   5    -0.589340841705E+03   -0.10173E-01   -0.10169E-01 16928   0.696E-01    0.232E+01
DAV:   6    -0.579192078238E+03    0.10149E+02   -0.69119E+00 16000   0.509E+00    0.130E+01
DAV:   7    -0.575754407086E+03    0.34377E+01   -0.82196E+00 16320   0.572E+00    0.184E+00
DAV:   8    -0.575801971208E+03   -0.47564E-01   -0.19338E-01 17120   0.861E-01    0.197E-01
DAV:   9    -0.575804171724E+03   -0.22005E-02   -0.36849E-03 17568   0.141E-01    0.744E-02
DAV:  10    -0.575804638809E+03   -0.46709E-03   -0.47212E-04 16640   0.551E-02    0.765E-03
DAV:  11    -0.575804640706E+03   -0.18966E-05   -0.11805E-05 17760   0.742E-03    0.195E-03
DAV:  12    -0.575804641274E+03   -0.56783E-06   -0.65438E-07 17088   0.187E-03    0.189E-04
DAV:  13    -0.575804641393E+03   -0.11886E-06   -0.12533E-08 13536   0.253E-04    0.445E-05
DAV:  14    -0.575804641391E+03    0.13242E-08   -0.17610E-09 12128   0.969E-05
   1 F= -.57580464E+03 E0= -.57580464E+03  d E =-.630588E-11
 Linear response reoptimize wavefunctions
DAV:   1    -0.575804641391E+03    0.19463E-09   -0.44531E-10 10688   0.468E-05
DAV:   2    -0.575804641391E+03    0.16371E-10   -0.11074E-10 10016   0.241E-05
 Linear response DOF=           1
 Linear response progress:
  Degree of freedom:   1/  1
       N       E                     dE             d eps       ncg     rms          rms(c)
RMM:   1    -0.137563168229E+00   -0.13756E+00    0.11004E-02111341   0.700E-01
RMM:   2    -0.119444225495E+00    0.18119E-01   -0.70366E-03 68956   0.180E-01    0.151E-01
RMM:   3    -0.119393077900E+00    0.51148E-04   -0.61138E-04 72365   0.415E-02    0.792E-02
RMM:   4    -0.119565593473E+00   -0.17252E-03   -0.15747E-04 72927   0.219E-02    0.250E-02
RMM:   5    -0.119617675145E+00   -0.52082E-04   -0.11588E-05 73512   0.649E-03    0.597E-03
RMM:   6    -0.119599438743E+00    0.18236E-04   -0.11583E-06 74905   0.184E-03    0.126E-03
RMM:   7    -0.119591460535E+00    0.79782E-05   -0.73841E-07 75785   0.626E-04    0.350E-04
RMM:   8    -0.119591076186E+00    0.38435E-06   -0.45734E-07 78829   0.284E-04    0.892E-05
RMM:   9    -0.119590854708E+00    0.22148E-06   -0.49054E-07 82355   0.202E-04    0.389E-05
RMM:  10    -0.119590972095E+00   -0.11739E-06   -0.58111E-07 84660   0.192E-04    0.127E-05
RMM:  11    -0.119590978197E+00   -0.61026E-08   -0.59323E-07 85358   0.189E-04    0.534E-06
 Linear response finished
