# Thermal properties / unit cell (natom)

unit:
  temperature:   K
  free_energy:   kJ/mol
  entropy:       J/K/mol
  heat_capacity: J/K/mol

natom: 8    
cutoff_frequency:    0.000
num_modes: 2654208
num_integrated_modes: 2654208

zero_point_energy:     122.7820777
high_T_entropy:        456.3983502

thermal_properties:
- temperature:         0.0000000
  free_energy:       122.7820777
  entropy:             0.0000000
  heat_capacity:       0.0000000
  energy:            122.7820777

- temperature:         2.0000000
  free_energy:       122.7820777
  entropy:             0.0000000
  heat_capacity:       0.0000000
  energy:            122.7820777

- temperature:         4.0000000
  free_energy:       122.7820777
  entropy:             0.0000133
  heat_capacity:       0.0000787
  energy:            122.7820778

- temperature:         6.0000000
  free_energy:       122.7820776
  entropy:             0.0000986
  heat_capacity:       0.0004104
  energy:            122.7820782

- temperature:         8.0000000
  free_energy:       122.7820772
  entropy:             0.0002953
  heat_capacity:       0.0010432
  energy:            122.7820796

- temperature:        10.0000000
  free_energy:       122.7820763
  entropy:             0.0006295
  heat_capacity:       0.0020625
  energy:            122.7820826

- temperature:        12.0000000
  free_energy:       122.7820746
  entropy:             0.0011309
  heat_capacity:       0.0035742
  energy:            122.7820882

- temperature:        14.0000000
  free_energy:       122.7820717
  entropy:             0.0018319
  heat_capacity:       0.0056836
  energy:            122.7820973

- temperature:        16.0000000
  free_energy:       122.7820671
  entropy:             0.0027660
  heat_capacity:       0.0084951
  energy:            122.7821114

- temperature:        18.0000000
  free_energy:       122.7820604
  entropy:             0.0039670
  heat_capacity:       0.0121130
  energy:            122.7821319

- temperature:        20.0000000
  free_energy:       122.7820511
  entropy:             0.0054692
  heat_capacity:       0.0166427
  energy:            122.7821604

- temperature:        22.0000000
  free_energy:       122.7820383
  entropy:             0.0073071
  heat_capacity:       0.0221914
  energy:            122.7821991

- temperature:        24.0000000
  free_energy:       122.7820216
  entropy:             0.0095157
  heat_capacity:       0.0288682
  energy:            122.7822500

- temperature:        26.0000000
  free_energy:       122.7820000
  entropy:             0.0121304
  heat_capacity:       0.0367841
  energy:            122.7823154

- temperature:        28.0000000
  free_energy:       122.7819728
  entropy:             0.0151869
  heat_capacity:       0.0460532
  energy:            122.7823980

- temperature:        30.0000000
  free_energy:       122.7819389
  entropy:             0.0187216
  heat_capacity:       0.0567924
  energy:            122.7825006

- temperature:        32.0000000
  free_energy:       122.7818975
  entropy:             0.0227716
  heat_capacity:       0.0691218
  energy:            122.7826262

- temperature:        34.0000000
  free_energy:       122.7818475
  entropy:             0.0273745
  heat_capacity:       0.0831659
  energy:            122.7827782

- temperature:        36.0000000
  free_energy:       122.7817876
  entropy:             0.0325688
  heat_capacity:       0.0990534
  energy:            122.7829601

- temperature:        38.0000000
  free_energy:       122.7817168
  entropy:             0.0383937
  heat_capacity:       0.1169183
  energy:            122.7831758

- temperature:        40.0000000
  free_energy:       122.7816336
  entropy:             0.0448896
  heat_capacity:       0.1369011
  energy:            122.7834292

- temperature:        42.0000000
  free_energy:       122.7815368
  entropy:             0.0520978
  heat_capacity:       0.1591490
  energy:            122.7837249

- temperature:        44.0000000
  free_energy:       122.7814247
  entropy:             0.0600611
  heat_capacity:       0.1838176
  energy:            122.7840674

- temperature:        46.0000000
  free_energy:       122.7812960
  entropy:             0.0688235
  heat_capacity:       0.2110716
  energy:            122.7844619

- temperature:        48.0000000
  free_energy:       122.7811489
  entropy:             0.0784306
  heat_capacity:       0.2410861
  energy:            122.7849135

- temperature:        50.0000000
  free_energy:       122.7809817
  entropy:             0.0889301
  heat_capacity:       0.2740475
  energy:            122.7854282

- temperature:        52.0000000
  free_energy:       122.7807925
  entropy:             0.1003713
  heat_capacity:       0.3101541
  energy:            122.7860118

- temperature:        54.0000000
  free_energy:       122.7805795
  entropy:             0.1128057
  heat_capacity:       0.3496171
  energy:            122.7866710

- temperature:        56.0000000
  free_energy:       122.7803406
  entropy:             0.1262872
  heat_capacity:       0.3926606
  energy:            122.7874127

- temperature:        58.0000000
  free_energy:       122.7800736
  entropy:             0.1408720
  heat_capacity:       0.4395217
  energy:            122.7882442

- temperature:        60.0000000
  free_energy:       122.7797763
  entropy:             0.1566190
  heat_capacity:       0.4904504
  energy:            122.7891735

- temperature:        62.0000000
  free_energy:       122.7794463
  entropy:             0.1735896
  heat_capacity:       0.5457086
  energy:            122.7902089

- temperature:        64.0000000
  free_energy:       122.7790811
  entropy:             0.1918478
  heat_capacity:       0.6055697
  energy:            122.7913594

- temperature:        66.0000000
  free_energy:       122.7786780
  entropy:             0.2114604
  heat_capacity:       0.6703170
  energy:            122.7926344

- temperature:        68.0000000
  free_energy:       122.7782343
  entropy:             0.2324967
  heat_capacity:       0.7402425
  energy:            122.7940441

- temperature:        70.0000000
  free_energy:       122.7777471
  entropy:             0.2550285
  heat_capacity:       0.8156452
  energy:            122.7955991

- temperature:        72.0000000
  free_energy:       122.7772132
  entropy:             0.2791301
  heat_capacity:       0.8968296
  energy:            122.7973105

- temperature:        74.0000000
  free_energy:       122.7766294
  entropy:             0.3048782
  heat_capacity:       0.9841037
  energy:            122.7991904

- temperature:        76.0000000
  free_energy:       122.7759925
  entropy:             0.3323515
  heat_capacity:       1.0777771
  energy:            122.8012512

- temperature:        78.0000000
  free_energy:       122.7752988
  entropy:             0.3616305
  heat_capacity:       1.1781594
  energy:            122.8035060

- temperature:        80.0000000
  free_energy:       122.7745447
  entropy:             0.3927976
  heat_capacity:       1.2855585
  energy:            122.8059685

- temperature:        82.0000000
  free_energy:       122.7737263
  entropy:             0.4259366
  heat_capacity:       1.4002783
  energy:            122.8086531

- temperature:        84.0000000
  free_energy:       122.7728396
  entropy:             0.4611324
  heat_capacity:       1.5226179
  energy:            122.8115747

- temperature:        86.0000000
  free_energy:       122.7718804
  entropy:             0.4984710
  heat_capacity:       1.6528695
  energy:            122.8147489

- temperature:        88.0000000
  free_energy:       122.7708442
  entropy:             0.5380390
  heat_capacity:       1.7913173
  energy:            122.8181917

- temperature:        90.0000000
  free_energy:       122.7697267
  entropy:             0.5799236
  heat_capacity:       1.9382363
  energy:            122.8219198

- temperature:        92.0000000
  free_energy:       122.7685229
  entropy:             0.6242119
  heat_capacity:       2.0938912
  energy:            122.8259504

- temperature:        94.0000000
  free_energy:       122.7672282
  entropy:             0.6709913
  heat_capacity:       2.2585353
  energy:            122.8303014

- temperature:        96.0000000
  free_energy:       122.7658373
  entropy:             0.7203487
  heat_capacity:       2.4324101
  energy:            122.8349907

- temperature:        98.0000000
  free_energy:       122.7643450
  entropy:             0.7723705
  heat_capacity:       2.6157443
  energy:            122.8400373

- temperature:       100.0000000
  free_energy:       122.7627459
  entropy:             0.8271422
  heat_capacity:       2.8087533
  energy:            122.8454602

- temperature:       102.0000000
  free_energy:       122.7610345
  entropy:             0.8847486
  heat_capacity:       3.0116391
  energy:            122.8512789

- temperature:       104.0000000
  free_energy:       122.7592050
  entropy:             0.9452733
  heat_capacity:       3.2245896
  energy:            122.8575134

- temperature:       106.0000000
  free_energy:       122.7572514
  entropy:             1.0087985
  heat_capacity:       3.4477786
  energy:            122.8641841

- temperature:       108.0000000
  free_energy:       122.7551678
  entropy:             1.0754048
  heat_capacity:       3.6813656
  energy:            122.8713115

- temperature:       110.0000000
  free_energy:       122.7529477
  entropy:             1.1451714
  heat_capacity:       3.9254958
  energy:            122.8789166

- temperature:       112.0000000
  free_energy:       122.7505849
  entropy:             1.2181756
  heat_capacity:       4.1803001
  energy:            122.8870206

- temperature:       114.0000000
  free_energy:       122.7480728
  entropy:             1.2944927
  heat_capacity:       4.4458950
  energy:            122.8956450

- temperature:       116.0000000
  free_energy:       122.7454047
  entropy:             1.3741960
  heat_capacity:       4.7223830
  energy:            122.9048114

- temperature:       118.0000000
  free_energy:       122.7425737
  entropy:             1.4573568
  heat_capacity:       5.0098524
  energy:            122.9145418

- temperature:       120.0000000
  free_energy:       122.7395729
  entropy:             1.5440441
  heat_capacity:       5.3083780
  energy:            122.9248582

- temperature:       122.0000000
  free_energy:       122.7363951
  entropy:             1.6343246
  heat_capacity:       5.6180207
  energy:            122.9357827

- temperature:       124.0000000
  free_energy:       122.7330332
  entropy:             1.7282626
  heat_capacity:       5.9388282
  energy:            122.9473377

- temperature:       126.0000000
  free_energy:       122.7294796
  entropy:             1.8259199
  heat_capacity:       6.2708350
  energy:            122.9595455

- temperature:       128.0000000
  free_energy:       122.7257270
  entropy:             1.9273561
  heat_capacity:       6.6140629
  energy:            122.9724286

- temperature:       130.0000000
  free_energy:       122.7217676
  entropy:             2.0326279
  heat_capacity:       6.9685210
  energy:            122.9860093

- temperature:       132.0000000
  free_energy:       122.7175939
  entropy:             2.1417898
  heat_capacity:       7.3342064
  energy:            123.0003101

- temperature:       134.0000000
  free_energy:       122.7131978
  entropy:             2.2548934
  heat_capacity:       7.7111040
  energy:            123.0153536

- temperature:       136.0000000
  free_energy:       122.7085716
  entropy:             2.3719879
  heat_capacity:       8.0991874
  energy:            123.0311620

- temperature:       138.0000000
  free_energy:       122.7037072
  entropy:             2.4931199
  heat_capacity:       8.4984188
  energy:            123.0477577

- temperature:       140.0000000
  free_energy:       122.6985964
  entropy:             2.6183331
  heat_capacity:       8.9087494
  energy:            123.0651631

- temperature:       142.0000000
  free_energy:       122.6932311
  entropy:             2.7476689
  heat_capacity:       9.3301199
  energy:            123.0834001

- temperature:       144.0000000
  free_energy:       122.6876030
  entropy:             2.8811658
  heat_capacity:       9.7624606
  energy:            123.1024909

- temperature:       146.0000000
  free_energy:       122.6817037
  entropy:             3.0188599
  heat_capacity:      10.2056922
  energy:            123.1224572

- temperature:       148.0000000
  free_energy:       122.6755247
  entropy:             3.1607845
  heat_capacity:      10.6597256
  energy:            123.1433208

- temperature:       150.0000000
  free_energy:       122.6690577
  entropy:             3.3069704
  heat_capacity:      11.1244626
  energy:            123.1651032

- temperature:       152.0000000
  free_energy:       122.6622940
  entropy:             3.4574458
  heat_capacity:      11.5997960
  energy:            123.1878257

- temperature:       154.0000000
  free_energy:       122.6552250
  entropy:             3.6122363
  heat_capacity:      12.0856103
  energy:            123.2115094

- temperature:       156.0000000
  free_energy:       122.6478421
  entropy:             3.7713651
  heat_capacity:      12.5817819
  energy:            123.2361751

- temperature:       158.0000000
  free_energy:       122.6401367
  entropy:             3.9348526
  heat_capacity:      13.0881792
  energy:            123.2618434

- temperature:       160.0000000
  free_energy:       122.6320998
  entropy:             4.1027170
  heat_capacity:      13.6046634
  energy:            123.2885345

- temperature:       162.0000000
  free_energy:       122.6237229
  entropy:             4.2749740
  heat_capacity:      14.1310887
  energy:            123.3162686

- temperature:       164.0000000
  free_energy:       122.6149970
  entropy:             4.4516368
  heat_capacity:      14.6673024
  energy:            123.3450654

- temperature:       166.0000000
  free_energy:       122.6059134
  entropy:             4.6327163
  heat_capacity:      15.2131457
  energy:            123.3749443

- temperature:       168.0000000
  free_energy:       122.5964632
  entropy:             4.8182211
  heat_capacity:      15.7684537
  energy:            123.4059243

- temperature:       170.0000000
  free_energy:       122.5866375
  entropy:             5.0081574
  heat_capacity:      16.3330560
  energy:            123.4380243

- temperature:       172.0000000
  free_energy:       122.5764276
  entropy:             5.2025292
  heat_capacity:      16.9067770
  energy:            123.4712626

- temperature:       174.0000000
  free_energy:       122.5658245
  entropy:             5.4013385
  heat_capacity:      17.4894360
  energy:            123.5056573

- temperature:       176.0000000
  free_energy:       122.5548193
  entropy:             5.6045848
  heat_capacity:      18.0808480
  energy:            123.5412262

- temperature:       178.0000000
  free_energy:       122.5434032
  entropy:             5.8122657
  heat_capacity:      18.6808236
  energy:            123.5779865

- temperature:       180.0000000
  free_energy:       122.5315673
  entropy:             6.0243767
  heat_capacity:      19.2891699
  energy:            123.6159551

- temperature:       182.0000000
  free_energy:       122.5193027
  entropy:             6.2409114
  heat_capacity:      19.9056901
  energy:            123.6551486

- temperature:       184.0000000
  free_energy:       122.5066007
  entropy:             6.4618613
  heat_capacity:      20.5301844
  energy:            123.6955831

- temperature:       186.0000000
  free_energy:       122.4934523
  entropy:             6.6872160
  heat_capacity:      21.1624501
  energy:            123.7372745

- temperature:       188.0000000
  free_energy:       122.4798489
  entropy:             6.9169634
  heat_capacity:      21.8022821
  energy:            123.7802380

- temperature:       190.0000000
  free_energy:       122.4657815
  entropy:             7.1510894
  heat_capacity:      22.4494729
  energy:            123.8244885

- temperature:       192.0000000
  free_energy:       122.4512416
  entropy:             7.3895783
  heat_capacity:      23.1038132
  energy:            123.8700406

- temperature:       194.0000000
  free_energy:       122.4362203
  entropy:             7.6324128
  heat_capacity:      23.7650921
  energy:            123.9169084

- temperature:       196.0000000
  free_energy:       122.4207091
  entropy:             7.8795736
  heat_capacity:      24.4330973
  energy:            123.9651055

- temperature:       198.0000000
  free_energy:       122.4046992
  entropy:             8.1310403
  heat_capacity:      25.1076155
  energy:            124.0146451

- temperature:       200.0000000
  free_energy:       122.3881821
  entropy:             8.3867905
  heat_capacity:      25.7884326
  energy:            124.0655402

- temperature:       202.0000000
  free_energy:       122.3711492
  entropy:             8.6468008
  heat_capacity:      26.4753339
  energy:            124.1178029

- temperature:       204.0000000
  free_energy:       122.3535920
  entropy:             8.9110460
  heat_capacity:      27.1681048
  energy:            124.1714454

- temperature:       206.0000000
  free_energy:       122.3355022
  entropy:             9.1794997
  heat_capacity:      27.8665303
  energy:            124.2264791

- temperature:       208.0000000
  free_energy:       122.3168712
  entropy:             9.4521342
  heat_capacity:      28.5703957
  energy:            124.2829152

- temperature:       210.0000000
  free_energy:       122.2976909
  entropy:             9.7289205
  heat_capacity:      29.2794871
  energy:            124.3407642

- temperature:       212.0000000
  free_energy:       122.2779528
  entropy:            10.0098285
  heat_capacity:      29.9935908
  energy:            124.4000364

- temperature:       214.0000000
  free_energy:       122.2576488
  entropy:            10.2948267
  heat_capacity:      30.7124943
  energy:            124.4607417

- temperature:       216.0000000
  free_energy:       122.2367708
  entropy:            10.5838828
  heat_capacity:      31.4359861
  energy:            124.5228895

- temperature:       218.0000000
  free_energy:       122.2153106
  entropy:            10.8769633
  heat_capacity:      32.1638559
  energy:            124.5864886

- temperature:       220.0000000
  free_energy:       122.1932603
  entropy:            11.1740336
  heat_capacity:      32.8958951
  energy:            124.6515477

- temperature:       222.0000000
  free_energy:       122.1706118
  entropy:            11.4750585
  heat_capacity:      33.6318963
  energy:            124.7180748

- temperature:       224.0000000
  free_energy:       122.1473574
  entropy:            11.7800015
  heat_capacity:      34.3716544
  energy:            124.7860778

- temperature:       226.0000000
  free_energy:       122.1234893
  entropy:            12.0888255
  heat_capacity:      35.1149658
  energy:            124.8555638

- temperature:       228.0000000
  free_energy:       122.0989996
  entropy:            12.4014925
  heat_capacity:      35.8616292
  energy:            124.9265399

- temperature:       230.0000000
  free_energy:       122.0738808
  entropy:            12.7179639
  heat_capacity:      36.6114455
  energy:            124.9990124

- temperature:       232.0000000
  free_energy:       122.0481252
  entropy:            13.0382001
  heat_capacity:      37.3642179
  energy:            125.0729876

- temperature:       234.0000000
  free_energy:       122.0217255
  entropy:            13.3621610
  heat_capacity:      38.1197521
  energy:            125.1484711

- temperature:       236.0000000
  free_energy:       121.9946741
  entropy:            13.6898061
  heat_capacity:      38.8778563
  energy:            125.2254683

- temperature:       238.0000000
  free_energy:       121.9669638
  entropy:            14.0210939
  heat_capacity:      39.6383414
  energy:            125.3039842

- temperature:       240.0000000
  free_energy:       121.9385873
  entropy:            14.3559827
  heat_capacity:      40.4010212
  energy:            125.3840232

- temperature:       242.0000000
  free_energy:       121.9095375
  entropy:            14.6944301
  heat_capacity:      41.1657120
  energy:            125.4655896

- temperature:       244.0000000
  free_energy:       121.8798073
  entropy:            15.0363933
  heat_capacity:      41.9322333
  energy:            125.5486872

- temperature:       246.0000000
  free_energy:       121.8493896
  entropy:            15.3818293
  heat_capacity:      42.7004077
  energy:            125.6333196

- temperature:       248.0000000
  free_energy:       121.8182777
  entropy:            15.7306943
  heat_capacity:      43.4700604
  energy:            125.7194899

- temperature:       250.0000000
  free_energy:       121.7864646
  entropy:            16.0829446
  heat_capacity:      44.2410201
  energy:            125.8072007

- temperature:       252.0000000
  free_energy:       121.7539437
  entropy:            16.4385359
  heat_capacity:      45.0131185
  energy:            125.8964547

- temperature:       254.0000000
  free_energy:       121.7207082
  entropy:            16.7974237
  heat_capacity:      45.7861906
  energy:            125.9872539

- temperature:       256.0000000
  free_energy:       121.6867518
  entropy:            17.1595633
  heat_capacity:      46.5600745
  energy:            126.0796000

- temperature:       258.0000000
  free_energy:       121.6520679
  entropy:            17.5249098
  heat_capacity:      47.3346117
  energy:            126.1734946

- temperature:       260.0000000
  free_energy:       121.6166501
  entropy:            17.8934182
  heat_capacity:      48.1096468
  energy:            126.2689388

- temperature:       262.0000000
  free_energy:       121.5804921
  entropy:            18.2650431
  heat_capacity:      48.8850280
  energy:            126.3659334

- temperature:       264.0000000
  free_energy:       121.5435878
  entropy:            18.6397394
  heat_capacity:      49.6606065
  energy:            126.4644790

- temperature:       266.0000000
  free_energy:       121.5059311
  entropy:            19.0174614
  heat_capacity:      50.4362371
  energy:            126.5645759

- temperature:       268.0000000
  free_energy:       121.4675160
  entropy:            19.3981639
  heat_capacity:      51.2117779
  energy:            126.6662239

- temperature:       270.0000000
  free_energy:       121.4283365
  entropy:            19.7818011
  heat_capacity:      51.9870901
  energy:            126.7694228

- temperature:       272.0000000
  free_energy:       121.3883869
  entropy:            20.1683278
  heat_capacity:      52.7620386
  energy:            126.8741720

- temperature:       274.0000000
  free_energy:       121.3476613
  entropy:            20.5576983
  heat_capacity:      53.5364914
  energy:            126.9804707

- temperature:       276.0000000
  free_energy:       121.3061542
  entropy:            20.9498673
  heat_capacity:      54.3103199
  energy:            127.0883176

- temperature:       278.0000000
  free_energy:       121.2638600
  entropy:            21.3447893
  heat_capacity:      55.0833988
  energy:            127.1977114

- temperature:       280.0000000
  free_energy:       121.2207732
  entropy:            21.7424191
  heat_capacity:      55.8556061
  energy:            127.3086506

- temperature:       282.0000000
  free_energy:       121.1768886
  entropy:            22.1427115
  heat_capacity:      56.6268230
  energy:            127.4211332

- temperature:       284.0000000
  free_energy:       121.1322007
  entropy:            22.5456215
  heat_capacity:      57.3969340
  energy:            127.5351571

- temperature:       286.0000000
  free_energy:       121.0867044
  entropy:            22.9511041
  heat_capacity:      58.1658269
  energy:            127.6507201

- temperature:       288.0000000
  free_energy:       121.0403946
  entropy:            23.3591146
  heat_capacity:      58.9333926
  energy:            127.7678196

- temperature:       290.0000000
  free_energy:       120.9932662
  entropy:            23.7696086
  heat_capacity:      59.6995251
  energy:            127.8864527

- temperature:       292.0000000
  free_energy:       120.9453145
  entropy:            24.1825416
  heat_capacity:      60.4641218
  energy:            128.0066166

- temperature:       294.0000000
  free_energy:       120.8965345
  entropy:            24.5978696
  heat_capacity:      61.2270828
  energy:            128.1283081

- temperature:       296.0000000
  free_energy:       120.8469214
  entropy:            25.0155486
  heat_capacity:      61.9883117
  energy:            128.2515238

- temperature:       298.0000000
  free_energy:       120.7964707
  entropy:            25.4355350
  heat_capacity:      62.7477147
  energy:            128.3762602

- temperature:       300.0000000
  free_energy:       120.7451778
  entropy:            25.8577854
  heat_capacity:      63.5052013
  energy:            128.5025134

- temperature:       302.0000000
  free_energy:       120.6930381
  entropy:            26.2822566
  heat_capacity:      64.2606838
  energy:            128.6302796

- temperature:       304.0000000
  free_energy:       120.6400473
  entropy:            26.7089060
  heat_capacity:      65.0140773
  energy:            128.7595547

- temperature:       306.0000000
  free_energy:       120.5862011
  entropy:            27.1376909
  heat_capacity:      65.7653000
  energy:            128.8903345

- temperature:       308.0000000
  free_energy:       120.5314952
  entropy:            27.5685691
  heat_capacity:      66.5142728
  energy:            129.0226144

- temperature:       310.0000000
  free_energy:       120.4759254
  entropy:            28.0014987
  heat_capacity:      67.2609192
  energy:            129.1563900

- temperature:       312.0000000
  free_energy:       120.4194878
  entropy:            28.4364381
  heat_capacity:      68.0051656
  energy:            129.2916565

- temperature:       314.0000000
  free_energy:       120.3621784
  entropy:            28.8733461
  heat_capacity:      68.7469411
  energy:            129.4284090

- temperature:       316.0000000
  free_energy:       120.3039932
  entropy:            29.3121818
  heat_capacity:      69.4861773
  energy:            129.5666426

- temperature:       318.0000000
  free_energy:       120.2449284
  entropy:            29.7529045
  heat_capacity:      70.2228084
  energy:            129.7063520

- temperature:       320.0000000
  free_energy:       120.1849803
  entropy:            30.1954742
  heat_capacity:      70.9567713
  energy:            129.8475320

- temperature:       322.0000000
  free_energy:       120.1241453
  entropy:            30.6398510
  heat_capacity:      71.6880051
  energy:            129.9901773

- temperature:       324.0000000
  free_energy:       120.0624197
  entropy:            31.0859953
  heat_capacity:      72.4164516
  energy:            130.1342822

- temperature:       326.0000000
  free_energy:       119.9998001
  entropy:            31.5338683
  heat_capacity:      73.1420547
  energy:            130.2798412

- temperature:       328.0000000
  free_energy:       119.9362831
  entropy:            31.9834310
  heat_capacity:      73.8647608
  energy:            130.4268485

- temperature:       330.0000000
  free_energy:       119.8718653
  entropy:            32.4346453
  heat_capacity:      74.5845187
  energy:            130.5752983

- temperature:       332.0000000
  free_energy:       119.8065435
  entropy:            32.8874732
  heat_capacity:      75.3012793
  energy:            130.7251846

- temperature:       334.0000000
  free_energy:       119.7403144
  entropy:            33.3418772
  heat_capacity:      76.0149955
  energy:            130.8765014

- temperature:       336.0000000
  free_energy:       119.6731749
  entropy:            33.7978201
  heat_capacity:      76.7256227
  energy:            131.0292425

- temperature:       338.0000000
  free_energy:       119.6051221
  entropy:            34.2552653
  heat_capacity:      77.4331183
  energy:            131.1834018

- temperature:       340.0000000
  free_energy:       119.5361529
  entropy:            34.7141764
  heat_capacity:      78.1374414
  energy:            131.3389729

- temperature:       342.0000000
  free_energy:       119.4662644
  entropy:            35.1745174
  heat_capacity:      78.8385536
  energy:            131.4959494

- temperature:       344.0000000
  free_energy:       119.3954539
  entropy:            35.6362529
  heat_capacity:      79.5364181
  energy:            131.6543249

- temperature:       346.0000000
  free_energy:       119.3237185
  entropy:            36.0993478
  heat_capacity:      80.2310001
  energy:            131.8140929

- temperature:       348.0000000
  free_energy:       119.2510556
  entropy:            36.5637675
  heat_capacity:      80.9222668
  energy:            131.9752467

- temperature:       350.0000000
  free_energy:       119.1774626
  entropy:            37.0294775
  heat_capacity:      81.6101869
  energy:            132.1377797

- temperature:       352.0000000
  free_energy:       119.1029369
  entropy:            37.4964441
  heat_capacity:      82.2947311
  energy:            132.3016852

- temperature:       354.0000000
  free_energy:       119.0274760
  entropy:            37.9646338
  heat_capacity:      82.9758717
  energy:            132.4669564

- temperature:       356.0000000
  free_energy:       118.9510775
  entropy:            38.4340136