<?xml version="1.0" encoding="ISO-8859-1"?>
<modeling>
 <generator>
  <i name="program" type="string">vasp </i>
  <i name="version" type="string">5.4.4.18Apr17-6-g9f103f2a35  </i>
  <i name="subversion" type="string">(build Mar 12 2022 03:36:41) complex            parallel </i>
  <i name="platform" type="string">IFC19.0.3.199_CrayMPICH7.7.19 </i>
  <i name="date" type="string">2022 12 01 </i>
  <i name="time" type="string">08:13:44 </i>
 </generator>
 <incar>
  <i type="string" name="PREC">accurate</i>
  <i type="int" name="IALGO">    38</i>
  <i type="logical" name="ADDGRID"> T  </i>
  <i type="int" name="IBRION">     8</i>
  <i name="EDIFF">      0.00000001</i>
  <i type="logical" name="LREAL"> F  </i>
  <i type="int" name="ISMEAR">     0</i>
  <i name="SIGMA">      0.06000000</i>
  <i type="logical" name="LWAVE"> F  </i>
  <i type="logical" name="LCHARG"> F  </i>
  <v type="int" name="KPOINT_BSE">    -1     0     0     0</v>
 </incar>
 <structure name="primitive_cell" >
  <crystal>
   <varray name="basis" >
    <v>       1.85695400       1.85695400       0.00000000 </v>
    <v>       1.85695400       0.00000000      -1.85695400 </v>
    <v>       0.00000000       1.85695400      -1.85695400 </v>
   </varray>
   <i name="volume">     12.80658784 </i>
   <varray name="rec_basis" >
    <v>       0.26925815       0.26925815       0.26925815 </v>
    <v>       0.26925815      -0.26925815      -0.26925815 </v>
    <v>      -0.26925815       0.26925815      -0.26925815 </v>
   </varray>
  </crystal>
  <varray name="positions" >
   <v>       0.25000000       0.25000000       0.25000000 </v>
   <v>      -0.50000000      -0.50000000      -0.50000000 </v>
  </varray>
 </structure>
 <varray name="primitive_index" >
  <v type="int" >        1 </v>
  <v type="int" >       11 </v>
 </varray>
 <kpoints>
  <generation param="Gamma">
   <v type="int" name="divisions">       8        8        8 </v>
   <v name="usershift">      0.00000000       0.00000000       0.00000000 </v>
   <v name="genvec1">      0.12500000       0.00000000       0.00000000 </v>
   <v name="genvec2">      0.00000000       0.12500000       0.00000000 </v>
   <v name="genvec3">      0.00000000       0.00000000       0.12500000 </v>
   <v name="shift">      0.00000000       0.00000000       0.00000000 </v>
  </generation>
  <varray name="kpointlist" >
   <v>       0.00000000       0.00000000       0.00000000 </v>
   <v>       0.12500000       0.00000000       0.00000000 </v>
   <v>       0.25000000       0.00000000       0.00000000 </v>
   <v>       0.37500000       0.00000000       0.00000000 </v>
   <v>       0.50000000       0.00000000       0.00000000 </v>
   <v>       0.12500000       0.12500000       0.00000000 </v>
   <v>       0.25000000       0.12500000       0.00000000 </v>
   <v>       0.37500000       0.12500000       0.00000000 </v>
   <v>       0.50000000       0.12500000       0.00000000 </v>
   <v>       0.25000000       0.25000000       0.00000000 </v>
   <v>       0.37500000       0.25000000       0.00000000 </v>
   <v>       0.50000000       0.25000000       0.00000000 </v>
   <v>       0.37500000       0.37500000       0.00000000 </v>
   <v>       0.50000000       0.37500000       0.00000000 </v>
   <v>       0.50000000       0.50000000       0.00000000 </v>
   <v>       0.12500000       0.12500000       0.12500000 </v>
   <v>       0.25000000       0.12500000       0.12500000 </v>
   <v>       0.37500000       0.12500000       0.12500000 </v>
   <v>       0.50000000       0.12500000       0.12500000 </v>
   <v>       0.25000000       0.25000000       0.12500000 </v>
   <v>       0.37500000       0.25000000       0.12500000 </v>
   <v>       0.50000000       0.25000000       0.12500000 </v>
   <v>       0.37500000       0.37500000       0.12500000 </v>
   <v>       0.50000000       0.37500000       0.12500000 </v>
   <v>       0.50000000       0.50000000       0.12500000 </v>
   <v>       0.25000000       0.25000000       0.25000000 </v>
   <v>       0.37500000       0.25000000       0.25000000 </v>
   <v>       0.50000000       0.25000000       0.25000000 </v>
   <v>       0.37500000       0.37500000       0.25000000 </v>
   <v>       0.50000000       0.37500000       0.25000000 </v>
   <v>       0.50000000       0.50000000       0.25000000 </v>
   <v>       0.37500000       0.37500000       0.37500000 </v>
   <v>       0.50000000       0.37500000       0.37500000 </v>
   <v>       0.50000000       0.50000000       0.37500000 </v>
   <v>       0.50000000       0.50000000       0.50000000 </v>
  </varray>
  <varray name="weights" >
   <v>       0.00195312 </v>
   <v>       0.01171875 </v>
   <v>       0.01171875 </v>
   <v>       0.01171875 </v>
   <v>       0.00585938 </v>
   <v>       0.02343750 </v>
   <v>       0.04687500 </v>
   <v>       0.04687500 </v>
   <v>       0.02343750 </v>
   <v>       0.02343750 </v>
   <v>       0.04687500 </v>
   <v>       0.02343750 </v>
   <v>       0.02343750 </v>
   <v>       0.02343750 </v>
   <v>       0.00585938 </v>
   <v>       0.01562500 </v>
   <v>       0.04687500 </v>
   <v>       0.04687500 </v>
   <v>       0.02343750 </v>
   <v>       0.04687500 </v>
   <v>       0.09375000 </v>
   <v>       0.04687500 </v>
   <v>       0.04687500 </v>
   <v>       0.04687500 </v>
   <v>       0.01171875 </v>
   <v>       0.01562500 </v>
   <v>       0.04687500 </v>
   <v>       0.02343750 </v>
   <v>       0.04687500 </v>
   <v>       0.04687500 </v>
   <v>       0.01171875 </v>
   <v>       0.01562500 </v>
   <v>       0.02343750 </v>
   <v>       0.01171875 </v>
   <v>       0.00195312 </v>
  </varray>
 </kpoints>
 <parameters>
  <separator name="general" >
   <i type="string" name="SYSTEM">unknown system</i>
   <i type="logical" name="LCOMPAT"> F  </i>
  </separator>
  <separator name="electronic" >
   <i type="string" name="PREC">accura</i>
   <i name="ENMAX">    400.00000000</i>
   <i name="ENAUG">    644.87300000</i>
   <i name="EDIFF">      0.00000001</i>
   <i type="int" name="IALGO">    38</i>
   <i type="int" name="IWAVPR">    11</i>
   <i type="int" name="NBANDS">   192</i>
   <i name="NELECT">    256.00000000</i>
   <i type="int" name="TURBO">     0</i>
   <i type="int" name="IRESTART">     0</i>
   <i type="int" name="NREBOOT">     0</i>
   <i type="int" name="NMIN">     0</i>
   <i name="EREF">      0.00000000</i>
   <separator name="electronic smearing" >
    <i type="int" name="ISMEAR">     0</i>
    <i name="SIGMA">      0.06000000</i>
    <i name="KSPACING">      0.50000000</i>
    <i type="logical" name="KGAMMA"> T  </i>
   </separator>
   <separator name="electronic projectors" >
    <i type="logical" name="LREAL"> F  </i>
    <v name="ROPT">      0.00000000</v>
    <i type="int" name="LMAXPAW">  -100</i>
    <i type="int" name="LMAXMIX">     2</i>
    <i type="logical" name="NLSPLINE"> F  </i>
   </separator>
   <separator name="electronic startup" >
    <i type="int" name="ISTART">     0</i>
    <i type="int" name="ICHARG">     2</i>
    <i type="int" name="INIWAV">     1</i>
   </separator>
   <separator name="electronic spin" >
    <i type="int" name="ISPIN">     1</i>
    <i type="logical" name="LNONCOLLINEAR"> F  </i>
    <v name="MAGMOM">      1.00000000      1.00000000      1.00000000      1.00000000      1.00000000      1.00000000      1.00000000      1.00000000      1.00000000      1.00000000      1.00000000      1.00000000      1.00000000      1.00000000      1.00000000      1.00000000      1.00000000      1.00000000      1.00000000      1.00000000
      1.00000000      1.00000000      1.00000000      1.00000000      1.00000000      1.00000000      1.00000000      1.00000000      1.00000000      1.00000000      1.00000000      1.00000000      1.00000000      1.00000000      1.00000000      1.00000000      1.00000000      1.00000000      1.00000000      1.00000000
      1.00000000      1.00000000      1.00000000      1.00000000      1.00000000      1.00000000      1.00000000      1.00000000      1.00000000      1.00000000      1.00000000      1.00000000      1.00000000      1.00000000      1.00000000      1.00000000      1.00000000      1.00000000      1.00000000      1.00000000
      1.00000000      1.00000000      1.00000000      1.00000000</v>
    <i name="NUPDOWN">     -1.00000000</i>
    <i type="logical" name="LSORBIT"> F  </i>
    <v name="SAXIS">      0.00000000      0.00000000      1.00000000</v>
    <i type="logical" name="LSPIRAL"> F  </i>
    <v name="QSPIRAL">      0.00000000      0.00000000      0.00000000</v>
    <i type="logical" name="LZEROZ"> F  </i>
   </separator>
   <separator name="electronic exchange-correlation" >
    <i type="logical" name="LASPH"> F  </i>
    <i type="logical" name="LMETAGGA"> F  </i>
   </separator>
   <separator name="electronic convergence" >
    <i type="int" name="NELM">    60</i>
    <i type="int" name="NELMDL">    -5</i>
    <i type="int" name="NELMIN">     2</i>
    <i name="ENINI">    400.00000000</i>
    <separator name="electronic convergence detail" >
     <i type="logical" name="LDIAG"> T  </i>
     <i type="logical" name="LSUBROT"> F  </i>
     <i name="WEIMIN">      0.00100000</i>
     <i name="EBREAK">      0.00000000</i>
     <i name="DEPER">      0.30000000</i>
     <i type="int" name="NRMM">     4</i>
     <i name="TIME">      0.40000000</i>
    </separator>
   </separator>
   <separator name="electronic mixer" >
    <i name="AMIX">      0.40000000</i>
    <i name="BMIX">      1.00000000</i>
    <i name="AMIN">      0.10000000</i>
    <i name="AMIX_MAG">      1.60000000</i>
    <i name="BMIX_MAG">      1.00000000</i>
    <separator name="electronic mixer details" >
     <i type="int" name="IMIX">     4</i>
     <i type="logical" name="MIXFIRST"> F  </i>
     <i type="int" name="MAXMIX">   -45</i>
     <i name="WC">    100.00000000</i>
     <i type="int" name="INIMIX">     1</i>
     <i type="int" name="MIXPRE">     1</i>
     <i type="int" name="MREMOVE">     5</i>
    </separator>
   </separator>
   <separator name="electronic dipolcorrection" >
    <i type="logical" name="LDIPOL"> F  </i>
    <i type="logical" name="LMONO"> F  </i>
    <i type="int" name="IDIPOL">     0</i>
    <i name="EPSILON">      1.00000000</i>
    <v name="DIPOL">   -100.00000000   -100.00000000   -100.00000000</v>
    <i name="EFIELD">      0.00000000</i>
   </separator>
  </separator>
  <separator name="grids" >
   <i type="int" name="NGX">    48</i>
   <i type="int" name="NGY">    48</i>
   <i type="int" name="NGZ">    48</i>
   <i type="int" name="NGXF">    96</i>
   <i type="int" name="NGYF">    96</i>
   <i type="int" name="NGZF">    96</i>
   <i type="logical" name="ADDGRID"> T  </i>
  </separator>
  <separator name="ionic" >
   <i type="int" name="NSW">     1</i>
   <i type="int" name="IBRION">     8</i>
   <i type="int" name="MDALGO">     0</i>
   <i type="int" name="ISIF">     2</i>
   <i name="PSTRESS">      0.00000000</i>
   <i name="EDIFFG">      0.00000010</i>
   <i type="int" name="NFREE">     0</i>
   <i name="POTIM">      0.50000000</i>
   <i name="SMASS">     -3.00000000</i>
   <i name="SCALEE">      1.00000000</i>
  </separator>
  <separator name="ionic md" >
   <i name="TEBEG">      0.00010000</i>
   <i name="TEEND">      0.00010000</i>
   <i type="int" name="NBLOCK">     1</i>
   <i type="int" name="KBLOCK">     1</i>
   <i type="int" name="NPACO">   256</i>
   <i name="APACO">     16.00000000</i>
  </separator>
  <separator name="symmetry" >
   <i type="int" name="ISYM">     2</i>
   <i name="SYMPREC">      0.00001000</i>
  </separator>
  <separator name="dos" >
   <i type="int" name="LORBIT">     0</i>
   <v name="RWIGS">     -1.00000000</v>
   <i type="int" name="NEDOS">   301</i>
   <i name="EMIN">     10.00000000</i>
   <i name="EMAX">    -10.00000000</i>
   <i name="EFERMI">      0.00000000</i>
  </separator>
  <separator name="writing" >
   <i type="int" name="NWRITE">     2</i>
   <i type="logical" name="LWAVE"> F  </i>
   <i type="logical" name="LDOWNSAMPLE"> F  </i>
   <i type="logical" name="LCHARG"> F  </i>
   <i type="logical" name="LPARD"> F  </i>
   <i type="logical" name="LVTOT"> F  </i>
   <i type="logical" name="LVHAR"> F  </i>
   <i type="logical" name="LELF"> F  </i>
   <i type="logical" name="LOPTICS"> F  </i>
   <v name="STM">      0.00000000      0.00000000      0.00000000      0.00000000      0.00000000      0.00000000      0.00000000</v>
  </separator>
  <separator name="performance" >
   <i type="int" name="NPAR">    32</i>
   <i type="int" name="NSIM">     4</i>
   <i type="int" name="NBLK">    -1</i>
   <i type="logical" name="LPLANE"> T  </i>
   <i type="logical" name="LSCALAPACK"> T  </i>
   <i type="logical" name="LSCAAWARE"> F  </i>
   <i type="logical" name="LSCALU"> F  </i>
   <i type="logical" name="LASYNC"> F  </i>
   <i type="logical" name="LORBITALREAL"> F  </i>
  </separator>
  <separator name="miscellaneous" >
   <i type="int" name="IDIOT">     3</i>
   <i type="int" name="ISPECIAL">     0</i>
   <i type="logical" name="LMUSIC"> F  </i>
   <v name="POMASS">     12.01100000</v>
   <v name="DARWINR">      0.00000000</v>
   <v name="DARWINV">      1.00000000</v>
   <i type="logical" name="LCORR"> T  </i>
  </separator>
  <i type="logical" name="GGA_COMPAT"> T  </i>
  <i type="logical" name="LBERRY"> F  </i>
  <i type="int" name="ICORELEVEL">     0</i>
  <i type="logical" name="LDAU"> F  </i>
  <i type="int" name="I_CONSTRAINED_M">     0</i>
  <separator name="electronic exchange-correlation" >
   <i type="string" name="GGA">--</i>
   <i type="int" name="VOSKOWN">     0</i>
   <i type="logical" name="LHFCALC"> F  </i>
   <i type="string" name="PRECFOCK"></i>
   <i type="logical" name="LSYMGRAD"> F  </i>
   <i type="logical" name="LHFONE"> F  </i>
   <i type="logical" name="LRHFCALC"> F  </i>
   <i type="logical" name="LTHOMAS"> F  </i>
   <i type="logical" name="LMODELHF"> F  </i>
   <i name="ENCUT4O">     -1.00000000</i>
   <i type="int" name="EXXOEP">     0</i>
   <i type="int" name="FOURORBIT">     0</i>
   <i name="AEXX">      0.00000000</i>
   <i name="HFALPHA">      0.00000000</i>
   <i name="MCALPHA">      0.00000000</i>
   <i name="ALDAX">      1.00000000</i>
   <i name="AGGAX">      1.00000000</i>
   <i name="ALDAC">      1.00000000</i>
   <i name="AGGAC">      1.00000000</i>
   <i type="int" name="NKREDX">     1</i>
   <i type="int" name="NKREDY">     1</i>
   <i type="int" name="NKREDZ">     1</i>
   <i type="logical" name="SHIFTRED"> F  </i>
   <i type="logical" name="ODDONLY"> F  </i>
   <i type="logical" name="EVENONLY"> F  </i>
   <i type="int" name="LMAXFOCK">     0</i>
   <i type="int" name="NMAXFOCKAE">     0</i>
   <i type="logical" name="LFOCKAEDFT"> F  </i>
   <i name="HFSCREEN">      0.00000000</i>
   <i name="HFSCREENC">      0.00000000</i>
   <i type="int" name="NBANDSGWLOW">     0</i>
  </separator>
  <separator name="vdW DFT" >
   <i type="logical" name="LUSE_VDW"> F  </i>
   <i name="Zab_VDW">     -0.84910000</i>
   <i name="PARAM1">      0.12340000</i>
   <i name="PARAM2">      1.00000000</i>
   <i name="PARAM3">      0.00000000</i>
  </separator>
  <separator name="model GW" >
   <i type="int" name="MODEL_GW">     0</i>
   <i name="MODEL_EPS0">      3.84197635</i>
   <i name="MODEL_ALPHA">      1.00000000</i>
  </separator>
  <separator name="linear response parameters" >
   <i type="logical" name="LEPSILON"> F  </i>
   <i type="logical" name="LRPA"> F  </i>
   <i type="logical" name="LNABLA"> F  </i>
   <i type="logical" name="LVEL"> F  </i>
   <i type="int" name="KINTER">     0</i>
   <i name="CSHIFT">      0.10000000</i>
   <i name="OMEGAMAX">     -1.00000000</i>
   <i name="DEG_THRESHOLD">      0.00200000</i>
   <i name="RTIME">     -0.10000000</i>
   <i name="WPLASMAI">      0.00000000</i>
   <v name="DFIELD">      0.00000000      0.00000000      0.00000000</v>
   <v name="WPLASMA">      0.00000000      0.00000000      0.00000000      0.00000000      0.00000000      0.00000000      0.00000000      0.00000000      0.00000000</v>
  </separator>
  <separator name="orbital magnetization" >
   <i type="logical" name="NUCIND"> F  </i>
   <v name="MAGPOS">      0.00000000      0.00000000      0.00000000</v>
   <i type="logical" name="LNICSALL"> T  </i>
   <i type="logical" name="ORBITALMAG"> F  </i>
   <i type="logical" name="LMAGBLOCH"> F  </i>
   <i type="logical" name="LCHIMAG"> F  </i>
   <i type="logical" name="LGAUGE"> T  </i>
   <i type="int" name="MAGATOM">     0</i>
   <v name="MAGDIPOL">      0.00000000      0.00000000      0.00000000</v>
   <v name="AVECCONST">      0.00000000      0.00000000      0.00000000</v>
  </separator>
  <separator name="response functions" >
   <i type="logical" name="LADDER"> F  </i>
   <i type="logical" name="LRPAFORCE"> F  </i>
   <i type="logical" name="LFXC"> F  </i>
   <i type="logical" name="LHARTREE"> T  </i>
   <i type="int" name="IBSE">     0</i>
   <v type="int" name="KPOINT">    -1     0     0     0</v>
   <i type="logical" name="LTCTE"> F  </i>
   <i type="logical" name="LTETE"> F  </i>
   <i type="logical" name="LTRIPLET"> F  </i>
   <i type="logical" name="LFXCEPS"> F  </i>
   <i type="logical" name="LFXHEG"> F  </i>
   <i type="int" name="NATURALO">     2</i>
   <i type="logical" name="L2ORDER"> F  </i>
   <i type="logical" name="LMP2LT"> F  </i>
   <i type="logical" name="LUSEW"> F  </i>
   <i name="ENCUTGW">     -2.00000000</i>
   <i name="ENCUTGWSOFT">     -2.00000000</i>
   <i name="ENCUTLF">     -1.00000000</i>
   <i type="int" name="LMAXMP2">    -1</i>
   <i name="SCISSOR">      0.00000000</i>
   <i type="int" name="NOMEGA">     0</i>
   <i type="int" name="NOMEGAR">     0</i>
   <i type="int" name="NBANDSGW">    -1</i>
   <i type="int" name="NBANDSO">    -1</i>
   <i type="int" name="NBANDSV">    -1</i>
   <i type="int" name="NELM">     1</i>
   <i type="int" name="NELMHF">     1</i>
   <i type="int" name="DIM">     3</i>
   <i type="int" name="ANTIRES">     0</i>
   <i name="OMEGAMAX">    -30.00000000</i>
   <i name="OMEGAMIN">    -30.00000000</i>
   <i name="OMEGATL">   -200.00000000</i>
   <i type="int" name="OMEGAGRID">   140</i>
   <i name="CSHIFT">     -0.10000000</i>
   <i type="logical" name="SELFENERGY"> F  </i>
   <i type="logical" name="LSPECTRAL"> F  </i>
   <i type="logical" name="LSPECTRALGW"> F  </i>
   <i type="logical" name="LSINGLES"> F  </i>
   <i type="logical" name="LFERMIGW"> F  </i>
   <i type="logical" name="ODDONLYGW"> F  </i>
   <i type="logical" name="EVENONLYGW"> F  </i>
   <i type="int" name="NKREDLFX">     1</i>
   <i type="int" name="NKREDLFY">     1</i>
   <i type="int" name="NKREDLFZ">     1</i>
   <i type="int" name="MAXMEM">  2800</i>
   <i type="int" name="TELESCOPE">     0</i>
   <i type="int" name="TAUPAR">     1</i>
   <i type="int" name="OMEGAPAR">    -1</i>
   <i name="LAMBDA">      1.00000000</i>
  </separator>
  <separator name="External order field" >
   <i name="OFIELD_KAPPA">      0.00000000</i>
   <v name="OFIELD_K">      0.00000000      0.00000000      0.00000000</v>
   <i name="OFIELD_Q6_NEAR">      0.00000000</i>
   <i name="OFIELD_Q6_FAR">      0.00000000</i>
   <i name="OFIELD_A">      0.00000000</i>
  </separator>
 </parameters>
 <atominfo>
  <atoms>      64 </atoms>
  <types>       1 </types>
  <array name="atoms" >
   <dimension dim="1">ion</dimension>
   <field type="string">element</field>
   <field type="int">atomtype</field>
   <set>
    <rc><c>C </c><c>   1</c></rc>
    <rc><c>C </c><c>   1</c></rc>
    <rc><c>C </c><c>   1</c></rc>
    <rc><c>C </c><c>   1</c></rc>
    <rc><c>C </c><c>   1</c></rc>
    <rc><c>C </c><c>   1</c></rc>
    <rc><c>C </c><c>   1</c></rc>
    <rc><c>C </c><c>   1</c></rc>
    <rc><c>C </c><c>   1</c></rc>
    <rc><c>C </c><c>   1</c></rc>
    <rc><c>C </c><c>   1</c></rc>
    <rc><c>C </c><c>   1</c></rc>
    <rc><c>C </c><c>   1</c></rc>
    <rc><c>C </c><c>   1</c></rc>
    <rc><c>C </c><c>   1</c></rc>
    <rc><c>C </c><c>   1</c></rc>
    <rc><c>C </c><c>   1</c></rc>
    <rc><c>C </c><c>   1</c></rc>
    <rc><c>C </c><c>   1</c></rc>
    <rc><c>C </c><c>   1</c></rc>
    <rc><c>C </c><c>   1</c></rc>
    <rc><c>C </c><c>   1</c></rc>
    <rc><c>C </c><c>   1</c></rc>
    <rc><c>C </c><c>   1</c></rc>
    <rc><c>C </c><c>   1</c></rc>
    <rc><c>C </c><c>   1</c></rc>
    <rc><c>C </c><c>   1</c></rc>
    <rc><c>C </c><c>   1</c></rc>
    <rc><c>C </c><c>   1</c></rc>
    <rc><c>C </c><c>   1</c></rc>
    <rc><c>C </c><c>   1</c></rc>
    <rc><c>C </c><c>   1</c></rc>
    <rc><c>C </c><c>   1</c></rc>
    <rc><c>C </c><c>   1</c></rc>
    <rc><c>C </c><c>   1</c></rc>
    <rc><c>C </c><c>   1</c></rc>
    <rc><c>C </c><c>   1</c></rc>
    <rc><c>C </c><c>   1</c></rc>
    <rc><c>C </c><c>   1</c></rc>
    <rc><c>C </c><c>   1</c></rc>
    <rc><c>C </c><c>   1</c></rc>
    <rc><c>C </c><c>   1</c></rc>
    <rc><c>C </c><c>   1</c></rc>
    <rc><c>C </c><c>   1</c></rc>
    <rc><c>C </c><c>   1</c></rc>
    <rc><c>C </c><c>   1</c></rc>
    <rc><c>C </c><c>   1</c></rc>
    <rc><c>C </c><c>   1</c></rc>
    <rc><c>C </c><c>   1</c></rc>
    <rc><c>C </c><c>   1</c></rc>
    <rc><c>C </c><c>   1</c></rc>
    <rc><c>C </c><c>   1</c></rc>
    <rc><c>C </c><c>   1</c></rc>
    <rc><c>C </c><c>   1</c></rc>
    <rc><c>C </c><c>   1</c></rc>
    <rc><c>C </c><c>   1</c></rc>
    <rc><c>C </c><c>   1</c></rc>
    <rc><c>C </c><c>   1</c></rc>
    <rc><c>C </c><c>   1</c></rc>
    <rc><c>C </c><c>   1</c></rc>
    <rc><c>C </c><c>   1</c></rc>
    <rc><c>C </c><c>   1</c></rc>
    <rc><c>C </c><c>   1</c></rc>
    <rc><c>C </c><c>   1</c></rc>
   </set>
  </array>
  <array name="atomtypes" >
   <dimension dim="1">type</dimension>
   <field type="int">atomspertype</field>
   <field type="string">element</field>
   <field>mass</field>
   <field>valence</field>
   <field type="string">pseudopotential</field>
   <set>
    <rc><c>  64</c><c>C </c><c>     12.01100000</c><c>      4.00000000</c><c> PAW_PBE C 08Apr2002                    </c></rc>
   </set>
  </array>
 </atominfo>
 <structure name="initialpos" >
  <crystal>
   <varray name="basis" >
    <v>       7.42781600       0.00000000       0.00000000 </v>
    <v>       0.00000000       7.42781600       0.00000000 </v>
    <v>       0.00000000       0.00000000       7.42781600 </v>
   </varray>
   <i name="volume">    409.81081080 </i>
   <varray name="rec_basis" >
    <v>       0.13462908       0.00000000       0.00000000 </v>
    <v>       0.00000000       0.13462908       0.00000000 </v>
    <v>       0.00000000       0.00000000       0.13462908 </v>
   </varray>
  </crystal>
  <varray name="positions" >
   <v>       0.12500000       0.37500000       0.12500000 </v>
   <v>       0.62500000       0.37500000       0.12500000 </v>
   <v>       0.12500000       0.87500000       0.12500000 </v>
   <v>       0.62500000       0.87500000       0.12500000 </v>
   <v>       0.12500000       0.37500000       0.62500000 </v>
   <v>       0.62500000       0.37500000       0.62500000 </v>
   <v>       0.12500000       0.87500000       0.62500000 </v>
   <v>       0.62500000       0.87500000       0.62500000 </v>
   <v>       0.00000000       0.00000000       0.25000000 </v>
   <v>       0.50000000       0.00000000       0.25000000 </v>
   <v>       0.00000000       0.50000000       0.25000000 </v>
   <v>       0.50000000       0.50000000       0.25000000 </v>
   <v>       0.00000000       0.00000000       0.75000000 </v>
   <v>       0.50000000       0.00000000       0.75000000 </v>
   <v>       0.00000000       0.50000000       0.75000000 </v>
   <v>       0.50000000       0.50000000       0.75000000 </v>
   <v>       0.12500000       0.12500000       0.37500000 </v>
   <v>       0.62500000       0.12500000       0.37500000 </v>
   <v>       0.12500000       0.62500000       0.37500000 </v>
   <v>       0.62500000       0.62500000       0.37500000 </v>
   <v>       0.12500000       0.12500000       0.87500000 </v>
   <v>       0.62500000       0.12500000       0.87500000 </v>
   <v>       0.12500000       0.62500000       0.87500000 </v>
   <v>       0.62500000       0.62500000       0.87500000 </v>
   <v>       0.00000000       0.25000000       0.00000000 </v>
   <v>       0.50000000       0.25000000       0.00000000 </v>
   <v>       0.00000000       0.75000000       0.00000000 </v>
   <v>       0.50000000       0.75000000       0.00000000 </v>
   <v>       0.00000000       0.25000000       0.50000000 </v>
   <v>       0.50000000       0.25000000       0.50000000 </v>
   <v>       0.00000000       0.75000000       0.50000000 </v>
   <v>       0.50000000       0.75000000       0.50000000 </v>
   <v>       0.37500000       0.37500000       0.37500000 </v>
   <v>       0.87500000       0.37500000       0.37500000 </v>
   <v>       0.37500000       0.87500000       0.37500000 </v>
   <v>       0.87500000       0.87500000       0.37500000 </v>
   <v>       0.37500000       0.37500000       0.87500000 </v>
   <v>       0.87500000       0.37500000       0.87500000 </v>
   <v>       0.37500000       0.87500000       0.87500000 </v>
   <v>       0.87500000       0.87500000       0.87500000 </v>
   <v>       0.25000000       0.00000000       0.00000000 </v>
   <v>       0.75000000       0.00000000       0.00000000 </v>
   <v>       0.25000000       0.50000000       0.00000000 </v>
   <v>       0.75000000       0.50000000       0.00000000 </v>
   <v>       0.25000000       0.00000000       0.50000000 </v>
   <v>       0.75000000       0.00000000       0.50000000 </v>
   <v>       0.25000000       0.50000000       0.50000000 </v>
   <v>       0.75000000       0.50000000       0.50000000 </v>
   <v>       0.37500000       0.12500000       0.12500000 </v>
   <v>       0.87500000       0.12500000       0.12500000 </v>
   <v>       0.37500000       0.62500000       0.12500000 </v>
   <v>       0.87500000       0.62500000       0.12500000 </v>
   <v>       0.37500000       0.12500000       0.62500000 </v>
   <v>       0.87500000       0.12500000       0.62500000 </v>
   <v>       0.37500000       0.62500000       0.62500000 </v>
   <v>       0.87500000       0.62500000       0.62500000 </v>
   <v>       0.25000000       0.25000000       0.25000000 </v>
   <v>       0.75000000       0.25000000       0.25000000 </v>
   <v>       0.25000000       0.75000000       0.25000000 </v>
   <v>       0.75000000       0.75000000       0.25000000 </v>
   <v>       0.25000000       0.25000000       0.75000000 </v>
   <v>       0.75000000       0.25000000       0.75000000 </v>
   <v>       0.25000000       0.75000000       0.75000000 </v>
   <v>       0.75000000       0.75000000       0.75000000 </v>
  </varray>
 </structure>
 <calculation>
  <scstep>
   <time name="dav">   23.70   23.72</time>
   <time name="total">   23.81   23.85</time>
   <energy>
    <i name="alphaZ">    814.38249784 </i>
    <i name="ewald"> -10693.64256698 </i>
    <i name="hartreedc">   -652.17482699 </i>
    <i name="XCdc">    891.38422840 </i>
    <i name="pawpsdc">   2421.21235816 </i>
    <i name="pawaedc">  -2494.84305711 </i>
    <i name="eentropy">     -0.01285017 </i>
    <i name="bandstr">    798.03599367 </i>
    <i name="atom">   9416.14232778 </i>
    <i name="e_fr_energy">    500.48410458 </i>
    <i name="e_wo_entrp">    500.49695475 </i>
    <i name="e_0_energy">    500.49052967 </i>
   </energy>
  </scstep>
  <scstep>
   <time name="dav">   29.94   29.94</time>
   <time name="total">   29.94   29.95</time>
   <energy>
    <i name="e_fr_energy">   -544.80660527 </i>
    <i name="e_wo_entrp">   -544.80660527 </i>
    <i name="e_0_energy">   -544.80660527 </i>
   </energy>
  </scstep>
  <scstep>
   <time name="dav">   30.53   30.53</time>
   <time name="total">   30.53   30.54</time>
   <energy>
    <i name="e_fr_energy">   -588.75312055 </i>
    <i name="e_wo_entrp">   -588.75312055 </i>
    <i name="e_0_energy">   -588.75312055 </i>
   </energy>
  </scstep>
  <scstep>
   <time name="dav">   31.36   31.36</time>
   <time name="total">   31.37   31.37</time>
   <energy>
    <i name="e_fr_energy">   -589.33066868 </i>
    <i name="e_wo_entrp">   -589.33066868 </i>
    <i name="e_0_energy">   -589.33066868 </i>
   </energy>
  </scstep>
  <scstep>
   <time name="dav">   28.55   28.56</time>
   <time name="total">   29.27   29.27</time>
   <energy>
    <i name="e_fr_energy">   -589.34084171 </i>
    <i name="e_wo_entrp">   -589.34084171 </i>
    <i name="e_0_energy">   -589.34084171 </i>
   </energy>
  </scstep>
  <scstep>
   <time name="dav">   28.56   28.57</time>
   <time name="total">   29.39   29.39</time>
   <energy>
    <i name="e_fr_energy">   -579.19207824 </i>
    <i name="e_wo_entrp">   -579.19207824 </i>
    <i name="e_0_energy">   -579.19207824 </i>
   </energy>
  </scstep>
  <scstep>
   <time name="dav">   28.56   28.56</time>
   <time name="total">   29.37   29.38</time>
   <energy>
    <i name="e_fr_energy">   -575.75440709 </i>
    <i name="e_wo_entrp">   -575.75440709 </i>
    <i name="e_0_energy">   -575.75440709 </i>
   </energy>
  </scstep>
  <scstep>
   <time name="dav">   29.14   29.14</time>
   <time name="total">   29.96   29.96</time>
   <energy>
    <i name="e_fr_energy">   -575.80197121 </i>
    <i name="e_wo_entrp">   -575.80197121 </i>
    <i name="e_0_energy">   -575.80197121 </i>
   </energy>
  </scstep>
  <scstep>
   <time name="dav">   30.01   30.01</time>
   <time name="total">   30.83   30.84</time>
   <energy>
    <i name="e_fr_energy">   -575.80417172 </i>
    <i name="e_wo_entrp">   -575.80417172 </i>
    <i name="e_0_energy">   -575.80417172 </i>
   </energy>
  </scstep>
  <scstep>
   <time name="dav">   28.47   28.48</time>
   <time name="total">   29.30   29.30</time>
   <energy>
    <i name="e_fr_energy">   -575.80463881 </i>
    <i name="e_wo_entrp">   -575.80463881 </i>
    <i name="e_0_energy">   -575.80463881 </i>
   </energy>
  </scstep>
  <scstep>
   <time name="dav">   30.63   30.64</time>
   <time name="total">   31.47   31.48</time>
   <energy>
    <i name="e_fr_energy">   -575.80464071 </i>
    <i name="e_wo_entrp">   -575.80464071 </i>
    <i name="e_0_energy">   -575.80464071 </i>
   </energy>
  </scstep>
  <scstep>
   <time name="dav">   29.06   29.06</time>
   <time name="total">   29.88   29.89</time>
   <energy>
    <i name="e_fr_energy">   -575.80464127 </i>
    <i name="e_wo_entrp">   -575.80464127 </i>
    <i name="e_0_energy">   -575.80464127 </i>
   </energy>
  </scstep>
  <scstep>
   <time name="dav">   25.42   25.42</time>
   <time name="total">   26.24   26.24</time>
   <energy>
    <i name="e_fr_energy">   -575.80464139 </i>
    <i name="e_wo_entrp">   -575.80464139 </i>
    <i name="e_0_energy">   -575.80464139 </i>
   </energy>
  </scstep>
  <scstep>
   <time name="dav">   23.13   23.13</time>
   <time name="total">   23.23   23.24</time>
   <energy>
    <i name="alphaZ">    814.38249784 </i>
    <i name="ewald"> -10693.64256698 </i>
    <i name="hartreedc">   -900.37503483 </i>
    <i name="XCdc">    914.54523576 </i>
    <i name="pawpsdc">   3758.91983210 </i>
    <i name="pawaedc">  -3837.62176551 </i>
    <i name="eentropy">     -0.00000000 </i>
    <i name="bandstr">    -48.15516754 </i>
    <i name="atom">   9416.14232778 </i>
    <i name="e_fr_energy">   -575.80464139 </i>
    <i name="e_wo_entrp">   -575.80464139 </i>
    <i name="e_0_energy">   -575.80464139 </i>
   </energy>
  </scstep>
  <structure>
   <crystal>
    <varray name="basis" >
     <v>       7.42781600       0.00000000       0.00000000 </v>
     <v>       0.00000000       7.42781600       0.00000000 </v>
     <v>       0.00000000       0.00000000       7.42781600 </v>
    </varray>
    <i name="volume">    409.81081080 </i>
    <varray name="rec_basis" >
     <v>       0.13462908       0.00000000       0.00000000 </v>
     <v>       0.00000000       0.13462908       0.00000000 </v>
     <v>       0.00000000       0.00000000       0.13462908 </v>
    </varray>
   </crystal>
   <varray name="positions" >
    <v>       0.12500000       0.37500000       0.12500000 </v>
    <v>       0.62500000       0.37500000       0.12500000 </v>
    <v>       0.12500000       0.87500000       0.12500000 </v>
    <v>       0.62500000       0.87500000       0.12500000 </v>
    <v>       0.12500000       0.37500000       0.62500000 </v>
    <v>       0.62500000       0.37500000       0.62500000 </v>
    <v>       0.12500000       0.87500000       0.62500000 </v>
    <v>       0.62500000       0.87500000       0.62500000 </v>
    <v>       0.00000000       0.00000000       0.25000000 </v>
    <v>       0.50000000       0.00000000       0.25000000 </v>
    <v>       0.00000000       0.50000000       0.25000000 </v>
    <v>       0.50000000       0.50000000       0.25000000 </v>
    <v>       0.00000000       0.00000000       0.75000000 </v>
    <v>       0.50000000       0.00000000       0.75000000 </v>
    <v>       0.00000000       0.50000000       0.75000000 </v>
    <v>       0.50000000       0.50000000       0.75000000 </v>
    <v>       0.12500000       0.12500000       0.37500000 </v>
    <v>       0.62500000       0.12500000       0.37500000 </v>
    <v>       0.12500000       0.62500000       0.37500000 </v>
    <v>       0.62500000       0.62500000       0.37500000 </v>
    <v>       0.12500000       0.12500000       0.87500000 </v>
    <v>       0.62500000       0.12500000       0.87500000 </v>
    <v>       0.12500000       0.62500000       0.87500000 </v>
    <v>       0.62500000       0.62500000       0.87500000 </v>
    <v>       0.00000000       0.25000000       0.00000000 </v>
    <v>       0.50000000       0.25000000       0.00000000 </v>
    <v>       0.00000000       0.75000000       0.00000000 </v>
    <v>       0.50000000       0.75000000       0.00000000 </v>
    <v>       0.00000000       0.25000000       0.50000000 </v>
    <v>       0.50000000       0.25000000       0.50000000 </v>
    <v>       0.00000000       0.75000000       0.50000000 </v>
    <v>       0.50000000       0.75000000       0.50000000 </v>
    <v>       0.37500000       0.37500000       0.37500000 </v>
    <v>       0.87500000       0.37500000       0.37500000 </v>
    <v>       0.37500000       0.87500000       0.37500000 </v>
    <v>       0.87500000       0.87500000       0.37500000 </v>
    <v>       0.37500000       0.37500000       0.87500000 </v>
    <v>       0.87500000       0.37500000       0.87500000 </v>
    <v>       0.37500000       0.87500000       0.87500000 </v>
    <v>       0.87500000       0.87500000       0.87500000 </v>
    <v>       0.25000000       0.00000000       0.00000000 </v>
    <v>       0.75000000       0.00000000       0.00000000 </v>
    <v>       0.25000000       0.50000000       0.00000000 </v>
    <v>       0.75000000       0.50000000       0.00000000 </v>
    <v>       0.25000000       0.00000000       0.50000000 </v>
    <v>       0.75000000       0.00000000       0.50000000 </v>
    <v>       0.25000000       0.50000000       0.50000000 </v>
    <v>       0.75000000       0.50000000       0.50000000 </v>
    <v>       0.37500000       0.12500000       0.12500000 </v>
    <v>       0.87500000       0.12500000       0.12500000 </v>
    <v>       0.37500000       0.62500000       0.12500000 </v>
    <v>       0.87500000       0.62500000       0.12500000 </v>
    <v>       0.37500000       0.12500000       0.62500000 </v>
    <v>       0.87500000       0.12500000       0.62500000 </v>
    <v>       0.37500000       0.62500000       0.62500000 </v>
    <v>       0.87500000       0.62500000       0.62500000 </v>
    <v>       0.25000000       0.25000000       0.25000000 </v>
    <v>       0.75000000       0.25000000       0.25000000 </v>
    <v>       0.25000000       0.75000000       0.25000000 </v>
    <v>       0.75000000       0.75000000       0.25000000 </v>
    <v>       0.25000000       0.25000000       0.75000000 </v>
    <v>       0.75000000       0.25000000       0.75000000 </v>
    <v>       0.25000000       0.75000000       0.75000000 </v>
    <v>       0.75000000       0.75000000       0.75000000 </v>
   </varray>
  </structure>
  <varray name="forces" >
   <v>      -0.00000000       0.00000000      -0.00000000 </v>
   <v>      -0.00000000      -0.00000000      -0.00000000 </v>
   <v>      -0.00000000      -0.00000000      -0.00000000 </v>
   <v>      -0.00000000       0.00000000      -0.00000000 </v>
   <v>      -0.00000000      -0.00000000      -0.00000000 </v>
   <v>      -0.00000000       0.00000000      -0.00000000 </v>
   <v>      -0.00000000       0.00000000      -0.00000000 </v>
   <v>      -0.00000000      -0.00000000      -0.00000000 </v>
   <v>       0.00000000       0.00000000       0.00000000 </v>
   <v>       0.00000000       0.00000000       0.00000000 </v>
   <v>       0.00000000      -0.00000000       0.00000000 </v>
   <v>       0.00000000       0.00000000       0.00000000 </v>
   <v>       0.00000000      -0.00000000       0.00000000 </v>
   <v>       0.00000000       0.00000000       0.00000000 </v>
   <v>      -0.00000000       0.00000000       0.00000000 </v>
   <v>       0.00000000      -0.00000000       0.00000000 </v>
   <v>      -0.00000000      -0.00000000      -0.00000000 </v>
   <v>      -0.00000000       0.00000000      -0.00000000 </v>
   <v>      -0.00000000       0.00000000      -0.00000000 </v>
   <v>      -0.00000000      -0.00000000      -0.00000000 </v>
   <v>      -0.00000000       0.00000000      -0.00000000 </v>
   <v>      -0.00000000      -0.00000000      -0.00000000 </v>
   <v>       0.00000000      -0.00000000      -0.00000000 </v>
   <v>      -0.00000000       0.00000000      -0.00000000 </v>
   <v>       0.00000000      -0.00000000       0.00000000 </v>
   <v>       0.00000000       0.00000000       0.00000000 </v>
   <v>       0.00000000       0.00000000       0.00000000 </v>
   <v>       0.00000000      -0.00000000       0.00000000 </v>
   <v>       0.00000000       0.00000000       0.00000000 </v>
   <v>       0.00000000      -0.00000000       0.00000000 </v>
   <v>       0.00000000      -0.00000000       0.00000000 </v>
   <v>       0.00000000       0.00000000       0.00000000 </v>
   <v>      -0.00000000      -0.00000000      -0.00000000 </v>
   <v>      -0.00000000      -0.00000000      -0.00000000 </v>
   <v>      -0.00000000       0.00000000      -0.00000000 </v>
   <v>      -0.00000000      -0.00000000      -0.00000000 </v>
   <v>      -0.00000000       0.00000000      -0.00000000 </v>
   <v>       0.00000000      -0.00000000      -0.00000000 </v>
   <v>       0.00000000      -0.00000000      -0.00000000 </v>
   <v>      -0.00000000       0.00000000      -0.00000000 </v>
   <v>       0.00000000       0.00000000       0.00000000 </v>
   <v>       0.00000000      -0.00000000       0.00000000 </v>
   <v>       0.00000000      -0.00000000       0.00000000 </v>
   <v>       0.00000000       0.00000000       0.00000000 </v>
   <v>       0.00000000      -0.00000000       0.00000000 </v>
   <v>       0.00000000      -0.00000000       0.00000000 </v>
   <v>       0.00000000       0.00000000       0.00000000 </v>
   <v>       0.00000000      -0.00000000       0.00000000 </v>
   <v>      -0.00000000      -0.00000000      -0.00000000 </v>
   <v>      -0.00000000       0.00000000      -0.00000000 </v>
   <v>      -0.00000000       0.00000000      -0.00000000 </v>
   <v>      -0.00000000      -0.00000000      -0.00000000 </v>
   <v>      -0.00000000       0.00000000      -0.00000000 </v>
   <v>      -0.00000000      -0.00000000      -0.00000000 </v>
   <v>      -0.00000000      -0.00000000      -0.00000000 </v>
   <v>      -0.00000000       0.00000000      -0.00000000 </v>
   <v>       0.00000000       0.00000000       0.00000000 </v>
   <v>       0.00000000      -0.00000000       0.00000000 </v>
   <v>       0.00000000      -0.00000000       0.00000000 </v>
   <v>       0.00000000      -0.00000000       0.00000000 </v>
   <v>       0.00000000      -0.00000000       0.00000000 </v>
   <v>       0.00000000       0.00000000       0.00000000 </v>
   <v>      -0.00000000       0.00000000       0.00000000 </v>
   <v>       0.00000000      -0.00000000       0.00000000 </v>
  </varray>
  <varray name="stress" >
   <v>    -443.80184964      -0.00000000      -0.00000000 </v>
   <v>       0.00000000    -443.80184964       0.00000000 </v>
   <v>      -0.00000000      -0.00000000    -443.80184964 </v>
  </varray>
  <energy>
   <i name="e_fr_energy">   -575.80464139 </i>
   <i name="e_wo_entrp">   -575.80464139 </i>
   <i name="e_0_energy">     -0.00000000 </i>
  </energy>
  <kpoints>
   <generation param="Gamma">
    <v type="int" name="divisions">       8        8        8 </v>
    <v name="usershift">      0.00000000       0.00000000       0.00000000 </v>
    <v name="genvec1">      0.12500000       0.00000000       0.00000000 </v>
    <v name="genvec2">      0.00000000       0.12500000       0.00000000 </v>
    <v name="genvec3">      0.00000000       0.00000000       0.12500000 </v>
    <v name="shift">      0.00000000       0.00000000       0.00000000 </v>
   </generation>
   <varray name="kpointlist" >
    <v>       0.00000000       0.00000000       0.00000000 </v>
    <v>       0.12500000       0.00000000       0.00000000 </v>
    <v>       0.25000000       0.00000000       0.00000000 </v>
    <v>       0.37500000       0.00000000       0.00000000 </v>
    <v>       0.50000000       0.00000000       0.00000000 </v>
    <v>       0.00000000       0.12500000       0.00000000 </v>
    <v>       0.12500000       0.12500000       0.00000000 </v>
    <v>       0.25000000       0.12500000       0.00000000 </v>
    <v>       0.37500000       0.12500000       0.00000000 </v>
    <v>       0.50000000       0.12500000       0.00000000 </v>
    <v>       0.00000000       0.25000000       0.00000000 </v>
    <v>       0.12500000       0.25000000       0.00000000 </v>
    <v>       0.25000000       0.25000000       0.00000000 </v>
    <v>       0.37500000       0.25000000       0.00000000 </v>
    <v>       0.50000000       0.25000000       0.00000000 </v>
    <v>       0.00000000       0.37500000       0.00000000 </v>
    <v>       0.12500000       0.37500000       0.00000000 </v>
    <v>       0.25000000       0.37500000       0.00000000 </v>
    <v>       0.37500000       0.37500000       0.00000000 </v>
    <v>       0.50000000       0.37500000       0.00000000 </v>
    <v>       0.00000000       0.50000000       0.00000000 </v>
    <v>       0.12500000       0.50000000       0.00000000 </v>
    <v>       0.25000000       0.50000000       0.00000000 </v>
    <v>       0.37500000       0.50000000       0.00000000 </v>
    <v>       0.50000000       0.50000000       0.00000000 </v>
    <v>       0.00000000       0.12500000       0.12500000 </v>
    <v>       0.12500000       0.12500000       0.12500000 </v>
    <v>       0.25000000       0.12500000       0.12500000 </v>
    <v>       0.37500000       0.12500000       0.12500000 </v>
    <v>       0.50000000       0.12500000       0.12500000 </v>
    <v>       0.00000000       0.25000000       0.12500000 </v>
    <v>       0.12500000       0.25000000       0.12500000 </v>
    <v>       0.25000000       0.25000000       0.12500000 </v>
    <v>       0.37500000       0.25000000       0.12500000 </v>
    <v>       0.50000000       0.25000000       0.12500000 </v>
    <v>       0.00000000       0.37500000       0.12500000 </v>
    <v>       0.12500000       0.37500000       0.12500000 </v>
    <v>       0.25000000       0.37500000       0.12500000 </v>
    <v>       0.37500000       0.37500000       0.12500000 </v>
    <v>       0.50000000       0.37500000       0.12500000 </v>
    <v>       0.00000000       0.50000000       0.12500000 </v>
    <v>       0.12500000       0.50000000       0.12500000 </v>
    <v>       0.25000000       0.50000000       0.12500000 </v>
    <v>       0.37500000       0.50000000       0.12500000 </v>
    <v>       0.50000000       0.50000000       0.12500000 </v>
    <v>       0.00000000      -0.37500000       0.12500000 </v>
    <v>       0.12500000      -0.37500000       0.12500000 </v>
    <v>       0.25000000      -0.37500000       0.12500000 </v>
    <v>       0.37500000      -0.37500000       0.12500000 </v>
    <v>       0.50000000      -0.37500000       0.12500000 </v>
    <v>       0.00000000      -0.25000000       0.12500000 </v>
    <v>       0.12500000      -0.25000000       0.12500000 </v>
    <v>       0.25000000      -0.25000000       0.12500000 </v>
    <v>       0.37500000      -0.25000000       0.12500000 </v>
    <v>       0.50000000      -0.25000000       0.12500000 </v>
    <v>       0.00000000      -0.12500000       0.12500000 </v>
    <v>       0.12500000      -0.12500000       0.12500000 </v>
    <v>       0.25000000      -0.12500000       0.12500000 </v>
    <v>       0.37500000      -0.12500000       0.12500000 </v>
    <v>       0.50000000      -0.12500000       0.12500000 </v>
    <v>       0.00000000       0.25000000       0.25000000 </v>
    <v>       0.12500000       0.25000000       0.25000000 </v>
    <v>       0.25000000       0.25000000       0.25000000 </v>
    <v>       0.37500000       0.25000000       0.25000000 </v>
    <v>       0.50000000       0.25000000       0.25000000 </v>
    <v>       0.00000000       0.37500000       0.25000000 </v>
    <v>       0.12500000       0.37500000       0.25000000 </v>
    <v>       0.25000000       0.37500000       0.25000000 </v>
    <v>       0.37500000       0.37500000       0.25000000 </v>
    <v>       0.50000000       0.37500000       0.25000000 </v>
    <v>       0.00000000       0.50000000       0.25000000 </v>
    <v>       0.12500000       0.50000000       0.25000000 </v>
    <v>       0.25000000       0.50000000       0.25000000 </v>
    <v>       0.37500000       0.50000000       0.25000000 </v>
    <v>       0.50000000       0.50000000       0.25000000 </v>
    <v>       0.00000000      -0.37500000       0.25000000 </v>
    <v>       0.12500000      -0.37500000       0.25000000 </v>
    <v>       0.25000000      -0.37500000       0.25000000 </v>
    <v>       0.37500000      -0.37500000       0.25000000 </v>
    <v>       0.50000000      -0.37500000       0.25000000 </v>
    <v>       0.00000000      -0.25000000       0.25000000 </v>
    <v>       0.12500000      -0.25000000       0.25000000 </v>
    <v>       0.25000000      -0.25000000       0.25000000 </v>
    <v>       0.37500000      -0.25000000       0.25000000 </v>
    <v>       0.50000000      -0.25000000       0.25000000 </v>
    <v>       0.00000000       0.37500000       0.37500000 </v>
    <v>       0.12500000       0.37500000       0.37500000 </v>
    <v>       0.25000000       0.37500000       0.37500000 </v>
    <v>       0.37500000       0.37500000       0.37500000 </v>
    <v>       0.50000000       0.37500000       0.37500000 </v>
    <v>       0.00000000       0.50000000       0.37500000 </v>
    <v>       0.12500000       0.50000000       0.37500000 </v>
    <v>       0.25000000       0.50000000       0.37500000 </v>
    <v>       0.37500000       0.50000000       0.37500000 </v>
    <v>       0.50000000       0.50000000       0.37500000 </v>
    <v>       0.00000000      -0.37500000       0.37500000 </v>
    <v>       0.12500000      -0.37500000       0.37500000 </v>
    <v>       0.25000000      -0.37500000       0.37500000 </v>
    <v>       0.37500000      -0.37500000       0.37500000 </v>
    <v>       0.50000000      -0.37500000       0.37500000 </v>
    <v>       0.00000000       0.50000000       0.50000000 </v>
    <v>       0.12500000       0.50000000       0.50000000 </v>
    <v>       0.25000000       0.50000000       0.50000000 </v>
    <v>       0.37500000       0.50000000       0.50000000 </v>
    <v>       0.50000000       0.50000000       0.50000000 </v>
   </varray>
   <varray name="weights" >
    <v>       0.00195312 </v>
    <v>       0.00390625 </v>
    <v>       0.00390625 </v>
    <v>       0.00390625 </v>
    <v>       0.00195312 </v>
    <v>       0.00781250 </v>
    <v>       0.01562500 </v>
    <v>       0.01562500 </v>
    <v>       0.01562500 </v>
    <v>       0.00781250 </v>
    <v>       0.00781250 </v>
    <v>       0.01562500 </v>
    <v>       0.01562500 </v>
    <v>       0.01562500 </v>
    <v>       0.00781250 </v>
    <v>       0.00781250 </v>
    <v>       0.01562500 </v>
    <v>       0.01562500 </v>
    <v>       0.01562500 </v>
    <v>       0.00781250 </v>
    <v>       0.00390625 </v>
    <v>       0.00781250 </v>
    <v>       0.00781250 </v>
    <v>       0.00781250 </v>
    <v>       0.00390625 </v>
    <v>       0.00390625 </v>
    <v>       0.00781250 </v>
    <v>       0.00781250 </v>
    <v>       0.00781250 </v>
    <v>       0.00390625 </v>
    <v>       0.00781250 </v>
    <v>       0.01562500 </v>
    <v>       0.01562500 </v>
    <v>       0.01562500 </v>
    <v>       0.00781250 </v>
    <v>       0.00781250 </v>
    <v>       0.01562500 </v>
    <v>       0.01562500 </v>
    <v>       0.01562500 </v>
    <v>       0.00781250 </v>
    <v>       0.00781250 </v>
    <v>       0.01562500 </v>
    <v>       0.01562500 </v>
    <v>       0.01562500 </v>
    <v>       0.00781250 </v>
    <v>       0.00781250 </v>
    <v>       0.01562500 </v>
    <v>       0.01562500 </v>
    <v>       0.01562500 </v>
    <v>       0.00781250 </v>
    <v>       0.00781250 </v>
    <v>       0.01562500 </v>
    <v>       0.01562500 </v>
    <v>       0.01562500 </v>
    <v>       0.00781250 </v>
    <v>       0.00390625 </v>
    <v>       0.00781250 </v>
    <v>       0.00781250 </v>
    <v>       0.00781250 </v>
    <v>       0.00390625 </v>
    <v>       0.00390625 </v>
    <v>       0.00781250 </v>
    <v>       0.00781250 </v>
    <v>       0.00781250 </v>
    <v>       0.00390625 </v>
    <v>       0.00781250 </v>
    <v>       0.01562500 </v>
    <v>       0.01562500 </v>
    <v>       0.01562500 </v>
    <v>       0.00781250 </v>
    <v>       0.00781250 </v>
    <v>       0.01562500 </v>
    <v>       0.01562500 </v>
    <v>       0.01562500 </v>
    <v>       0.00781250 </v>
    <v>       0.00781250 </v>
    <v>       0.01562500 </v>
    <v>       0.01562500 </v>
    <v>       0.01562500 </v>
    <v>       0.00781250 </v>
    <v>       0.00390625 </v>
    <v>       0.00781250 </v>
    <v>       0.00781250 </v>
    <v>       0.00781250 </v>
    <v>       0.00390625 </v>
    <v>       0.00390625 </v>
    <v>       0.00781250 </v>
    <v>       0.00781250 </v>
    <v>       0.00781250 </v>
    <v>       0.00390625 </v>
    <v>       0.00781250 </v>
    <v>       0.01562500 </v>
    <v>       0.01562500 </v>
    <v>       0.01562500 </v>
    <v>       0.00781250 </v>
    <v>       0.00390625 </v>
    <v>       0.00781250 </v>
    <v>       0.00781250 </v>
    <v>       0.00781250 </v>
    <v>       0.00390625 </v>
    <v>       0.00195312 </v>
    <v>       0.00390625 </v>
    <v>       0.00390625 </v>
    <v>       0.00390625 </v>
    <v>       0.00195312 </v>
   </varray>
  </kpoints>
  <scstep>
   <time name="total">   92.95   92.96</time>
   <energy>
    <i name="e_fr_energy">   -343.90792057 </i>
    <i name="e_wo_entrp">   -343.90792057 </i>
    <i name="e_0_energy">   -343.90792057 </i>
   </energy>
  </scstep>
  <scstep>
   <time name="total">   68.97   68.97</time>
   <energy>
    <i name="e_fr_energy">   -298.61056374 </i>
    <i name="e_wo_entrp">   -298.61056374 </i>
    <i name="e_0_energy">   -298.61056374 </i>
   </energy>
  </scstep>
  <scstep>
   <time name="total">   70.56   70.57</time>
   <energy>
    <i name="e_fr_energy">   -298.48269475 </i>
    <i name="e_wo_entrp">   -298.48269475 </i>
    <i name="e_0_energy">   -298.48269475 </i>
   </energy>
  </scstep>
  <scstep>
   <time name="total">   71.64   71.64</time>
   <energy>
    <i name="e_fr_energy">   -298.91398368 </i>
    <i name="e_wo_entrp">   -298.91398368 </i>
    <i name="e_0_energy">   -298.91398368 </i>
   </energy>
  </scstep>
  <scstep>
   <time name="total">   71.68   71.69</time>
   <energy>
    <i name="e_fr_energy">   -299.04418786 </i>
    <i name="e_wo_entrp">   -299.04418786 </i>
    <i name="e_0_energy">   -299.04418786 </i>
   </energy>
  </scstep>
  <scstep>
   <time name="total">   71.60   71.60</time>
   <energy>
    <i name="e_fr_energy">   -298.99859686 </i>
    <i name="e_wo_entrp">   -298.99859686 </i>
    <i name="e_0_energy">   -298.99859686 </i>
   </energy>
  </scstep>
  <scstep>
   <time name="total">   72.64   72.65</time>
   <energy>
    <i name="e_fr_energy">   -298.97865134 </i>
    <i name="e_wo_entrp">   -298.97865134 </i>
    <i name="e_0_energy">   -298.97865134 </i>
   </energy>
  </scstep>
  <scstep>
   <time name="total">   73.90   73.90</time>
   <energy>
    <i name="e_fr_energy">   -298.97769046 </i>
    <i name="e_wo_entrp">   -298.97769046 </i>
    <i name="e_0_energy">   -298.97769046 </i>
   </energy>
  </scstep>
  <scstep>
   <time name="total">   75.92   75.93</time>
   <energy>
    <i name="e_fr_energy">   -298.97713677 </i>
    <i name="e_wo_entrp">   -298.97713677 </i>
    <i name="e_0_energy">   -298.97713677 </i>
   </energy>
  </scstep>
  <scstep>
   <time name="total">   77.46   77.46</time>
   <energy>
    <i name="e_fr_energy">   -298.97743024 </i>
    <i name="e_wo_entrp">   -298.97743024 </i>
    <i name="e_0_energy">   -298.97743024 </i>
   </energy>
  </scstep>
  <scstep>
   <time name="total">   77.70   77.71</time>
   <energy>
    <i name="e_fr_energy">   -298.97744549 </i>
    <i name="e_wo_entrp">   -298.97744549 </i>
    <i name="e_0_energy">   -298.97744549 </i>
   </energy>
  </scstep>
  <kpoints>
   <generation param="Gamma">
    <v type="int" name="divisions">       8        8        8 </v>
    <v name="usershift">      0.00000000       0.00000000       0.00000000 </v>
    <v name="genvec1">      0.12500000       0.00000000       0.00000000 </v>
    <v name="genvec2">      0.00000000       0.12500000       0.00000000 </v>
    <v name="genvec3">      0.00000000       0.00000000       0.12500000 </v>
    <v name="shift">      0.00000000       0.00000000       0.00000000 </v>
   </generation>
   <varray name="kpointlist" >
    <v>       0.00000000       0.00000000       0.00000000 </v>
    <v>       0.12500000       0.00000000       0.00000000 </v>
    <v>       0.25000000       0.00000000       0.00000000 </v>
    <v>       0.37500000       0.00000000       0.00000000 </v>
    <v>       0.50000000       0.00000000       0.00000000 </v>
    <v>       0.12500000       0.12500000       0.00000000 </v>
    <v>       0.25000000       0.12500000       0.00000000 </v>
    <v>       0.37500000       0.12500000       0.00000000 </v>
    <v>       0.50000000       0.12500000       0.00000000 </v>
    <v>       0.25000000       0.25000000       0.00000000 </v>
    <v>       0.37500000       0.25000000       0.00000000 </v>
    <v>       0.50000000       0.25000000       0.00000000 </v>
    <v>       0.37500000       0.37500000       0.00000000 </v>
    <v>       0.50000000       0.37500000       0.00000000 </v>
    <v>       0.50000000       0.50000000       0.00000000 </v>
    <v>       0.12500000       0.12500000       0.12500000 </v>
    <v>       0.25000000       0.12500000       0.12500000 </v>
    <v>       0.37500000       0.12500000       0.12500000 </v>
    <v>       0.50000000       0.12500000       0.12500000 </v>
    <v>       0.25000000       0.25000000       0.12500000 </v>
    <v>       0.37500000       0.25000000       0.12500000 </v>
    <v>       0.50000000       0.25000000       0.12500000 </v>
    <v>       0.37500000       0.37500000       0.12500000 </v>
    <v>       0.50000000       0.37500000       0.12500000 </v>
    <v>       0.50000000       0.50000000       0.12500000 </v>
    <v>       0.25000000       0.25000000       0.25000000 </v>
    <v>       0.37500000       0.25000000       0.25000000 </v>
    <v>       0.50000000       0.25000000       0.25000000 </v>
    <v>       0.37500000       0.37500000       0.25000000 </v>
    <v>       0.50000000       0.37500000       0.25000000 </v>
    <v>       0.50000000       0.50000000       0.25000000 </v>
    <v>       0.37500000       0.37500000       0.37500000 </v>
    <v>       0.50000000       0.37500000       0.37500000 </v>
    <v>       0.50000000       0.50000000       0.37500000 </v>
    <v>       0.50000000       0.50000000       0.50000000 </v>
   </varray>
   <varray name="weights" >
    <v>       0.00195312 </v>
    <v>       0.01171875 </v>
    <v>       0.01171875 </v>
    <v>       0.01171875 </v>
    <v>       0.00585938 </v>
    <v>       0.02343750 </v>
    <v>       0.04687500 </v>
    <v>       0.04687500 </v>
    <v>       0.02343750 </v>
    <v>       0.02343750 </v>
    <v>       0.04687500 </v>
    <v>       0.02343750 </v>
    <v>       0.02343750 </v>
    <v>       0.02343750 </v>
    <v>       0.00585938 </v>
    <v>       0.01562500 </v>
    <v>       0.04687500 </v>
    <v>       0.04687500 </v>
    <v>       0.02343750 </v>
    <v>       0.04687500 </v>
    <v>       0.09375000 </v>
    <v>       0.04687500 </v>
    <v>       0.04687500 </v>
    <v>       0.04687500 </v>
    <v>       0.01171875 </v>
    <v>       0.01562500 </v>
    <v>       0.04687500 </v>
    <v>       0.02343750 </v>
    <v>       0.04687500 </v>
    <v>       0.04687500 </v>
    <v>       0.01171875 </v>
    <v>       0.01562500 </v>
    <v>       0.02343750 </v>
    <v>       0.01171875 </v>
    <v>       0.00195312 </v>
   </varray>
  </kpoints>
  <dynmat>
   <varray name="hessian" >
    <v>      -2.87356644       0.00000000       0.00000000       0.01087905      -0.00000000      -0.00000000       0.00741860      -0.00000000      -0.00000000       0.00704460       0.00000000      -0.00000000       0.00741860       0.00000000       0.00000000       0.00704460       0.00000000      -0.00000000      -0.04546534       0.00000000      -0.00000000       0.00375284      -0.00000000       0.00000000      -0.01185520      -0.00712051       0.00007787       0.00531361      -0.00638302      -0.01506534       0.59754340      -0.03649618      -0.03649618      -0.00494510      -0.00712051      -0.00712051       0.02741234      -0.01506534      -0.01506534      -0.00254371      -0.00257026      -0.00257026      -0.01185520       0.00007787      -0.00712051       0.00531361      -0.01506534      -0.00638302      -0.10350536       0.05002637      -0.05002637      -0.00349485       0.00256381      -0.00256381      -0.10350536       0.05002637       0.05002637      -0.00349485       0.00256381       0.00256381      -0.10350536      -0.05002637      -0.05002637      -0.00349485      -0.00256381      -0.00256381      -0.10350536      -0.05002637       0.05002637      -0.00349485      -0.00256381       0.00256381       0.59754340       0.03649618       0.03649618      -0.00494510       0.00712051       0.00712051      -0.01185520       0.00712051      -0.00007787       0.00531361       0.00638302       0.01506534      -0.01185520      -0.00007787       0.00712051       0.00531361       0.01506534       0.00638302       0.02741234       0.01506534       0.01506534      -0.00254371       0.00257026       0.00257026       0.10454793      -0.05002637       0.10788125       0.10454793      -0.05002637      -0.10788125       0.00619449      -0.00256381      -0.00662601       0.00619449      -0.00256381       0.00662601       0.10454793       0.05002637      -0.10788125       0.10454793       0.05002637       0.10788125       0.00619449       0.00256381       0.00662601       0.00619449       0.00256381      -0.00662601      -0.01185520       0.00712051       0.00007787       0.00531361       0.00638302      -0.01506534       0.59754340       0.03649618      -0.03649618      -0.00494510       0.00712051      -0.00712051       0.02741234       0.01506534      -0.01506534      -0.00254371       0.00257026      -0.00257026      -0.01185520      -0.00007787      -0.00712051       0.00531361       0.01506534      -0.00638302       0.10454793      -0.10788125       0.05002637       0.10454793       0.10788125       0.05002637       0.10454793       0.10788125      -0.05002637       0.10454793      -0.10788125      -0.05002637       0.00619449       0.00662601       0.00256381       0.00619449      -0.00662601       0.00256381       0.00619449      -0.00662601      -0.00256381       0.00619449       0.00662601      -0.00256381       0.59754340      -0.03649618       0.03649618      -0.00494510      -0.00712051       0.00712051      -0.01185520      -0.00712051      -0.00007787       0.00531361      -0.00638302       0.01506534      -0.01185520       0.00007787       0.00712051       0.00531361      -0.01506534       0.00638302       0.02741234      -0.01506534       0.01506534      -0.00254371      -0.00257026       0.00257026 </v>
    <v>       0.00000000      -2.87356644       0.00000000      -0.00000000       0.00741860      -0.00000000      -0.00000000       0.01087905      -0.00000000       0.00000000       0.00704460      -0.00000000       0.00000000       0.00741860       0.00000000       0.00000000      -0.04546534      -0.00000000       0.00000000       0.00704460      -0.00000000      -0.00000000       0.00375284       0.00000000      -0.00712051      -0.00494510       0.00712051      -0.00638302       0.00531361       0.01506534      -0.03649618       0.59754340       0.03649618      -0.00712051      -0.01185520      -0.00007787      -0.01506534       0.00531361       0.00638302      -0.00257026      -0.00254371       0.00257026       0.00007787      -0.01185520       0.00712051      -0.01506534       0.02741234       0.01506534      -0.05002637       0.10454793      -0.10788125      -0.00256381       0.00619449       0.00662601      -0.05002637       0.10454793       0.10788125      -0.00256381       0.00619449      -0.00662601       0.05002637       0.10454793       0.10788125       0.00256381       0.00619449      -0.00662601       0.05002637       0.10454793      -0.10788125       0.00256381       0.00619449       0.00662601       0.03649618       0.59754340       0.03649618       0.00712051      -0.01185520      -0.00007787       0.00712051      -0.00494510       0.00712051       0.00638302       0.00531361       0.01506534      -0.00007787      -0.01185520       0.00712051       0.01506534       0.02741234       0.01506534       0.01506534       0.00531361       0.00638302       0.00257026      -0.00254371       0.00257026       0.05002637      -0.10350536       0.05002637       0.05002637      -0.10350536      -0.05002637       0.00256381      -0.00349485       0.00256381       0.00256381      -0.00349485      -0.00256381      -0.05002637      -0.10350536       0.05002637      -0.05002637      -0.10350536      -0.05002637      -0.00256381      -0.00349485       0.00256381      -0.00256381      -0.00349485      -0.00256381       0.00712051      -0.00494510      -0.00712051       0.00638302       0.00531361      -0.01506534       0.03649618       0.59754340      -0.03649618       0.00712051      -0.01185520       0.00007787       0.01506534       0.00531361      -0.00638302       0.00257026      -0.00254371      -0.00257026      -0.00007787      -0.01185520      -0.00712051       0.01506534       0.02741234      -0.01506534      -0.10788125       0.10454793      -0.05002637       0.10788125       0.10454793       0.05002637       0.10788125       0.10454793      -0.05002637      -0.10788125       0.10454793       0.05002637       0.00662601       0.00619449      -0.00256381      -0.00662601       0.00619449       0.00256381      -0.00662601       0.00619449      -0.00256381       0.00662601       0.00619449       0.00256381      -0.03649618       0.59754340      -0.03649618      -0.00712051      -0.01185520       0.00007787      -0.00712051      -0.00494510      -0.00712051      -0.00638302       0.00531361      -0.01506534       0.00007787      -0.01185520      -0.00712051      -0.01506534       0.02741234      -0.01506534      -0.01506534       0.00531361      -0.00638302      -0.00257026      -0.00254371      -0.00257026 </v>
    <v>       0.00000000       0.00000000      -2.87356644      -0.00000000      -0.00000000       0.00741860      -0.00000000      -0.00000000       0.00741860      -0.00000000      -0.00000000      -0.04546534       0.00000000       0.00000000       0.01087905      -0.00000000      -0.00000000       0.00704460      -0.00000000      -0.00000000       0.00704460       0.00000000       0.00000000       0.00375284       0.00007787       0.00712051      -0.01185520      -0.01506534       0.01506534       0.02741234      -0.03649618       0.03649618       0.59754340      -0.00712051      -0.00007787      -0.01185520      -0.01506534       0.00638302       0.00531361      -0.00257026       0.00257026      -0.00254371      -0.00712051       0.00712051      -0.00494510      -0.00638302       0.01506534       0.00531361       0.05002637      -0.10788125       0.10454793       0.00256381       0.00662601       0.00619449      -0.05002637       0.10788125       0.10454793      -0.00256381      -0.00662601       0.00619449       0.05002637       0.10788125       0.10454793       0.00256381      -0.00662601       0.00619449      -0.05002637      -0.10788125       0.10454793      -0.00256381       0.00662601       0.00619449       0.03649618       0.03649618       0.59754340       0.00712051      -0.00007787      -0.01185520      -0.00007787       0.00712051      -0.01185520       0.01506534       0.01506534       0.02741234       0.00712051       0.00712051      -0.00494510       0.00638302       0.01506534       0.00531361       0.01506534       0.00638302       0.00531361       0.00257026       0.00257026      -0.00254371       0.10788125      -0.05002637       0.10454793      -0.10788125       0.05002637       0.10454793      -0.00662601      -0.00256381       0.00619449       0.00662601       0.00256381       0.00619449      -0.10788125      -0.05002637       0.10454793       0.10788125       0.05002637       0.10454793       0.00662601      -0.00256381       0.00619449      -0.00662601       0.00256381       0.00619449       0.00007787      -0.00712051      -0.01185520      -0.01506534      -0.01506534       0.02741234      -0.03649618      -0.03649618       0.59754340      -0.00712051       0.00007787      -0.01185520      -0.01506534      -0.00638302       0.00531361      -0.00257026      -0.00257026      -0.00254371      -0.00712051      -0.00712051      -0.00494510      -0.00638302      -0.01506534       0.00531361      -0.05002637       0.05002637      -0.10350536      -0.05002637      -0.05002637      -0.10350536       0.05002637       0.05002637      -0.10350536       0.05002637      -0.05002637      -0.10350536      -0.00256381       0.00256381      -0.00349485      -0.00256381      -0.00256381      -0.00349485       0.00256381       0.00256381      -0.00349485       0.00256381      -0.00256381      -0.00349485       0.03649618      -0.03649618       0.59754340       0.00712051       0.00007787      -0.01185520      -0.00007787      -0.00712051      -0.01185520       0.01506534      -0.01506534       0.02741234       0.00712051      -0.00712051      -0.00494510       0.00638302      -0.01506534       0.00531361       0.01506534      -0.00638302       0.00531361       0.00257026      -0.00257026      -0.00254371 </v>
    <v>       0.01087905      -0.00000000      -0.00000000      -2.87356644       0.00000000       0.00000000       0.00704460       0.00000000      -0.00000000       0.00741860      -0.00000000      -0.00000000       0.00704460       0.00000000      -0.00000000       0.00741860       0.00000000       0.00000000       0.00375284      -0.00000000       0.00000000      -0.04546534       0.00000000      -0.00000000       0.00531361      -0.00638302      -0.01506534      -0.01185520      -0.00712051       0.00007787      -0.00494510      -0.00712051      -0.00712051       0.59754340      -0.03649618      -0.03649618      -0.00254371      -0.00257026      -0.00257026       0.02741234      -0.01506534      -0.01506534       0.00531361      -0.01506534      -0.00638302      -0.01185520       0.00007787      -0.00712051      -0.00349485       0.00256381      -0.00256381      -0.10350536       0.05002637      -0.05002637      -0.00349485       0.00256381       0.00256381      -0.10350536       0.05002637       0.05002637      -0.00349485      -0.00256381      -0.00256381      -0.10350536      -0.05002637      -0.05002637      -0.00349485      -0.00256381       0.00256381      -0.10350536      -0.05002637       0.05002637      -0.00494510       0.00712051       0.00712051       0.59754340       0.03649618       0.03649618       0.00531361       0.00638302       0.01506534      -0.01185520       0.00712051      -0.00007787       0.00531361       0.01506534       0.00638302      -0.01185520      -0.00007787       0.00712051      -0.00254371       0.00257026       0.00257026       0.02741234       0.01506534       0.01506534       0.10454793      -0.05002637      -0.10788125       0.10454793      -0.05002637       0.10788125       0.00619449      -0.00256381       0.00662601       0.00619449      -0.00256381      -0.00662601       0.10454793       0.05002637       0.10788125       0.10454793       0.05002637      -0.10788125       0.00619449       0.00256381      -0.00662601       0.00619449       0.00256381       0.00662601       0.00531361       0.00638302      -0.01506534      -0.01185520       0.00712051       0.00007787      -0.00494510       0.00712051      -0.00712051       0.59754340       0.03649618      -0.03649618      -0.00254371       0.00257026      -0.00257026       0.02741234       0.01506534      -0.01506534       0.00531361       0.01506534      -0.00638302      -0.01185520      -0.00007787      -0.00712051       0.10454793       0.10788125       0.05002637       0.10454793      -0.10788125       0.05002637       0.10454793      -0.10788125      -0.05002637       0.10454793       0.10788125      -0.05002637       0.00619449      -0.00662601       0.00256381       0.00619449       0.00662601       0.00256381       0.00619449       0.00662601      -0.00256381       0.00619449      -0.00662601      -0.00256381      -0.00494510      -0.00712051       0.00712051       0.59754340      -0.03649618       0.03649618       0.00531361      -0.00638302       0.01506534      -0.01185520      -0.00712051      -0.00007787       0.00531361      -0.01506534       0.00638302      -0.01185520       0.00007787       0.00712051      -0.00254371      -0.00257026       0.00257026       0.02741234      -0.01506534       0.01506534 </v>
    <v>      -0.00000000       0.00741860      -0.00000000       0.00000000      -2.87356644       0.00000000       0.00000000       0.00704460      -0.00000000      -0.00000000       0.01087905      -0.00000000       0.00000000      -0.04546534      -0.00000000       0.00000000       0.00741860       0.00000000      -0.00000000       0.00375284       0.00000000       0.00000000       0.00704460      -0.00000000      -0.00638302       0.00531361       0.01506534      -0.00712051      -0.00494510       0.00712051      -0.00712051      -0.01185520      -0.00007787      -0.03649618       0.59754340       0.03649618      -0.00257026      -0.00254371       0.00257026      -0.01506534       0.00531361       0.00638302      -0.01506534       0.02741234       0.01506534       0.00007787      -0.01185520       0.00712051      -0.00256381       0.00619449       0.00662601      -0.05002637       0.10454793      -0.10788125      -0.00256381       0.00619449      -0.00662601      -0.05002637       0.10454793       0.10788125       0.00256381       0.00619449      -0.00662601       0.05002637       0.10454793       0.10788125       0.00256381       0.00619449       0.00662601       0.05002637       0.10454793      -0.10788125       0.00712051      -0.01185520      -0.00007787       0.03649618       0.59754340       0.03649618       0.00638302       0.00531361       0.01506534       0.00712051      -0.00494510       0.00712051       0.01506534       0.02741234       0.01506534      -0.00007787      -0.01185520       0.00712051       0.00257026      -0.00254371       0.00257026       0.01506534       0.00531361       0.00638302       0.05002637      -0.10350536      -0.05002637       0.05002637      -0.10350536       0.05002637       0.00256381      -0.00349485      -0.00256381       0.00256381      -0.00349485       0.00256381      -0.05002637      -0.10350536      -0.05002637      -0.05002637      -0.10350536       0.05002637      -0.00256381      -0.00349485      -0.00256381      -0.00256381      -0.00349485       0.00256381       0.00638302       0.00531361      -0.01506534       0.00712051      -0.00494510      -0.00712051       0.00712051      -0.01185520       0.00007787       0.03649618       0.59754340      -0.03649618       0.00257026      -0.00254371      -0.00257026       0.01506534       0.00531361      -0.00638302       0.01506534       0.02741234      -0.01506534      -0.00007787      -0.01185520      -0.00712051       0.10788125       0.10454793       0.05002637      -0.10788125       0.10454793      -0.05002637      -0.10788125       0.10454793       0.05002637       0.10788125       0.10454793      -0.05002637      -0.00662601       0.00619449       0.00256381       0.00662601       0.00619449      -0.00256381       0.00662601       0.00619449       0.00256381      -0.00662601       0.00619449      -0.00256381      -0.00712051      -0.01185520       0.00007787      -0.03649618       0.59754340      -0.03649618      -0.00638302       0.00531361      -0.01506534      -0.00712051      -0.00494510      -0.00712051      -0.01506534       0.02741234      -0.01506534       0.00007787      -0.01185520      -0.00712051      -0.00257026      -0.00254371      -0.00257026      -0.01506534       0.00531361      -0.00638302 </v>
    <v>      -0.00000000      -0.00000000       0.00741860       0.00000000       0.00000000      -2.87356644      -0.00000000      -0.00000000      -0.04546534      -0.00000000      -0.00000000       0.00741860      -0.00000000      -0.00000000       0.00704460       0.00000000       0.00000000       0.01087905       0.00000000       0.00000000       0.00375284      -0.00000000      -0.00000000       0.00704460      -0.01506534       0.01506534       0.02741234       0.00007787       0.00712051      -0.01185520      -0.00712051      -0.00007787      -0.01185520      -0.03649618       0.03649618       0.59754340      -0.00257026       0.00257026      -0.00254371      -0.01506534       0.00638302       0.00531361      -0.00638302       0.01506534       0.00531361      -0.00712051       0.00712051      -0.00494510       0.00256381       0.00662601       0.00619449       0.05002637      -0.10788125       0.10454793      -0.00256381      -0.00662601       0.00619449      -0.05002637       0.10788125       0.10454793       0.00256381      -0.00662601       0.00619449       0.05002637       0.10788125       0.10454793      -0.00256381       0.00662601       0.00619449      -0.05002637      -0.10788125       0.10454793       0.00712051      -0.00007787      -0.01185520       0.03649618       0.03649618       0.59754340       0.01506534       0.01506534       0.02741234      -0.00007787       0.00712051      -0.01185520       0.00638302       0.01506534       0.00531361       0.00712051       0.00712051      -0.00494510       0.00257026       0.00257026      -0.00254371       0.01506534       0.00638302       0.00531361      -0.10788125       0.05002637       0.10454793       0.10788125      -0.05002637       0.10454793       0.00662601       0.00256381       0.00619449      -0.00662601      -0.00256381       0.00619449       0.10788125       0.05002637       0.10454793      -0.10788125      -0.05002637       0.10454793      -0.00662601       0.00256381       0.00619449       0.00662601      -0.00256381       0.00619449      -0.01506534      -0.01506534       0.02741234       0.00007787      -0.00712051      -0.01185520      -0.00712051       0.00007787      -0.01185520      -0.03649618      -0.03649618       0.59754340      -0.00257026      -0.00257026      -0.00254371      -0.01506534      -0.00638302       0.00531361      -0.00638302      -0.01506534       0.00531361      -0.00712051      -0.00712051      -0.00494510      -0.05002637      -0.05002637      -0.10350536      -0.05002637       0.05002637      -0.10350536       0.05002637      -0.05002637      -0.10350536       0.05002637       0.05002637      -0.10350536      -0.00256381      -0.00256381      -0.00349485      -0.00256381       0.00256381      -0.00349485       0.00256381      -0.00256381      -0.00349485       0.00256381       0.00256381      -0.00349485       0.00712051       0.00007787      -0.01185520       0.03649618      -0.03649618       0.59754340       0.01506534      -0.01506534       0.02741234      -0.00007787      -0.00712051      -0.01185520       0.00638302      -0.01506534       0.00531361       0.00712051      -0.00712051      -0.00494510       0.00257026      -0.00257026      -0.00254371       0.01506534      -0.00638302       0.00531361 </v>
[...]
      </set>
     </set>
    </set>
   </array>
  </eigenvalues>
  <separator name="orbital magnetization" >
   <v name="MAGDIPOLOUT">      0.00000000      0.00000000      0.00000000</v>
  </separator>
  <dos>
   <i name="efermi">      8.41636762 </i>
   <total>
    <array>
     <dimension dim="1">gridpoints</dimension>
     <dimension dim="2">spin</dimension>
     <field>energy</field>
     <field>total</field>
     <field>integrated</field>
     <set>
      <set comment="spin 1">
       <r>   -13.3637     0.0000     0.0000 </r>
       <r>   -13.2520     0.0000     0.0000 </r>
       <r>   -13.1404     0.0000     0.0000 </r>
       <r>   -13.0287     0.0000     0.0000 </r>
       <r>   -12.9170     0.0000     0.0000 </r>
       <r>   -12.8054     0.0000     0.0000 </r>
       <r>   -12.6937     0.0000     0.0000 </r>
       <r>   -12.5821     0.0000     0.0000 </r>
       <r>   -12.4704     0.0000     0.0000 </r>
       <r>   -12.3588     0.0000     0.0000 </r>
       <r>   -12.2471     0.0000     0.0000 </r>
       <r>   -12.1355     0.0000     0.0000 </r>
       <r>   -12.0238     0.0000     0.0000 </r>
       <r>   -11.9121     0.0034     0.0004 </r>
       <r>   -11.8005     0.2875     0.0325 </r>
       <r>   -11.6888     1.1901     0.1654 </r>
       <r>   -11.5772     1.7771     0.3638 </r>
       <r>   -11.4655     2.4405     0.6363 </r>
       <r>   -11.3539     2.6380     0.9308 </r>
       <r>   -11.2422     2.9816     1.2638 </r>
       <r>   -11.1305     3.6058     1.6664 </r>
       <r>   -11.0189     2.9186     1.9922 </r>
       <r>   -10.9072     4.4937     2.4940 </r>
       <r>   -10.7956     3.8780     2.9270 </r>
       <r>   -10.6839     4.3522     3.4129 </r>
       <r>   -10.5723     4.4541     3.9103 </r>
       <r>   -10.4606     5.2896     4.5009 </r>
       <r>   -10.3489     5.0551     5.0653 </r>
       <r>   -10.2373     3.9291     5.5040 </r>
       <r>   -10.1256     6.2883     6.2062 </r>
       <r>   -10.0140     6.2592     6.9050 </r>
       <r>    -9.9023     4.9802     7.4611 </r>
       <r>    -9.7907     5.8629     8.1157 </r>
       <r>    -9.6790     6.3260     8.8221 </r>
       <r>    -9.5673     7.0772     9.6123 </r>
       <r>    -9.4557     5.4598    10.2219 </r>
       <r>    -9.3440     7.9422    11.1087 </r>
       <r>    -9.2324     5.3151    11.7022 </r>
       <r>    -9.1207     7.2548    12.5122 </r>
       <r>    -9.0091     7.5729    13.3578 </r>
       <r>    -8.8974     9.2292    14.3883 </r>
       <r>    -8.7857     6.0945    15.0688 </r>
       <r>    -8.6741     6.3399    15.7767 </r>
       <r>    -8.5624     9.3431    16.8199 </r>
       <r>    -8.4508     7.8765    17.6994 </r>
       <r>    -8.3391     9.1018    18.7157 </r>
       <r>    -8.2275     7.5169    19.5550 </r>
       <r>    -8.1158     9.1293    20.5743 </r>
       <r>    -8.0042     8.4715    21.5202 </r>
       <r>    -7.8925     8.5160    22.4711 </r>
       <r>    -7.7808     9.3847    23.5190 </r>
       <r>    -7.6692    10.3122    24.6704 </r>
       <r>    -7.5575    10.7796    25.8740 </r>
       <r>    -7.4459     8.9926    26.8781 </r>
       <r>    -7.3342     9.2536    27.9113 </r>
       <r>    -7.2226     8.9103    28.9062 </r>
       <r>    -7.1109    13.4039    30.4028 </r>
       <r>    -6.9992    11.4388    31.6800 </r>
       <r>    -6.8876    11.5486    32.9695 </r>
       <r>    -6.7759    11.5654    34.2609 </r>
       <r>    -6.6643    14.8569    35.9198 </r>
       <r>    -6.5526    11.8435    37.2422 </r>
       <r>    -6.4410    14.4922    38.8603 </r>
       <r>    -6.3293    11.1075    40.1005 </r>
       <r>    -6.2176    14.0967    41.6745 </r>
       <r>    -6.1060    15.1994    43.3717 </r>
       <r>    -5.9943    11.3482    44.6388 </r>
       <r>    -5.8827     9.4171    45.6902 </r>
       <r>    -5.7710    12.8017    47.1196 </r>
       <r>    -5.6594     9.6068    48.1923 </r>
       <r>    -5.5477    11.0821    49.4297 </r>
       <r>    -5.4360    13.6207    50.9505 </r>
       <r>    -5.3244     7.7891    51.8203 </r>
       <r>    -5.2127    11.7515    53.1324 </r>
       <r>    -5.1011     8.4415    54.0749 </r>
       <r>    -4.9894     9.7996    55.1691 </r>
       <r>    -4.8778     9.0416    56.1787 </r>
       <r>    -4.7661     6.4984    56.9043 </r>
       <r>    -4.6544     7.6776    57.7615 </r>
       <r>    -4.5428     8.9438    58.7602 </r>
       <r>    -4.4311     9.4398    59.8142 </r>
       <r>    -4.3195     8.6483    60.7798 </r>
       <r>    -4.2078     6.3383    61.4875 </r>
       <r>    -4.0962     3.4963    61.8779 </r>
       <r>    -3.9845     4.1187    62.3378 </r>
       <r>    -3.8729     6.5497    63.0691 </r>
       <r>    -3.7612     9.3893    64.1175 </r>
       <r>    -3.6495     7.8017    64.9886 </r>
       <r>    -3.5379     8.0469    65.8871 </r>
       <r>    -3.4262     6.4653    66.6090 </r>
       <r>    -3.3146     9.0391    67.6183 </r>
       <r>    -3.2029     7.5644    68.4629 </r>
       <r>    -3.0913     9.7091    69.5470 </r>
       <r>    -2.9796    10.5398    70.7238 </r>
       <r>    -2.8679    14.7287    72.3684 </r>
       <r>    -2.7563    25.0937    75.1703 </r>
       <r>    -2.6446    28.1821    78.3170 </r>
       <r>    -2.5330    20.6109    80.6183 </r>
       <r>    -2.4213    17.8081    82.6067 </r>
       <r>    -2.3097    13.4661    84.1103 </r>
       <r>    -2.1980    16.7424    85.9797 </r>
       <r>    -2.0863    15.0992    87.6656 </r>
       <r>    -1.9747    22.1305    90.1367 </r>
       <r>    -1.8630    13.1811    91.6084 </r>
       <r>    -1.7514     9.8751    92.7110 </r>
       <r>    -1.6397    11.2592    93.9682 </r>
       <r>    -1.5281     9.4434    95.0226 </r>
       <r>    -1.4164     9.7265    96.1086 </r>
       <r>    -1.3047    11.7620    97.4219 </r>
       <r>    -1.1931    10.9461    98.6441 </r>
       <r>    -1.0814     9.9258    99.7524 </r>
       <r>    -0.9698    10.9520   100.9753 </r>
       <r>    -0.8581    11.6769   102.2791 </r>
       <r>    -0.7465     6.0651   102.9563 </r>
       <r>    -0.6348     4.3562   103.4427 </r>
       <r>    -0.5231     8.2367   104.3624 </r>
       <r>    -0.4115    10.8767   105.5768 </r>
       <r>    -0.2998     8.7232   106.5508 </r>
       <r>    -0.1882     7.1812   107.3527 </r>
       <r>    -0.0765    11.0873   108.5906 </r>
       <r>     0.0351    15.5331   110.3250 </r>
       <r>     0.1468    15.1668   112.0185 </r>
       <r>     0.2584    13.7793   113.5570 </r>
       <r>     0.3701    14.9783   115.2295 </r>
       <r>     0.4818    17.9520   117.2339 </r>
       <r>     0.5934    26.0544   120.1431 </r>
       <r>     0.7051    17.8750   122.1389 </r>
       <r>     0.8167    14.6186   123.7712 </r>
       <r>     0.9284    17.9682   125.7775 </r>
       <r>     1.0400    18.9930   127.8982 </r>
       <r>     1.1517    18.9540   130.0145 </r>
       <r>     1.2634    17.9103   132.0143 </r>
       <r>     1.3750    16.8294   133.8934 </r>
       <r>     1.4867    19.2423   136.0420 </r>
       <r>     1.5983    20.1100   138.2874 </r>
       <r>     1.7100    21.4693   140.6846 </r>
       <r>     1.8216    15.9955   142.4706 </r>
       <r>     1.9333    23.1924   145.0602 </r>
       <r>     2.0450    18.6807   147.1460 </r>
       <r>     2.1566    22.9695   149.7107 </r>
       <r>     2.2683    27.7019   152.8038 </r>
       <r>     2.3799    18.3611   154.8539 </r>
       <r>     2.4916    25.9510   157.7515 </r>
       <r>     2.6032    27.6031   160.8336 </r>
       <r>     2.7149    27.0678   163.8559 </r>
       <r>     2.8266    34.4877   167.7067 </r>
       <r>     2.9382    24.0315   170.3900 </r>
       <r>     3.0499    28.5019   173.5724 </r>
       <r>     3.1615    20.8573   175.9013 </r>
       <r>     3.2732    28.8692   179.1247 </r>
       <r>     3.3848    27.2076   182.1626 </r>
       <r>     3.4965    28.2409   185.3159 </r>
       <r>     3.6081    28.7578   188.5269 </r>
       <r>     3.7198    22.9645   191.0910 </r>
       <r>     3.8315    18.8352   193.1941 </r>
       <r>     3.9431    26.8999   196.1977 </r>
       <r>     4.0548    34.6621   200.0679 </r>
       <r>     4.1664    22.7116   202.6038 </r>
       <r>     4.2781    18.6150   204.6823 </r>
       <r>     4.3897    24.2070   207.3852 </r>
       <r>     4.5014    23.5235   210.0118 </r>
       <r>     4.6131    31.6775   213.5488 </r>
       <r>     4.7247    22.2096   216.0286 </r>
       <r>     4.8364    18.3787   218.0807 </r>
       <r>     4.9480    23.3665   220.6898 </r>
       <r>     5.0597    23.0762   223.2664 </r>
       <r>     5.1713    28.0764   226.4013 </r>
       <r>     5.2830    23.4500   229.0196 </r>
       <r>     5.3947    16.9746   230.9150 </r>
       <r>     5.5063    19.5996   233.1034 </r>
       <r>     5.6180    27.9995   236.2297 </r>
       <r>     5.7296    19.3366   238.3888 </r>
       <r>     5.8413    11.0267   239.6200 </r>
       <r>     5.9529    16.1613   241.4245 </r>
       <r>     6.0646    13.6678   242.9506 </r>
       <r>     6.1763    13.8111   244.4927 </r>
       <r>     6.2879    11.5026   245.7771 </r>
       <r>     6.3996     8.2039   246.6931 </r>
       <r>     6.5112    10.8850   247.9085 </r>
       <r>     6.6229     9.9907   249.0240 </r>
       <r>     6.7345     8.6984   249.9953 </r>
       <r>     6.8462     6.1416   250.6810 </r>
       <r>     6.9579     7.4801   251.5162 </r>
       <r>     7.0695     6.8116   252.2768 </r>
       <r>     7.1812     6.9788   253.0560 </r>
       <r>     7.2928     3.9357   253.4955 </r>
       <r>     7.4045     5.3209   254.0896 </r>
       <r>     7.5161     4.3086   254.5707 </r>
       <r>     7.6278     4.0760   255.0258 </r>
       <r>     7.7394     3.1139   255.3735 </r>
       <r>     7.8511     2.2799   255.6280 </r>
       <r>     7.9628     2.3801   255.8938 </r>
       <r>     8.0744     0.8194   255.9853 </r>
       <r>     8.1861     0.1314   255.9999 </r>
       <r>     8.2977     0.0005   256.0000 </r>
       <r>     8.4094     0.0000   256.0000 </r>
       <r>     8.5210     0.0000   256.0000 </r>
       <r>     8.6327     0.0000   256.0000 </r>
       <r>     8.7444     0.0000   256.0000 </r>
       <r>     8.8560     0.0000   256.0000 </r>
       <r>     8.9677     0.0000   256.0000 </r>
       <r>     9.0793     0.0000   256.0000 </r>
       <r>     9.1910     0.0000   256.0000 </r>
       <r>     9.3026     0.0000   256.0000 </r>
       <r>     9.4143     0.0000   256.0000 </r>
       <r>     9.5260     0.0000   256.0000 </r>
       <r>     9.6376     0.0000   256.0000 </r>
       <r>     9.7493     0.0000   256.0000 </r>
       <r>     9.8609     0.0000   256.0000 </r>
       <r>     9.9726     0.0000   256.0000 </r>
       <r>    10.0842     0.0000   256.0000 </r>
       <r>    10.1959     0.0000   256.0000 </r>
       <r>    10.3076     0.0000   256.0000 </r>
       <r>    10.4192     0.0000   256.0000 </r>
       <r>    10.5309     0.0000   256.0000 </r>
       <r>    10.6425     0.0000   256.0000 </r>
       <r>    10.7542     0.0000   256.0000 </r>
       <r>    10.8658     0.0000   256.0000 </r>
       <r>    10.9775     0.0000   256.0000 </r>
       <r>    11.0892     0.0000   256.0000 </r>
       <r>    11.2008     0.0000   256.0000 </r>
       <r>    11.3125     0.0000   256.0000 </r>
       <r>    11.4241     0.0000   256.0000 </r>
       <r>    11.5358     0.0000   256.0000 </r>
       <r>    11.6474     0.0000   256.0000 </r>
       <r>    11.7591     0.0000   256.0000 </r>
       <r>    11.8707     0.0108   256.0012 </r>
       <r>    11.9824     0.4226   256.0484 </r>
       <r>    12.0941     1.4427   256.2095 </r>
       <r>    12.2057     3.5089   256.6013 </r>
       <r>    12.3174     4.3947   257.0920 </r>
       <r>    12.4290     3.0273   257.4300 </r>
       <r>    12.5407     5.1687   258.0071 </r>
       <r>    12.6523     9.4636   259.0638 </r>
       <r>    12.7640     9.4165   260.1152 </r>
       <r>    12.8757     8.1737   261.0278 </r>
       <r>    12.9873     4.8919   261.5741 </r>
       <r>    13.0990    12.4282   262.9617 </r>
       <r>    13.2106    17.2649   264.8895 </r>
       <r>    13.3223    13.8033   266.4307 </r>
       <r>    13.4339    13.3917   267.9260 </r>
       <r>    13.5456    15.0234   269.6035 </r>
       <r>    13.6573    15.0232   271.2809 </r>
       <r>    13.7689    13.8436   272.8266 </r>
       <r>    13.8806    18.3618   274.8769 </r>
       <r>    13.9922    24.9754   277.6655 </r>
       <r>    14.1039    19.6526   279.8599 </r>
       <r>    14.2155    14.4931   281.4781 </r>
       <r>    14.3272    20.5624   283.7741 </r>
       <r>    14.4389    20.1180   286.0204 </r>
       <r>    14.5505    22.1418   288.4926 </r>
       <r>    14.6622    21.6846   290.9139 </r>
       <r>    14.7738    28.9246   294.1435 </r>
       <r>    14.8855    22.1669   296.6186 </r>
       <r>    14.9971    22.8714   299.1723 </r>
       <r>    15.1088    29.0993   302.4215 </r>
       <r>    15.2204    31.8037   305.9726 </r>
       <r>    15.3321    36.7117   310.0717 </r>
       <r>    15.4438    32.4090   313.6904 </r>
       <r>    15.5554    32.8877   317.3625 </r>
       <r>    15.6671    40.0300   321.8321 </r>
       <r>    15.7787    44.3100   326.7796 </r>
       <r>    15.8904    40.0721   331.2539 </r>
       <r>    16.0020    43.6081   336.1231 </r>
       <r>    16.1137    46.9632   341.3668 </r>
       <r>    16.2254    30.8943   344.8164 </r>
       <r>    16.3370    26.8846   347.8183 </r>
       <r>    16.4487    32.0458   351.3964 </r>
       <r>    16.5603    28.7346   354.6048 </r>
       <r>    16.6720    33.6249   358.3592 </r>
       <r>    16.7836    25.9500   361.2567 </r>
       <r>    16.8953    32.4564   364.8807 </r>
       <r>    17.0070    31.8282   368.4345 </r>
       <r>    17.1186    27.4552   371.5001 </r>
       <r>    17.2303    19.2069   373.6447 </r>
       <r>    17.3419    23.2316   376.2386 </r>
       <r>    17.4536    15.5445   377.9743 </r>
       <r>    17.5652    14.3920   379.5812 </r>
       <r>    17.6769    14.4188   381.1912 </r>
       <r>    17.7886     6.9922   381.9719 </r>
       <r>    17.9002     3.4010   382.3517 </r>
       <r>    18.0119     3.0411   382.6912 </r>
       <r>    18.1235     3.5427   383.0868 </r>
       <r>    18.2352     1.1472   383.2149 </r>
       <r>    18.3468     4.1619   383.6796 </r>
       <r>    18.4585     0.7627   383.7648 </r>
       <r>    18.5702     1.1940   383.8981 </r>
       <r>    18.6818     0.8854   383.9969 </r>
       <r>    18.7935     0.0275   384.0000 </r>
       <r>    18.9051     0.0000   384.0000 </r>
       <r>    19.0168     0.0000   384.0000 </r>
       <r>    19.1284     0.0000   384.0000 </r>
       <r>    19.2401     0.0000   384.0000 </r>
       <r>    19.3517     0.0000   384.0000 </r>
       <r>    19.4634     0.0000   384.0000 </r>
       <r>    19.5751     0.0000   384.0000 </r>
       <r>    19.6867     0.0000   384.0000 </r>
       <r>    19.7984     0.0000   384.0000 </r>
       <r>    19.9100     0.0000   384.0000 </r>
       <r>    20.0217     0.0000   384.0000 </r>
       <r>    20.1333     0.0000   384.0000 </r>
      </set>
     </set>
    </array>
   </total>
  </dos>
 </calculation>
 <structure name="finalpos" >
  <crystal>
   <varray name="basis" >
    <v>       7.42781600       0.00000000       0.00000000 </v>
    <v>       0.00000000       7.42781600       0.00000000 </v>
    <v>       0.00000000       0.00000000       7.42781600 </v>
   </varray>
   <i name="volume">    409.81081080 </i>
   <varray name="rec_basis" >
    <v>       0.13462908       0.00000000       0.00000000 </v>
    <v>       0.00000000       0.13462908       0.00000000 </v>
    <v>       0.00000000       0.00000000       0.13462908 </v>
   </varray>
  </crystal>
  <varray name="positions" >
   <v>       0.12500000       0.37500000       0.12500000 </v>
   <v>       0.62500000       0.37500000       0.12500000 </v>
   <v>       0.12500000       0.87500000       0.12500000 </v>
   <v>       0.62500000       0.87500000       0.12500000 </v>
   <v>       0.12500000       0.37500000       0.62500000 </v>
   <v>       0.62500000       0.37500000       0.62500000 </v>
   <v>       0.12500000       0.87500000       0.62500000 </v>
   <v>       0.62500000       0.87500000       0.62500000 </v>
   <v>       0.00000000       0.00000000       0.25000000 </v>
   <v>       0.50000000       0.00000000       0.25000000 </v>
   <v>       0.00000000       0.50000000       0.25000000 </v>
   <v>       0.50000000       0.50000000       0.25000000 </v>
   <v>       0.00000000       0.00000000       0.75000000 </v>
   <v>       0.50000000       0.00000000       0.75000000 </v>
   <v>       0.00000000       0.50000000       0.75000000 </v>
   <v>       0.50000000       0.50000000       0.75000000 </v>
   <v>       0.12500000       0.12500000       0.37500000 </v>
   <v>       0.62500000       0.12500000       0.37500000 </v>
   <v>       0.12500000       0.62500000       0.37500000 </v>
   <v>       0.62500000       0.62500000       0.37500000 </v>
   <v>       0.12500000       0.12500000       0.87500000 </v>
   <v>       0.62500000       0.12500000       0.87500000 </v>
   <v>       0.12500000       0.62500000       0.87500000 </v>
   <v>       0.62500000       0.62500000       0.87500000 </v>
   <v>       0.00000000       0.25000000       0.00000000 </v>
   <v>       0.50000000       0.25000000       0.00000000 </v>
   <v>       0.00000000       0.75000000       0.00000000 </v>
   <v>       0.50000000       0.75000000       0.00000000 </v>
   <v>       0.00000000       0.25000000       0.50000000 </v>
   <v>       0.50000000       0.25000000       0.50000000 </v>
   <v>       0.00000000       0.75000000       0.50000000 </v>
   <v>       0.50000000       0.75000000       0.50000000 </v>
   <v>       0.37500000       0.37500000       0.37500000 </v>
   <v>       0.87500000       0.37500000       0.37500000 </v>
   <v>       0.37500000       0.87500000       0.37500000 </v>
   <v>       0.87500000       0.87500000       0.37500000 </v>
   <v>       0.37500000       0.37500000       0.87500000 </v>
   <v>       0.87500000       0.37500000       0.87500000 </v>
   <v>       0.37500000       0.87500000       0.87500000 </v>
   <v>       0.87500000       0.87500000       0.87500000 </v>
   <v>       0.25000000       0.00000000       0.00000000 </v>
   <v>       0.75000000       0.00000000       0.00000000 </v>
   <v>       0.25000000       0.50000000       0.00000000 </v>
   <v>       0.75000000       0.50000000       0.00000000 </v>
   <v>       0.25000000       0.00000000       0.50000000 </v>
   <v>       0.75000000       0.00000000       0.50000000 </v>
   <v>       0.25000000       0.50000000       0.50000000 </v>
   <v>       0.75000000       0.50000000       0.50000000 </v>
   <v>       0.37500000       0.12500000       0.12500000 </v>
   <v>       0.87500000       0.12500000       0.12500000 </v>
   <v>       0.37500000       0.62500000       0.12500000 </v>
   <v>       0.87500000       0.62500000       0.12500000 </v>
   <v>       0.37500000       0.12500000       0.62500000 </v>
   <v>       0.87500000       0.12500000       0.62500000 </v>
   <v>       0.37500000       0.62500000       0.62500000 </v>
   <v>       0.87500000       0.62500000       0.62500000 </v>
   <v>       0.25000000       0.25000000       0.25000000 </v>
   <v>       0.75000000       0.25000000       0.25000000 </v>
   <v>       0.25000000       0.75000000       0.25000000 </v>
   <v>       0.75000000       0.75000000       0.25000000 </v>
   <v>       0.25000000       0.25000000       0.75000000 </v>
   <v>       0.75000000       0.25000000       0.75000000 </v>
   <v>       0.25000000       0.75000000       0.75000000 </v>
   <v>       0.75000000       0.75000000       0.75000000 </v>
  </varray>
 </structure>
</modeling>
