  64  64   0   0
  0.5610894E+01  0.7107835E-09  0.7107835E-09  0.7107835E-09  0.5000000E-15
  1.000000000000000E-004
  CAR 
 unknown system                          
     23.38210744    -13.38120764  301     10.27751742      1.00000000
    -13.381  0.0000E+00  0.0000E+00
    -13.259  0.0000E+00  0.0000E+00
    -13.136  0.0000E+00  0.0000E+00
    -13.014  0.0000E+00  0.0000E+00
    -12.891  0.0000E+00  0.0000E+00
    -12.768  0.0000E+00  0.0000E+00
    -12.646  0.0000E+00  0.0000E+00
    -12.523  0.0000E+00  0.0000E+00
    -12.401  0.0000E+00  0.0000E+00
    -12.278  0.0000E+00  0.0000E+00
    -12.156  0.0000E+00  0.0000E+00
    -12.033  0.9983E-15  0.1223E-15
    -11.911  0.8640E-07  0.1059E-07
    -11.788  0.2672E-02  0.3274E-03
    -11.666  0.2271E+00  0.2816E-01
    -11.543  0.1202E+01  0.1754E+00
    -11.420  0.1366E+01  0.3427E+00
    -11.298  0.2796E+01  0.6853E+00
    -11.175  0.1469E+01  0.8653E+00
    -11.053  0.3483E+01  0.1292E+01
    -10.930  0.2804E+01  0.1636E+01
    -10.808  0.3745E+01  0.2095E+01
    -10.685  0.2273E+01  0.2373E+01
    -10.563  0.4517E+01  0.2927E+01
    -10.440  0.4250E+01  0.3448E+01
    -10.318  0.4941E+01  0.4053E+01
    -10.195  0.2316E+01  0.4337E+01
    -10.073  0.4439E+01  0.4881E+01
     -9.950  0.6358E+01  0.5660E+01
     -9.827  0.5283E+01  0.6307E+01
     -9.705  0.4473E+01  0.6855E+01
     -9.582  0.3822E+01  0.7324E+01
     -9.460  0.6780E+01  0.8155E+01
     -9.337  0.4947E+01  0.8761E+01
     -9.215  0.5597E+01  0.9447E+01
     -9.092  0.6220E+01  0.1021E+02
     -8.970  0.7528E+01  0.1113E+02
     -8.847  0.5701E+01  0.1183E+02
     -8.725  0.5792E+01  0.1254E+02
     -8.602  0.3257E+01  0.1294E+02
     -8.479  0.9252E+01  0.1407E+02
     -8.357  0.6937E+01  0.1492E+02
     -8.234  0.9523E+01  0.1609E+02
     -8.112  0.5686E+01  0.1679E+02
     -7.989  0.6172E+01  0.1754E+02
     -7.867  0.6566E+01  0.1835E+02
     -7.744  0.8631E+01  0.1941E+02
     -7.622  0.5151E+01  0.2004E+02
     -7.499  0.1116E+02  0.2140E+02
     -7.377  0.8490E+01  0.2244E+02
     -7.254  0.7164E+01  0.2332E+02
     -7.131  0.5689E+01  0.2402E+02
     -7.009  0.1303E+02  0.2562E+02
     -6.886  0.9106E+01  0.2673E+02
     -6.764  0.5068E+01  0.2735E+02
     -6.641  0.8121E+01  0.2835E+02
     -6.519  0.9841E+01  0.2955E+02
     -6.396  0.1024E+02  0.3081E+02
     -6.274  0.1060E+02  0.3211E+02
     -6.151  0.1275E+02  0.3367E+02
     -6.029  0.1085E+02  0.3500E+02
     -5.906  0.9723E+01  0.3619E+02
     -5.783  0.9466E+01  0.3735E+02
     -5.661  0.1010E+02  0.3859E+02
     -5.538  0.1442E+02  0.4036E+02
     -5.416  0.1285E+02  0.4193E+02
     -5.293  0.1046E+02  0.4321E+02
     -5.171  0.1018E+02  0.4446E+02
     -5.048  0.1096E+02  0.4580E+02
     -4.926  0.1254E+02  0.4734E+02
     -4.803  0.1070E+02  0.4865E+02
     -4.681  0.6493E+01  0.4945E+02
     -4.558  0.1170E+02  0.5088E+02
     -4.435  0.7955E+01  0.5186E+02
     -4.313  0.4958E+01  0.5246E+02
     -4.190  0.1073E+02  0.5378E+02
     -4.068  0.1162E+02  0.5520E+02
     -3.945  0.5583E+01  0.5589E+02
     -3.823  0.5307E+01  0.5654E+02
     -3.700  0.1300E+02  0.5813E+02
     -3.578  0.6714E+01  0.5895E+02
     -3.455  0.1214E+02  0.6044E+02
     -3.333  0.2826E+01  0.6079E+02
     -3.210  0.7441E+01  0.6170E+02
     -3.087  0.8690E+01  0.6276E+02
     -2.965  0.5176E+01  0.6340E+02
     -2.842  0.8540E+01  0.6444E+02
     -2.720  0.1372E+02  0.6613E+02
     -2.597  0.1243E+02  0.6765E+02
     -2.475  0.8446E+01  0.6868E+02
     -2.352  0.6381E+01  0.6947E+02
     -2.230  0.9818E+01  0.7067E+02
     -2.107  0.1416E+02  0.7241E+02
     -1.985  0.7529E+01  0.7333E+02
     -1.862  0.1047E+02  0.7461E+02
     -1.739  0.1325E+02  0.7624E+02
     -1.617  0.1876E+02  0.7853E+02
     -1.494  0.2186E+02  0.8121E+02
     -1.372  0.2663E+02  0.8448E+02
     -1.249  0.1994E+02  0.8692E+02
     -1.127  0.1098E+02  0.8827E+02
     -1.004  0.1210E+02  0.8975E+02
     -0.882  0.6337E+01  0.9052E+02
     -0.759  0.9932E+01  0.9174E+02
     -0.637  0.1100E+02  0.9309E+02
     -0.514  0.1224E+02  0.9459E+02
     -0.392  0.5205E+01  0.9523E+02
     -0.269  0.1090E+02  0.9656E+02
     -0.146  0.1646E+02  0.9858E+02
     -0.024  0.1430E+02  0.1003E+03
      0.099  0.8535E+01  0.1014E+03
      0.221  0.3584E+01  0.1018E+03
      0.344  0.1467E+01  0.1020E+03
      0.466  0.1119E+02  0.1034E+03
      0.589  0.1843E+02  0.1056E+03
      0.711  0.7348E+01  0.1065E+03
      0.834  0.7301E+01  0.1074E+03
      0.956  0.1355E+02  0.1091E+03
      1.079  0.1872E+02  0.1114E+03
      1.202  0.2459E+02  0.1144E+03
      1.324  0.1961E+02  0.1168E+03
      1.447  0.9797E+01  0.1180E+03
      1.569  0.1142E+02  0.1194E+03
      1.692  0.1420E+02  0.1211E+03
      1.814  0.1151E+02  0.1225E+03
      1.937  0.2848E+02  0.1260E+03
      2.059  0.2213E+02  0.1287E+03
      2.182  0.8009E+01  0.1297E+03
      2.304  0.1251E+02  0.1313E+03
      2.427  0.1635E+02  0.1333E+03
      2.550  0.2104E+02  0.1358E+03
      2.672  0.2198E+02  0.1385E+03
      2.795  0.1838E+02  0.1408E+03
      2.917  0.1320E+02  0.1424E+03
      3.040  0.1903E+02  0.1447E+03
      3.162  0.2169E+02  0.1474E+03
      3.285  0.1722E+02  0.1495E+03
      3.407  0.2079E+02  0.1521E+03
      3.530  0.3037E+02  0.1558E+03
      3.652  0.2741E+02  0.1591E+03
      3.775  0.2453E+02  0.1621E+03
      3.898  0.1230E+02  0.1637E+03
      4.020  0.2564E+02  0.1668E+03
      4.143  0.2409E+02  0.1697E+03
      4.265  0.3263E+02  0.1737E+03
      4.388  0.3138E+02  0.1776E+03
      4.510  0.1757E+02  0.1797E+03
      4.633  0.2099E+02  0.1823E+03
      4.755  0.2427E+02  0.1853E+03
      4.878  0.2031E+02  0.1878E+03
      5.000  0.1829E+02  0.1900E+03
      5.123  0.2522E+02  0.1931E+03
      5.246  0.2996E+02  0.1968E+03
      5.368  0.2261E+02  0.1996E+03
      5.491  0.1975E+02  0.2020E+03
      5.613  0.2383E+02  0.2049E+03
      5.736  0.1484E+02  0.2067E+03
      5.858  0.2830E+02  0.2102E+03
      5.981  0.1917E+02  0.2125E+03
      6.103  0.1299E+02  0.2141E+03
      6.226  0.2679E+02  0.2174E+03
      6.348  0.2468E+02  0.2204E+03
      6.471  0.1936E+02  0.2228E+03
      6.594  0.2554E+02  0.2259E+03
      6.716  0.1633E+02  0.2279E+03
      6.839  0.1314E+02  0.2295E+03
      6.961  0.1599E+02  0.2315E+03
      7.084  0.2303E+02  0.2343E+03
      7.206  0.3122E+02  0.2381E+03
      7.329  0.1136E+02  0.2395E+03
      7.451  0.6889E+01  0.2404E+03
      7.574  0.9726E+01  0.2416E+03
      7.696  0.1482E+02  0.2434E+03
      7.819  0.8423E+01  0.2444E+03
      7.942  0.1424E+02  0.2462E+03
      8.064  0.9914E+01  0.2474E+03
      8.187  0.6630E+01  0.2482E+03
      8.309  0.7638E+01  0.2491E+03
      8.432  0.5580E+01  0.2498E+03
      8.554  0.7647E+01  0.2508E+03
      8.677  0.8021E+01  0.2517E+03
      8.799  0.5445E+01  0.2524E+03
      8.922  0.2699E+01  0.2527E+03
      9.044  0.7104E+01  0.2536E+03
      9.167  0.4977E+01  0.2542E+03
      9.290  0.2978E+01  0.2546E+03
      9.412  0.2186E+01  0.2548E+03
      9.535  0.3145E+01  0.2552E+03
      9.657  0.3818E+01  0.2557E+03
      9.780  0.1128E+01  0.2558E+03
      9.902  0.1016E+01  0.2560E+03
     10.025  0.3035E+00  0.2560E+03
     10.147  0.4172E-02  0.2560E+03
     10.270  0.7223E-07  0.2560E+03
     10.392  0.4027E-15  0.2560E+03
     10.515  0.0000E+00  0.2560E+03
     10.637  0.0000E+00  0.2560E+03
     10.760  0.0000E+00  0.2560E+03
     10.883  0.0000E+00  0.2560E+03
     11.005  0.0000E+00  0.2560E+03
     11.128  0.0000E+00  0.2560E+03
     11.250  0.0000E+00  0.2560E+03
     11.373  0.0000E+00  0.2560E+03
     11.495  0.0000E+00  0.2560E+03
     11.618  0.0000E+00  0.2560E+03
     11.740  0.0000E+00  0.2560E+03
     11.863  0.0000E+00  0.2560E+03
     11.985  0.0000E+00  0.2560E+03
     12.108  0.0000E+00  0.2560E+03
     12.231  0.0000E+00  0.2560E+03
     12.353  0.0000E+00  0.2560E+03
     12.476  0.0000E+00  0.2560E+03
     12.598  0.0000E+00  0.2560E+03
     12.721  0.0000E+00  0.2560E+03
     12.843  0.0000E+00  0.2560E+03
     12.966  0.0000E+00  0.2560E+03
     13.088  0.0000E+00  0.2560E+03
     13.211  0.0000E+00  0.2560E+03
     13.333  0.0000E+00  0.2560E+03
     13.456  0.0000E+00  0.2560E+03
     13.579  0.0000E+00  0.2560E+03
     13.701  0.0000E+00  0.2560E+03
     13.824  0.9572E-09  0.2560E+03
     13.946  0.7178E-03  0.2560E+03
     14.069  0.3327E+00  0.2560E+03
     14.191  0.1101E+01  0.2562E+03
     14.314  0.8934E+00  0.2563E+03
     14.436  0.4912E+01  0.2569E+03
     14.559  0.4533E+01  0.2574E+03
     14.681  0.7570E+01  0.2584E+03
     14.804  0.4671E+01  0.2589E+03
     14.927  0.3676E+01  0.2594E+03
     15.049  0.3055E+01  0.2598E+03
     15.172  0.1782E+02  0.2620E+03
     15.294  0.1417E+02  0.2637E+03
     15.417  0.9932E+01  0.2649E+03
     15.539  0.8460E+01  0.2659E+03
     15.662  0.1461E+02  0.2677E+03
     15.784  0.1217E+02  0.2692E+03
     15.907  0.1214E+02  0.2707E+03
     16.029  0.1391E+02  0.2724E+03
     16.152  0.1973E+02  0.2748E+03
     16.275  0.1646E+02  0.2769E+03
     16.397  0.2105E+02  0.2794E+03
     16.520  0.1290E+02  0.2810E+03
     16.642  0.1736E+02  0.2831E+03
     16.765  0.1847E+02  0.2854E+03
     16.887  0.2401E+02  0.2883E+03
     17.010  0.2043E+02  0.2908E+03
     17.132  0.1290E+02  0.2924E+03
     17.255  0.2667E+02  0.2957E+03
     17.377  0.2370E+02  0.2986E+03
     17.500  0.9656E+01  0.2998E+03
     17.623  0.1861E+02  0.3021E+03
     17.745  0.2633E+02  0.3053E+03
     17.868  0.4932E+02  0.3113E+03
     17.990  0.3869E+02  0.3161E+03
     18.113  0.2639E+02  0.3193E+03
     18.235  0.2277E+02  0.3221E+03
     18.358  0.2369E+02  0.3250E+03
     18.480  0.2518E+02  0.3281E+03
     18.603  0.3590E+02  0.3325E+03
     18.725  0.3610E+02  0.3369E+03
     18.848  0.3250E+02  0.3409E+03
     18.971  0.3202E+02  0.3448E+03
     19.093  0.3349E+02  0.3489E+03
     19.216  0.2609E+02  0.3521E+03
     19.338  0.3188E+02  0.3560E+03
     19.461  0.2764E+02  0.3594E+03
     19.583  0.1832E+02  0.3617E+03
     19.706  0.2380E+02  0.3646E+03
     19.828  0.2597E+02  0.3678E+03
     19.951  0.2801E+02  0.3712E+03
     20.073  0.2009E+02  0.3737E+03
     20.196  0.2865E+02  0.3772E+03
     20.318  0.2024E+02  0.3796E+03
     20.441  0.9616E+01  0.3808E+03
     20.564  0.2663E+01  0.3811E+03
     20.686  0.4295E+01  0.3817E+03
     20.809  0.7218E+01  0.3826E+03
     20.931  0.4336E+01  0.3831E+03
     21.054  0.1428E+01  0.3833E+03
     21.176  0.2397E+01  0.3836E+03
     21.299  0.5763E+00  0.3836E+03
     21.421  0.3125E+00  0.3837E+03
     21.544  0.8817E+00  0.3838E+03
     21.666  0.2891E+00  0.3838E+03
     21.789  0.1482E+01  0.3840E+03
     21.912  0.5750E-01  0.3840E+03
     22.034  0.1896E-05  0.3840E+03
     22.157  0.2089E-13  0.3840E+03
     22.279  0.0000E+00  0.3840E+03
     22.402  0.0000E+00  0.3840E+03
     22.524  0.0000E+00  0.3840E+03
     22.647  0.0000E+00  0.3840E+03
     22.769  0.0000E+00  0.3840E+03
     22.892  0.0000E+00  0.3840E+03
     23.014  0.0000E+00  0.3840E+03
     23.137  0.0000E+00  0.3840E+03
     23.260  0.0000E+00  0.3840E+03
     23.382  0.0000E+00  0.3840E+03
