mesh: [    48,    48,    48 ]
nqpoint: 2600   
reciprocal_lattice:
- [   0.28137962,   0.00000000,   0.00000000 ] # a*
- [   0.00000000,   0.28137962,   0.00000000 ] # b*
- [   0.00000000,   0.00000000,   0.28137962 ] # c*
natom:   8      
lattice:
- [     3.553917640814392,     0.000000000000000,     0.000000000000000 ] # a
- [     0.000000000000000,     3.553917640814392,     0.000000000000000 ] # b
- [     0.000000000000000,     0.000000000000000,     3.553917640814392 ] # c
points:
- symbol: C  # 1
  coordinates: [  0.250000000000000,  0.750000000000000,  0.250000000000000 ]
  mass: 12.010700
- symbol: C  # 2
  coordinates: [  0.000000000000000,  0.000000000000000,  0.500000000000000 ]
  mass: 12.010700
- symbol: C  # 3
  coordinates: [  0.250000000000000,  0.250000000000000,  0.750000000000000 ]
  mass: 12.010700
- symbol: C  # 4
  coordinates: [  0.000000000000000,  0.500000000000000,  0.000000000000000 ]
  mass: 12.010700
- symbol: C  # 5
  coordinates: [  0.750000000000000,  0.750000000000000,  0.750000000000000 ]
  mass: 12.010700
- symbol: C  # 6
  coordinates: [  0.500000000000000,  0.000000000000000,  0.000000000000000 ]
  mass: 12.010700
- symbol: C  # 7
  coordinates: [  0.750000000000000,  0.250000000000000,  0.250000000000000 ]
  mass: 12.010700
- symbol: C  # 8
  coordinates: [  0.500000000000000,  0.500000000000000,  0.500000000000000 ]
  mass: 12.010700

phonon:
- q-position: [    0.0104167,    0.0104167,    0.0104167 ]
  distance_from_gamma:  0.005076706
  weight: 8    
  band:
  - # 1
    frequency:     0.5972995084
  - # 2
    frequency:     0.5972995084
  - # 3
    frequency:     0.9326773840
  - # 4
    frequency:    23.4457956299
  - # 5
    frequency:    23.4457956299
  - # 6
    frequency:    23.4457956299
  - # 7
    frequency:    23.4597164937
  - # 8
    frequency:    23.4597164937
  - # 9
    frequency:    23.4597164937
  - # 10
    frequency:    32.5456581176
  - # 11
    frequency:    32.5456581176
  - # 12
    frequency:    32.5456581176
  - # 13
    frequency:    32.5518028926
  - # 14
    frequency:    32.5518028926
  - # 15
    frequency:    32.5518028926
  - # 16
    frequency:    36.0602534056
  - # 17
    frequency:    36.0602534056
  - # 18
    frequency:    36.0602534056
  - # 19
    frequency:    36.3994545292
  - # 20
    frequency:    36.3994545292
  - # 21
    frequency:    36.3994545292
  - # 22
    frequency:    39.3930048206
  - # 23
    frequency:    39.3930048206
  - # 24
    frequency:    39.3968015830

- q-position: [    0.0312500,    0.0104167,    0.0104167 ]
  distance_from_gamma:  0.009721152
  weight: 24   
  band:
  - # 1
    frequency:     1.1605987606
  - # 2
    frequency:     1.1880625141
  - # 3
    frequency:     1.7444971090
  - # 4
    frequency:    23.4136311391
  - # 5
    frequency:    23.4275501122
  - # 6
    frequency:    23.4556728797
  - # 7
    frequency:    23.4556728797
  - # 8
    frequency:    23.4973651898
  - # 9
    frequency:    23.4973651898
  - # 10
    frequency:    32.5305519633
  - # 11
    frequency:    32.5305519633
  - # 12
    frequency:    32.5489922409
  - # 13
    frequency:    32.5489922409
  - # 14
    frequency:    32.5670174906
  - # 15
    frequency:    32.5734320357
  - # 16
    frequency:    35.7034016381
  - # 17
    frequency:    36.0505367180
  - # 18
    frequency:    36.0505367180
  - # 19
    frequency:    36.3889387057
  - # 20
    frequency:    36.3889387057
  - # 21
    frequency:    36.7206782527
  - # 22
    frequency:    39.3814710569
  - # 23
    frequency:    39.3822459637
  - # 24
    frequency:    39.4003926706

- q-position: [    0.0520833,    0.0104167,    0.0104167 ]
  distance_from_gamma:  0.015230119
  weight: 24   
  band:
  - # 1
    frequency:     1.8536803728
  - # 2
    frequency:     1.8754104603
  - # 3
    frequency:     2.6962684163
  - # 4
    frequency:    23.3495987110
  - # 5
    frequency:    23.3635133670
  - # 6
    frequency:    23.4892202542
  - # 7
    frequency:    23.4892202542
  - # 8
    frequency:    23.5584759845
  - # 9
    frequency:    23.5584759845
  - # 10
    frequency:    32.5063571139
  - # 11
    frequency:    32.5063571139
  - # 12
    frequency:    32.5371344554
  - # 13
    frequency:    32.5371344554
  - # 14
    frequency:    32.6093277052
  - # 15
    frequency:    32.6163416377
  - # 16
    frequency:    35.3285031676
  - # 17
    frequency:    36.0313227232
  - # 18
    frequency:    36.0313227232
  - # 19
    frequency:    36.3681114556
  - # 20
    frequency:    36.3681114556
  - # 21
    frequency:    37.0244104863
  - # 22
    frequency:    39.3584295818
  - # 23
    frequency:    39.3592992982
  - # 24
    frequency:    39.4089673223

- q-position: [    0.0729167,    0.0104167,    0.0104167 ]
  distance_from_gamma:  0.020931796
  weight: 24   
  band:
  - # 1
    frequency:     2.5657652953
  - # 2
    frequency:     2.5819052772
  - # 3
    frequency:     3.6834514476
  - # 4
    frequency:    23.2542670954
  - # 5
    frequency:    23.2681739603
  - # 6
    frequency:    23.5461131053
  - # 7
    frequency:    23.5461131053
  - # 8
    frequency:    23.6425908903
  - # 9
    frequency:    23.6425908903
  - # 10
    frequency:    32.4728482864
  - # 11
    frequency:    32.4728482864
  - # 12
    frequency:    32.5160224138
  - # 13
    frequency:    32.5160224138
  - # 14
    frequency:    32.6717574014
  - # 15
    frequency:    32.6798595101
  - # 16
    frequency:    34.9355987047
  - # 17
    frequency:    36.0030469588
  - # 18
    frequency:    36.0030469588
  - # 19
    frequency:    36.3373797440
  - # 20
    frequency:    36.3373797440
  - # 21
    frequency:    37.3108299257
  - # 22
    frequency:    39.3239325764
  - # 23
    frequency:    39.3248298327
  - # 24
    frequency:    39.4217882364

- q-position: [    0.0937500,    0.0104167,    0.0104167 ]
  distance_from_gamma:  0.026703024
  weight: 24   
  band:
  - # 1
    frequency:     3.2814694414
  - # 2
    frequency:     3.2935411588
  - # 3
    frequency:     4.6821951583
  - # 4
    frequency:    23.1284329694
  - # 5
    frequency:    23.1423270572
  - # 6
    frequency:    23.6258328775
  - # 7
    frequency:    23.6258328775
  - # 8
    frequency:    23.7490660975
  - # 9
    frequency:    23.7490660975
  - # 10
    frequency:    32.4297045917
  - # 11
    frequency:    32.4297045917
  - # 12
    frequency:    32.4853436156
  - # 13
    frequency:    32.4853436156
  - # 14
    frequency:    32.7529613260
  - # 15
    frequency:    32.7630358547
  - # 16
    frequency:    34.5249372253
  - # 17
    frequency:    35.9663541556
  - # 18
    frequency:    35.9663541556
  - # 19
    frequency:    36.2973490088
  - # 20
    frequency:    36.2973490088
  - # 21
    frequency:    37.5801739680
  - # 22
    frequency:    39.2780585007
  - # 23
    frequency:    39.2789683924
  - # 24
    frequency:    39.4386177788

- q-position: [    0.1145833,    0.0104167,    0.0104167 ]
  distance_from_gamma:  0.032506781
  weight: 24   
  band:
  - # 1
    frequency:     3.9966665362
  - # 2
    frequency:     4.0057087893
  - # 3
    frequency:     5.6839638611
  - # 4
    frequency:    22.9730642913
  - # 5
    frequency:    22.9869387091
  - # 6
    frequency:    23.7276720163
  - # 7
    frequency:    23.7276720163
  - # 8
    frequency:    23.8770797549
  - # 9
    frequency:    23.8770797549
  - # 10
    frequency:    32.3765232835
  - # 11
    frequency:    32.3765232835
  - # 12
    frequency:    32.4446877465
  - # 13
    frequency:    32.4446877465
  - # 14
    frequency:    32.8506055710
  - # 15
    frequency:    32.8647022990
  - # 16
    frequency:    34.0975462374
  - # 17
    frequency:    35.9220865559
  - # 18
    frequency:    35.9220865559
  - # 19
    frequency:    36.2488159506
  - # 20
    frequency:    36.2488159506
  - # 21
    frequency:    37.8327029065
  - # 22
    frequency:    39.2209123150
  - # 23
    frequency:    39.2218299235
  - # 24
    frequency:    39.4592016006

- q-position: [    0.1354167,    0.0104167,    0.0104167 ]
  distance_from_gamma:  0.038328292
  weight: 24   
  band:
  - # 1
    frequency:     4.7095134968
  - # 2
    frequency:     4.7161901043
  - # 3
    frequency:     6.6846606116
  - # 4
    frequency:    22.7892398017
  - # 5
    frequency:    22.8030854438
  - # 6
    frequency:    23.8507400831
  - # 7
    frequency:    23.8507400831
  - # 8
    frequency:    24.0256407658
  - # 9
    frequency:    24.0256407658
  - # 10
    frequency:    32.3128392165
  - # 11
    frequency:    32.3128392165
  - # 12
    frequency:    32.3935604621
  - # 13
    frequency:    32.3935604621
  - # 14
    frequency:    32.9581835355
  - # 15
    frequency:    32.9835354922
  - # 16
    frequency:    33.6584838725
  - # 17
    frequency:    35.8712662352
  - # 18
    frequency:    35.8712662352
  - # 19
    frequency:    36.1927570240
  - # 20
    frequency:    36.1927570240
  - # 21
    frequency:    38.0686963444
  - # 22
    frequency:    39.1526257655
  - # 23
    frequency:    39.1535491176
  - # 24
    frequency:    39.4832355198

- q-position: [    0.1562500,    0.0104167,    0.0104167 ]
  distance_from_gamma:  0.044160536
  weight: 24   
  band:
  - # 1
    frequency:     5.4188483581
  - # 2
    frequency:     5.4235967446
  - # 3
    frequency:     7.6818369357
  - # 4
    frequency:    22.5780921876
  - # 5
    frequency:    22.5918975308
  - # 6
    frequency:    23.9939702457
  - # 7
    frequency:    23.9939702457
  - # 8
    frequency:    24.1935977214
  - # 9
    frequency:    24.1935977214
  - # 10
    frequency:    32.2381522160
  - # 11
    frequency:    32.2381522160
  - # 12
    frequency:    32.3314047088
  - # 13
    frequency:    32.3314047088
  - # 14
    frequency:    33.0089392918
  - # 15
    frequency:    33.1181176725
  - # 16
    frequency:    33.2729780135
  - # 17
    frequency:    35.8150700940
  - # 18
    frequency:    35.8150700940
  - # 19
    frequency:    36.1303112611
  - # 20
    frequency:    36.1303112611
  - # 21
    frequency:    38.2884523297
  - # 22
    frequency:    39.0733577282
  - # 23
    frequency:    39.0742859528
  - # 24
    frequency:    39.5103630229

- q-position: [    0.1770833,    0.0104167,    0.0104167 ]
  distance_from_gamma:  0.049999758
  weight: 24   
  band:
  - # 1
    frequency:     6.1237696014
  - # 2
    frequency:     6.1268905826
  - # 3
    frequency:     8.6737720240
  - # 4
    frequency:    22.3407601493
  - # 5
    frequency:    22.3545111534
  - # 6
    frequency:    24.1561250442
  - # 7
    frequency:    24.1561250442
  - # 8
    frequency:    24.3796469071
  - # 9
    frequency:    24.3796469071
  - # 10
    frequency:    32.1519640088
  - # 11
    frequency:    32.1519640088
  - # 12
    frequency:    32.2576314189
  - # 13
    frequency:    32.2576314189
  - # 14
    frequency:    32.6483046430
  - # 15
    frequency:    33.2669888846
  - # 16
    frequency:    33.2940428061
  - # 17
    frequency:    35.7547965332
  - # 18
    frequency:    35.7547965332
  - # 19
    frequency:    36.0627561305
  - # 20
    frequency:    36.0627561305
  - # 21
    frequency:    38.4922872431
  - # 22
    frequency:    38.9832946007
  - # 23
    frequency:    38.9842273101
  - # 24
    frequency:    39.5401771726

- q-position: [    0.1979167,    0.0104167,    0.0104167 ]
  distance_from_gamma:  0.055843769
  weight: 24   
  band:
  - # 1
    frequency:     6.8234942619
  - # 2
    frequency:     6.8252033498
  - # 3
    frequency:     9.6591121663
  - # 4
    frequency:    22.0783519796
  - # 5
    frequency:    22.0920320898
  - # 6
    frequency:    24.3358000307
  - # 7
    frequency:    24.3358000307
  - # 8
    frequency:    24.5823380648
  - # 9
    frequency:    24.5823380648
  - # 10
    frequency:    32.0538258929
  - # 11
    frequency:    32.0538258929
  - # 12
    frequency:    32.1547163164
  - # 13
    frequency:    32.1716611543
  - # 14
    frequency:    32.1716611543
  - # 15
    frequency:    33.4286881410
  - # 16
    frequency:    33.4417038038
  - # 17
    frequency:    35.6918236543
  - # 18
    frequency:    35.6918236543
  - # 19
    frequency:    35.9914755802
  - # 20
    frequency:    35.9914755802
  - # 21
    frequency:    38.6805360196
  - # 22
    frequency:    38.8826507332
  - # 23
    frequency:    38.8835877878
  - # 24
    frequency:    39.5722237355

- q-position: [    0.2187500,    0.0104167,    0.0104167 ]
  distance_from_gamma:  0.061691208
  weight: 24   
  band:
  - # 1
    frequency:     7.5173011933
  - # 2
    frequency:     7.5177586000
  - # 3
    frequency:    10.6367111052
  - # 4
    frequency:    21.7919209963
  - # 5
    frequency:    21.8055112348
  - # 6
    frequency:    24.5314234848
  - # 7
    frequency:    24.5314234848
  - # 8
    frequency:    24.8000762349
  - # 9
    frequency:    24.8000762349
  - # 10
    frequency:    31.6325207642
  - # 11
    frequency:    31.9433975631
  - # 12
    frequency:    31.9433975631
  - # 13
    frequency:    32.0729776021
  - # 14
    frequency:    32.0729776021
  - # 15
    frequency:    33.6017830902
  - # 16
    frequency:    33.6101239718
  - # 17
    frequency:    35.6275601568
  - # 18
    frequency:    35.6275601568
  - # 19
    frequency:    35.9179203254
  - # 20
    frequency:    35.9179203254
  - # 21
    frequency:    38.7716688862
  - # 22
    frequency:    38.7726103069
  - # 23
    frequency:    38.8535525476
  - # 24
    frequency:    39.6060048663

- q-position: [    0.2395833,    0.0104167,    0.0104167 ]
  distance_from_gamma:  0.067541184
  weight: 24   
  band:
  - # 1
    frequency:     8.2038343608
  - # 2
    frequency:     8.2045055065
  - # 3
    frequency:    11.6055526321
  - # 4
    frequency:    21.4824516084
  - # 5
    frequency:    21.4959307389
  - # 6
    frequency:    24.7412498187
  - # 7
    frequency:    24.7412498187
  - # 8
    frequency:    25.0311174479
  - # 9
    frequency:    25.0311174479
  - # 10
    frequency:    31.0886773039
  - # 11
    frequency:    31.8205166876
  - # 12
    frequency:    31.8205166876
  - # 13
    frequency:    31.9611928996
  - # 14
    frequency:    31.9611928996
  - # 15
    frequency:    33.7848893066
  - # 16
    frequency:    33.7909209883
  - # 17
    frequency:    35.5633917529
  - # 18
    frequency:    35.5633917529
  - # 19
    frequency:    35.8435617893
  - # 20
    frequency:    35.8435617893
  - # 21
    frequency:    38.6506207036
  - # 22
    frequency:    38.6515666526
  - # 23
    frequency:    39.0117101602
  - # 24
    frequency:    39.6409831313

- q-position: [    0.2604167,    0.0104167,    0.0104167 ]
  distance_from_gamma:  0.073393091
  weight: 24   
  band:
  - # 1
    frequency:     8.8827438800
  - # 2
    frequency:     8.8844460438
  - # 3
    frequency:    12.5647104234
  - # 4
    frequency:    21.1508539849
  - # 5
    frequency:    21.1641987313
  - # 6
    frequency:    24.9633433879
  - # 7
    frequency:    24.9633433879
  - # 8
    frequency:    25.2735551380
  - # 9
    frequency:    25.2735551380
  - # 10
    frequency:    30.5245945248
  - # 11
    frequency:    31.6852784174
  - # 12
    frequency:    31.6852784174
  - # 13
    frequency:    31.8361239589
  - # 14
    frequency:    31.8361239589
  - # 15
    frequency:    33.9766811327
  - # 16
    frequency:    33.9813428684
  - # 17
    frequency:    35.5006274918
  - # 18
    frequency:    35.5006274918
  - # 19
    frequency:    35.7698426859
  - # 20
    frequency:    35.7698426859
  - # 21
    frequency:    38.5198071886
  - # 22
    frequency:    38.5207579885
  - # 23
    frequency:    39.1554021659
  - # 24
    frequency:    39.6765857581

- q-position: [    0.2812500,    0.0104167,    0.0104167 ]
  distance_from_gamma:  0.079246501
  weight: 24   
  band:
  - # 1
    frequency:     9.5538251473
  - # 2
    frequency:     9.5564788856
  - # 3
    frequency:    13.5133261225
  - # 4
    frequency:    20.7979650772
  - # 5
    frequency:    20.8111503758
  - # 6
    frequency:    25.1955479933
  - # 7
    frequency:    25.1955479933
  - # 8
    frequency:    25.5252926580
  - # 9
    frequency:    25.5252926580
  - # 10
    frequency:    29.9407489460
  - # 11
    frequency:    31.5381247217
  - # 12
    frequency:    31.5381247217
  - # 13
    frequency:    31.6978789644
  - # 14
    frequency:    31.6978789644
  - # 15
    frequency:    34.1758962265
  - # 16
    frequency:    34.1796550820
  - # 17
    frequency:    35.4404513484
  - # 18
    frequency:    35.4404513484
  - # 19
    frequency:    35.6981286495
  - # 20
    frequency:    35.6981286495
  - # 21
    frequency:    38.3795591689
  - # 22
    frequency:    38.3805153476
  - # 23
    frequency:    39.2850423741
  - # 24
    frequency:    39.7122090308

- q-position: [    0.3020833,    0.0104167,    0.0104167 ]
  distance_from_gamma:  0.085101104
  weight: 24   
  band:
  - # 1
    frequency:    10.2164349743
  - # 2
    frequency:    10.2199738768
  - # 3
    frequency:    14.4505969342
  - # 4
    frequency:    20.4245539036
  - # 5
    frequency:    20.4375531725
  - # 6
    frequency:    25.4354351028
  - # 7
    frequency:    25.4354351028
  - # 8
    frequency:    25.7839947760
  - # 9
    frequency:    25.7839947760
  - # 10
    frequency:    29.3373687596
  - # 11
    frequency:    31.3799460417
  - # 12
    frequency:    31.3799460417
  - # 13
    frequency:    31.5469549164
  - # 14
    frequency:    31.5469549164
  - # 15
    frequency:    34.3813358102
  - # 16
    frequency:    34.3844583249
  - # 17
    frequency:    35.3838843153
  - # 18
    frequency:    35.3838843153
  - # 19
    frequency:    35.6296660490
  - # 20
    frequency:    35.6296660490
  - # 21
    frequency:    38.2302377407
  - # 22
    frequency:    38.2312000964
  - # 23
    frequency:    39.4010655806
  - # 24
    frequency:    39.7472227622

- q-position: [    0.3229167,    0.0104167,    0.0104167 ]
  distance_from_gamma:  0.090956670
  weight: 24   
  band:
  - # 1
    frequency:    10.8699455701
  - # 2
    frequency:    10.8743127556
  - # 3
    frequency:    15.3757684215
  - # 4
    frequency:    20.0313293620
  - # 5
    frequency:    20.0441147700
  - # 6
    frequency:    25.6802202888
  - # 7
    frequency:    25.6802202888
  - # 8
    frequency:    26.0470068725
  - # 9
    frequency:    26.0470068725
  - # 10
    frequency:    28.7146056537
  - # 11
    frequency:    31.2122029095
  - # 12
    frequency:    31.2122029095
  - # 13
    frequency:    31.3843515110
  - # 14
    frequency:    31.3843515110
  - # 15
    frequency:    34.5918622732
  - # 16
    frequency:    34.5945155886
  - # 17
    frequency:    35.3317608874
  - # 18
    frequency:    35.3317608874
  - # 19
    frequency:    35.5655507618
  - # 20
    frequency:    35.5655507618
  - # 21
    frequency:    38.0722346790
  - # 22
    frequency:    38.0732043637
  - # 23
    frequency:    39.5039279797
  - # 24
    frequency:    39.7809747776

- q-position: [    0.3437500,    0.0104167,    0.0104167 ]
  distance_from_gamma:  0.096813023
  weight: 24   
  band:
  - # 1
    frequency:    11.5137425365
  - # 2
    frequency:    11.5188881636
  - # 3
    frequency:    16.2881302513
  - # 4
    frequency:    19.6189492386
  - # 5
    frequency:    19.6314919625
  - # 6
    frequency:    25.9266321470
  - # 7
    frequency:    25.9266321470
  - # 8
    frequency:    26.3112237336
  - # 9
    frequency:    26.3112237336
  - # 10
    frequency:    28.0725926862
  - # 11
    frequency:    31.0370831143
  - # 12
    frequency:    31.0370831143
  - # 13
    frequency:    31.2117147293
  - # 14
    frequency:    31.2117147293
  - # 15
    frequency:    34.8063953855
  - # 16
    frequency:    34.8086917996
  - # 17
    frequency:    35.2847215635
  - # 18
    frequency:    35.2847215635
  - # 19
    frequency:    35.5067111251
  - # 20
    frequency:    35.5067111251
  - # 21
    frequency:    37.9059728059
  - # 22
    frequency:    37.9069514263
  - # 23
    frequency:    39.5941074733
  - # 24
    frequency:    39.8127953543

- q-position: [    0.3645833,    0.0104167,    0.0104167 ]
  distance_from_gamma:  0.102670030
  weight: 24   
  band:
  - # 1
    frequency:    12.1472236846
  - # 2
    frequency:    12.1531031455
  - # 3
    frequency:    17.1870136503
  - # 4
    frequency:    19.1880294704
  - # 5
    frequency:    19.2002999292
  - # 6
    frequency:    26.1707110600
  - # 7
    frequency:    26.1707110600
  - # 8
    frequency:    26.5728792403
  - # 9
    frequency:    26.5728792403
  - # 10
    frequency:    27.4114680790
  - # 11
    frequency:    30.8577199671
  - # 12
    frequency:    30.8577199671
  - # 13
    frequency:    31.0315360653
  - # 14
    frequency:    31.0315360653
  - # 15
    frequency:    35.0239080007
  - # 16
    frequency:    35.0259270235
  - # 17
    frequency:    35.2432205036
  - # 18
    frequency:    35.2432205036
  - # 19
    frequency:    35.4539058589
  - # 20
    frequency:    35.4539058589
  - # 21
    frequency:    37.7319063095
  - # 22
    frequency:    37.7328960464
  - # 23
    frequency:    39.6721038478
  - # 24
    frequency:    39.8420015631

- q-position: [    0.3854167,    0.0104167,    0.0104167 ]
  distance_from_gamma:  0.108527584
  weight: 24   
  band:
  - # 1
    frequency:    12.7697983176
  - # 2
    frequency:    12.7763709023
  - # 3
    frequency:    18.0717898604
  - # 4
    frequency:    18.7391530335
  - # 5
    frequency:    18.7511210922
  - # 6
    frequency:    26.4075091436
  - # 7
    frequency:    26.4075091436
  - # 8
    frequency:    26.7313866502
  - # 9
    frequency:    26.8272140432
  - # 10
    frequency:    26.8272140432
  - # 11
    frequency:    30.6785051556
  - # 12
    frequency:    30.6785051556
  - # 13
    frequency:    30.8474503081
  - # 14
    frequency:    30.8474503081
  - # 15
    frequency:    35.2075455325
  - # 16
    frequency:    35.2075455325
  - # 17
    frequency:    35.2434218231
  - # 18
    frequency:    35.2452220729
  - # 19
    frequency:    35.4077351048
  - # 20
    frequency:    35.4077351048
  - # 21
    frequency:    37.5505210108
  - # 22
    frequency:    37.5515247579
  - # 23
    frequency:    39.7384387906
  - # 24
    frequency:    39.8679014640

- q-position: [    0.4062500,    0.0104167,    0.0104167 ]
  distance_from_gamma:  0.114385601
  weight: 24   
  band:
  - # 1
    frequency:    13.3808867559
  - # 2
    frequency:    13.3881146489
  - # 3
    frequency:    18.2728780842
  - # 4
    frequency:    18.2845132220
  - # 5
    frequency:    18.9418691696
  - # 6
    frequency:    26.0325260886
  - # 7
    frequency:    26.6306684723
  - # 8
    frequency:    26.6306684723
  - # 9
    frequency:    27.0679680216
  - # 10
    frequency:    27.0679680216
  - # 11
    frequency:    30.5055203448
  - # 12
    frequency:    30.5055203448
  - # 13
    frequency:    30.6646918200
  - # 14
    frequency:    30.6646918200
  - # 15
    frequency:    35.1778467569
  - # 16
    frequency:    35.1778467569
  - # 17
    frequency:    35.3686605523
  - # 18
    frequency:    35.3686605523
  - # 19
    frequency:    35.4640035711
  - # 20
    frequency:    35.4656296313
  - # 21
    frequency:    37.3623345790
  - # 22
    frequency:    37.3633561041
  - # 23
    frequency:    39.7936557219
  - # 24
    frequency:    39.8897981145

- q-position: [    0.4270833,    0.0104167,    0.0104167 ]
  distance_from_gamma:  0.120244014
  weight: 24   
  band:
  - # 1
    frequency:    13.9799199455
  - # 2
    frequency:    13.9877674636
  - # 3
    frequency:    17.7897451578
  - # 4
    frequency:    17.8010165953
  - # 5
    frequency:    19.7967002608
  - # 6
    frequency:    25.3150908215
  - # 7
    frequency:    26.8319065823
  - # 8
    frequency:    26.8319065823
  - # 9
    frequency:    27.2866730108
  - # 10
    frequency:    27.2866730108
  - # 11
    frequency:    30.3470361443
  - # 12
    frequency:    30.3470361443
  - # 13
    frequency:    30.4907653395
  - # 14
    frequency:    30.4907653395
  - # 15
    frequency:    35.1541701529
  - # 16
    frequency:    35.1541701529
  - # 17
    frequency:    35.3370294298
  - # 18
    frequency:    35.3370294298
  - # 19
    frequency:    35.6847617016
  - # 20
    frequency:    35.6862482915
  - # 21
    frequency:    37.1678967024
  - # 22
    frequency:    37.1689408345
  - # 23
    frequency:    39.8383194142
  - # 24
    frequency:    39.9069933551

- q-position: [    0.4479167,    0.0104167,    0.0104167 ]
  distance_from_gamma:  0.126102767
  weight: 24   
  band:
  - # 1
    frequency:    14.5663390322
  - # 2
    frequency:    14.5747720407
  - # 3
    frequency:    17.2902833571
  - # 4
    frequency:    17.3011601410
  - # 5
    frequency:    20.6357697124
  - # 6
    frequency:    24.5793146448
  - # 7
    frequency:    27.0006167879
  - # 8
    frequency:    27.0006167879
  - # 9
    frequency:    27.4719006962
  - # 10
    frequency:    27.4719006962
  - # 11
    frequency:    30.2137576986
  - # 12
    frequency:    30.2137576986
  - # 13
    frequency:    30.3362981006
  - # 14
    frequency:    30.3362981006
  - # 15
    frequency:    35.1364931064
  - # 16
    frequency:    35.1364931064
  - # 17
    frequency:    35.3130971713
  - # 18
    frequency:    35.3130971713
  - # 19
    frequency:    35.9048437422
  - # 20
    frequency:    35.9062183732
  - # 21
    frequency:    36.9677892288
  - # 22
    frequency:    36.9688620765
  - # 23
    frequency:    39.8730153803
  - # 24
    frequency:    39.9187913421

- q-position: [    0.4687500,    0.0104167,    0.0104167 ]
  distance_from_gamma:  0.131961816
  weight: 24   
  band:
  - # 1
    frequency:    15.1395947992
  - # 2
    frequency:    15.1485802644
  - # 3
    frequency:    16.7750155455
  - # 4
    frequency:    16.7854665873
  - # 5
    frequency:    21.4586015457
  - # 6
    frequency:    23.8254626522
  - # 7
    frequency:    27.1241924965
  - # 8
    frequency:    27.1241924965
  - # 9
    frequency:    27.6091730248
  - # 10
    frequency:    27.6091730248
  - # 11
    frequency:    30.1178217536
  - # 12
    frequency:    30.1178217536
  - # 13
    frequency:    30.2157586226
  - # 14
    frequency:    30.2157586226
  - # 15
    frequency:    35.1247593467
  - # 16
    frequency:    35.1247593467
  - # 17
    frequency:    35.2970448397
  - # 18
    frequency:    35.2970448397
  - # 19
    frequency:    36.1234342089
  - # 20
    frequency:    36.1247189456
  - # 21
    frequency:    36.7626262963
  - # 22
    frequency:    36.7637355073
  - # 23
    frequency:    39.8983490051
  - # 24
    frequency:    39.9245018043

- q-position: [    0.4895833,    0.0104167,    0.0104167 ]
  distance_from_gamma:  0.137821121
  weight: 24   
  band:
  - # 1
    frequency:    15.6991468734
  - # 2
    frequency:    15.7086525222
  - # 3
    frequency:    16.2444626081
  - # 4
    frequency:    16.2544566740
  - # 5
    frequency:    22.2647567493
  - # 6
    frequency:    23.0538327294
  - # 7
    frequency:    27.1901068979
  - # 8
    frequency:    27.1901068979
  - # 9
    frequency:    27.6831314381
  - # 10
    frequency:    27.6831314381
  - # 11
    frequency:    30.0687816548
  - # 12
    frequency:    30.0687816548
  - # 13
    frequency:    30.1471827048
  - # 14
    frequency:    30.1471827048
  - # 15
    frequency:    35.1189104709
  - # 16
    frequency:    35.1189104709
  - # 17
    frequency:    35.2889896701
  - # 18
    frequency:    35.2889896701
  - # 19
    frequency:    36.3397530436
  - # 20
    frequency:    36.3409657170
  - # 21
    frequency:    36.5530544866
  - # 22
    frequency:    36.5542095604
  - # 23
    frequency:    39.9149444062
  - # 24
    frequency:    39.9234430060

- q-position: [    0.0312500,    0.0312500,    0.0104167 ]
  distance_from_gamma:  0.012776097
  weight: 24   
  band:
  - # 1
    frequency:     1.4665633645
  - # 2
    frequency:     1.5649283805
  - # 3
    frequency:     2.3261212120
  - # 4
    frequency:    23.4234453293
  - # 5
    frequency:    23.4234453293
  - # 6
    frequency:    23.4376658737
  - # 7
    frequency:    23.4651547485
  - # 8
    frequency:    23.4651547485
  - # 9
    frequency:    23.5625158363
  - # 10
    frequency:    32.5035325534
  - # 11
    frequency:    32.5508797553
  - # 12
    frequency:    32.5508797553
  - # 13
    frequency:    32.5584915328
  - # 14
    frequency:    32.5706570076
  - # 15
    frequency:    32.5706570076
  - # 16
    frequency:    35.6971286947
  - # 17
    frequency:    35.6971286947
  - # 18
    frequency:    36.0349416975
  - # 19
    frequency:    36.3839845285
  - # 20
    frequency:    36.7079165226
  - # 21
    frequency:    36.7079165226
  - # 22
    frequency:    39.3702786309
  - # 23
    frequency:    39.3757186943
  - # 24
    frequency:    39.3994508654

- q-position: [    0.0520833,    0.0312500,    0.0104167 ]
  distance_from_gamma:  0.017340253
  weight: 48   
  band:
  - # 1
    frequency:     2.0173059416
  - # 2
    frequency:     2.1343918493
  - # 3
    frequency:     3.1285895037
  - # 4
    frequency:    23.3592900866
  - # 5
    frequency:    23.4010324956
  - # 6
    frequency:    23.4433598185
  - # 7
    frequency:    23.4568355542
  - # 8
    frequency:    23.5262070351
  - # 9
    frequency:    23.6507224750
  - # 10
    frequency:    32.4678350464
  - # 11
    frequency:    32.5243106908
  - # 12
    frequency:    32.5589138948
  - # 13
    frequency:    32.5592066685
  - # 14
    frequency:    32.5908957167
  - # 15
    frequency:    32.6136310343
  - # 16
    frequency:    35.3263462007
  - # 17
    frequency:    35.6847930351
  - # 18
    frequency:    36.0045819752
  - # 19
    frequency:    36.3736845552
  - # 20
    frequency:    36.6825822618
  - # 21
    frequency:    37.0101612875
  - # 22
    frequency:    39.3474368972
  - # 23
    frequency:    39.3552574506
  - # 24
    frequency:    39.4054203062

- q-position: [    0.0729167,    0.0312500,    0.0104167 ]
  distance_from_gamma:  0.022513728
  weight: 48   
  band: