       N       E                     dE             d eps       ncg     rms          rms(c)
DAV:   1     0.506645301006E+03    0.50665E+03   -0.11410E+05  7680   0.106E+03
DAV:   2    -0.561967446155E+03   -0.10686E+04   -0.10201E+04 10240   0.232E+02
DAV:   3    -0.602393039413E+03   -0.40426E+02   -0.40193E+02 10240   0.423E+01
DAV:   4    -0.602816544821E+03   -0.42351E+00   -0.42267E+00 10176   0.478E+00
DAV:   5    -0.602825516377E+03   -0.89716E-02   -0.89675E-02  9664   0.637E-01    0.272E+01
DAV:   6    -0.587115391099E+03    0.15710E+02   -0.10347E+01  9024   0.650E+00    0.149E+01
DAV:   7    -0.581812045737E+03    0.53033E+01   -0.11762E+01  9472   0.714E+00    0.197E+00
DAV:   8    -0.581874082153E+03   -0.62036E-01   -0.26278E-01  9504   0.103E+00    0.218E-01
DAV:   9    -0.581876189915E+03   -0.21078E-02   -0.36070E-03  9920   0.145E-01    0.808E-02
DAV:  10    -0.581876638820E+03   -0.44890E-03   -0.39153E-04  9280   0.528E-02    0.799E-03
DAV:  11    -0.581876644141E+03   -0.53210E-05   -0.10851E-05 10048   0.777E-03    0.200E-03
DAV:  12    -0.581876644096E+03    0.45124E-07   -0.36180E-07  9856   0.150E-03    0.210E-04
DAV:  13    -0.581876644165E+03   -0.68954E-07   -0.53081E-09  7360   0.191E-04    0.399E-05
DAV:  14    -0.581876644187E+03   -0.22168E-07   -0.72031E-10  6240   0.666E-05    0.190E-05
DAV:  15    -0.581876644187E+03    0.36562E-09   -0.15487E-10  5952   0.291E-05
   1 F= -.58187664E+03 E0= -.58187664E+03  d E =-.291824E-17
 Linear response reoptimize wavefunctions
DAV:   1    -0.581876644186E+03    0.32378E-09   -0.28912E-11  5728   0.132E-05
DAV:   2    -0.581876644187E+03   -0.25830E-09   -0.12105E-11  5760   0.676E-06
DAV:   3    -0.581876644186E+03    0.69122E-10   -0.41452E-12  5728   0.342E-06
 Linear response DOF=           1
 Linear response progress:
  Degree of freedom:   1/  1
       N       E                     dE             d eps       ncg     rms          rms(c)
RMM:   1    -0.146965905077E+00   -0.14697E+00    0.46942E-03 56208   0.737E-01
RMM:   2    -0.124608456780E+00    0.22357E-01   -0.71639E-03 33870   0.187E-01    0.185E-01
RMM:   3    -0.124431680120E+00    0.17678E-03   -0.97989E-04 35446   0.519E-02    0.933E-02
RMM:   4    -0.124715456788E+00   -0.28378E-03   -0.27801E-04 35575   0.285E-02    0.280E-02
RMM:   5    -0.124805417458E+00   -0.89961E-04   -0.20150E-05 36138   0.792E-03    0.670E-03
RMM:   6    -0.124789636204E+00    0.15781E-04   -0.62976E-06 36579   0.198E-03    0.141E-03
RMM:   7    -0.124781311724E+00    0.83245E-05   -0.10904E-05 36886   0.627E-04    0.391E-04
RMM:   8    -0.124780431519E+00    0.88020E-06   -0.71302E-06 37540   0.253E-04    0.857E-05
RMM:   9    -0.124780219678E+00    0.21184E-06   -0.73487E-06 38570   0.133E-04    0.370E-05
RMM:  10    -0.124780297174E+00   -0.77497E-07   -0.75255E-06 39582   0.122E-04    0.106E-05
RMM:  11    -0.124780342404E+00   -0.45230E-07   -0.79344E-06 39826   0.117E-04    0.443E-06
RMM:  12    -0.124780401321E+00   -0.58917E-07   -0.84060E-06 40238   0.116E-04    0.166E-06
 Linear response finished
