 vasp.5.4.4.18Apr17-6-g9f103f2a35 (build Mar 12 2022 03:36:41) complex          
  
 executed on IFC19.0.3.199_CrayMP date 2022.12.02  01:40:34
 running on   32 total cores
 distrk:  each k-point on   32 cores,    1 groups
 distr:  one band on NCORES_PER_BAND=   1 cores,   32 groups


--------------------------------------------------------------------------------------------------------


 INCAR:
 POTCAR:   PAW_PBE C 08Apr2002                    

 ----------------------------------------------------------------------------- 
|                                                                             |
|           W    W    AA    RRRRR   N    N  II  N    N   GGGG   !!!           |
|           W    W   A  A   R    R  NN   N  II  NN   N  G    G  !!!           |
|           W    W  A    A  R    R  N N  N  II  N N  N  G       !!!           |
|           W WW W  AAAAAA  RRRRR   N  N N  II  N  N N  G  GGG   !            |
|           WW  WW  A    A  R   R   N   NN  II  N   NN  G    G                |
|           W    W  A    A  R    R  N    N  II  N    N   GGGG   !!!           |
|                                                                             |
|      For optimal performance we recommend to set                            |
|        NCORE= 4 - approx SQRT( number of cores)                             |
|      NCORE specifies how many cores store one orbital (NPAR=cpu/NCORE).     |
|      This setting can  greatly improve the performance of VASP for DFT.     |
|      The default,   NCORE=1            might be grossly inefficient         |
|      on modern multi-core architectures or massively parallel machines.     |
|      Do your own testing !!!!                                               |
|      Unfortunately you need to use the default for GW and RPA calculations. |
|      (for HF NCORE is supported but not extensively tested yet)             |
|                                                                             |
 ----------------------------------------------------------------------------- 

 POTCAR:   PAW_PBE C 08Apr2002                    
   VRHFIN =C: s2p2                                                              
   LEXCH  = PE                                                                  
   EATOM  =   147.1560 eV,   10.8157 Ry                                         
                                                                                
   TITEL  = PAW_PBE C 08Apr2002                                                 
   LULTRA =        F    use ultrasoft PP ?                                      
   IUNSCR =        0    unscreen: 0-lin 1-nonlin 2-no                           
   RPACOR =     .000    partial core radius                                     
   POMASS =   12.011; ZVAL   =    4.000    mass and valenz                      
   RCORE  =    1.500    outmost cutoff radius                                   
   RWIGS  =    1.630; RWIGS  =     .863    wigner-seitz radius (au A)           
   ENMAX  =  400.000; ENMIN  =  300.000 eV                                      
   ICORE  =        2    local potential                                         
   LCOR   =        T    correct aug charges                                     
   LPAW   =        T    paw PP                                                  
   EAUG   =  644.873                                                            
   DEXC   =     .000                                                            
   RMAX   =    2.266    core radius for proj-oper                               
   RAUG   =    1.300    factor for augmentation sphere                          
   RDEP   =    1.501    radius for radial grids                                 
   RDEPT  =    1.300    core radius for aug-charge                              
   QCUT   =   -5.516; QGAM   =   11.032    optimization parameters              
                                                                                
   Description                                                                  
     l     E      TYP  RCUT    TYP  RCUT                                        
     0   .000     23  1.200                                                     
     0   .000     23  1.200                                                     
     1   .000     23  1.500                                                     
     1  2.500     23  1.500                                                     
     2   .000      7  1.500                                                     
  local pseudopotential read in
  atomic valenz-charges read in
  non local Contribution for L=           0  read in
    real space projection operators read in
  non local Contribution for L=           0  read in
    real space projection operators read in
  non local Contribution for L=           1  read in
    real space projection operators read in
  non local Contribution for L=           1  read in
    real space projection operators read in
    PAW grid and wavefunctions read in
 
   number of l-projection  operators is LMAX  =           4
   number of lm-projection operators is LMMAX =           8
 

 ----------------------------------------------------------------------------- 
|                                                                             |
|  ADVICE TO THIS USER RUNNING 'VASP/VAMP'   (HEAR YOUR MASTER'S VOICE ...):  |
|                                                                             |
|      You have a (more or less) 'large supercell' and for larger cells       |
|      it might be more efficient to use real space projection operators      |
|      So try LREAL= Auto  in the INCAR   file.                               |
|      Mind: If you want to do a very accurate calculations keep the          |
|      reciprocal projection scheme          (i.e. LREAL=.FALSE.)             |
|                                                                             |
 ----------------------------------------------------------------------------- 

 PAW_PBE C 08Apr2002                    :
 energy of atom  1       EATOM= -147.1560
 kinetic energy error for atom=    0.0288 (will be added to EATOM!!)
 
 
 POSCAR: generated by phonopy                    
  positions in direct lattice
  No initial velocities read in
 exchange correlation table for  LEXCH =        8
   RHO(1)=    0.500       N(1)  =     2000
   RHO(2)=  100.500       N(2)  =     4000
 


--------------------------------------------------------------------------------------------------------


 ion  position               nearest neighbor table
   1  0.125  0.375  0.125-  11 1.54  25 1.54  43 1.54  57 1.54
   2  0.625  0.375  0.125-  12 1.54  26 1.54  44 1.54  58 1.54
   3  0.125  0.875  0.125-   9 1.54  27 1.54  41 1.54  59 1.54
   4  0.625  0.875  0.125-  10 1.54  28 1.54  42 1.54  60 1.54
   5  0.125  0.375  0.625-  15 1.54  29 1.54  47 1.54  61 1.54
   6  0.625  0.375  0.625-  16 1.54  30 1.54  48 1.54  62 1.54
   7  0.125  0.875  0.625-  13 1.54  31 1.54  45 1.54  63 1.54
   8  0.625  0.875  0.625-  14 1.54  32 1.54  46 1.54  64 1.54
   9  0.000  0.000  0.250-   3 1.54  17 1.54  36 1.54  50 1.54
  10  0.500  0.000  0.250-   4 1.54  18 1.54  35 1.54  49 1.54
  11  0.000  0.500  0.250-   1 1.54  19 1.54  34 1.54  52 1.54
  12  0.500  0.500  0.250-   2 1.54  20 1.54  33 1.54  51 1.54
  13  0.000  0.000  0.750-   7 1.54  21 1.54  40 1.54  54 1.54
  14  0.500  0.000  0.750-   8 1.54  22 1.54  39 1.54  53 1.54
  15  0.000  0.500  0.750-   5 1.54  23 1.54  38 1.54  56 1.54
  16  0.500  0.500  0.750-   6 1.54  24 1.54  37 1.54  55 1.54
  17  0.125  0.125  0.375-   9 1.54  29 1.54  45 1.54  57 1.54
  18  0.625  0.125  0.375-  10 1.54  30 1.54  46 1.54  58 1.54
  19  0.125  0.625  0.375-  11 1.54  31 1.54  47 1.54  59 1.54
  20  0.625  0.625  0.375-  12 1.54  32 1.54  48 1.54  60 1.54
  21  0.125  0.125  0.875-  13 1.54  25 1.54  41 1.54  61 1.54
  22  0.625  0.125  0.875-  14 1.54  26 1.54  42 1.54  62 1.54
  23  0.125  0.625  0.875-  15 1.54  27 1.54  43 1.54  63 1.54
  24  0.625  0.625  0.875-  16 1.54  28 1.54  44 1.54  64 1.54
  25  0.000  0.250  0.000-   1 1.54  21 1.54  38 1.54  50 1.54
  26  0.500  0.250  0.000-   2 1.54  22 1.54  37 1.54  49 1.54
  27  0.000  0.750  0.000-   3 1.54  23 1.54  40 1.54  52 1.54
  28  0.500  0.750  0.000-   4 1.54  24 1.54  39 1.54  51 1.54
  29  0.000  0.250  0.500-   5 1.54  17 1.54  34 1.54  54 1.54
  30  0.500  0.250  0.500-   6 1.54  18 1.54  33 1.54  53 1.54
  31  0.000  0.750  0.500-   7 1.54  19 1.54  36 1.54  56 1.54
  32  0.500  0.750  0.500-   8 1.54  20 1.54  35 1.54  55 1.54
  33  0.375  0.375  0.375-  12 1.54  30 1.54  47 1.54  57 1.54
  34  0.875  0.375  0.375-  11 1.54  29 1.54  48 1.54  58 1.54
  35  0.375  0.875  0.375-  10 1.54  32 1.54  45 1.54  59 1.54
  36  0.875  0.875  0.375-   9 1.54  31 1.54  46 1.54  60 1.54
  37  0.375  0.375  0.875-  16 1.54  26 1.54  43 1.54  61 1.54
  38  0.875  0.375  0.875-  15 1.54  25 1.54  44 1.54  62 1.54
  39  0.375  0.875  0.875-  14 1.54  28 1.54  41 1.54  63 1.54
  40  0.875  0.875  0.875-  13 1.54  27 1.54  42 1.54  64 1.54
  41  0.250  0.000  0.000-   3 1.54  21 1.54  39 1.54  49 1.54
  42  0.750  0.000  0.000-   4 1.54  22 1.54  40 1.54  50 1.54
  43  0.250  0.500  0.000-   1 1.54  23 1.54  37 1.54  51 1.54
  44  0.750  0.500  0.000-   2 1.54  24 1.54  38 1.54  52 1.54
  45  0.250  0.000  0.500-   7 1.54  17 1.54  35 1.54  53 1.54
  46  0.750  0.000  0.500-   8 1.54  18 1.54  36 1.54  54 1.54
  47  0.250  0.500  0.500-   5 1.54  19 1.54  33 1.54  55 1.54
  48  0.750  0.500  0.500-   6 1.54  20 1.54  34 1.54  56 1.54
  49  0.375  0.125  0.125-  10 1.54  26 1.54  41 1.54  57 1.54
  50  0.875  0.125  0.125-   9 1.54  25 1.54  42 1.54  58 1.54
  51  0.375  0.625  0.125-  12 1.54  28 1.54  43 1.54  59 1.54
  52  0.875  0.625  0.125-  11 1.54  27 1.54  44 1.54  60 1.54
  53  0.375  0.125  0.625-  14 1.54  30 1.54  45 1.54  61 1.54
  54  0.875  0.125  0.625-  13 1.54  29 1.54  46 1.54  62 1.54
  55  0.375  0.625  0.625-  16 1.54  32 1.54  47 1.54  63 1.54
  56  0.875  0.625  0.625-  15 1.54  31 1.54  48 1.54  64 1.54
  57  0.250  0.250  0.250-   1 1.54  17 1.54  33 1.54  49 1.54
  58  0.750  0.250  0.250-   2 1.54  18 1.54  34 1.54  50 1.54
  59  0.250  0.750  0.250-   3 1.54  19 1.54  35 1.54  51 1.54
  60  0.750  0.750  0.250-   4 1.54  20 1.54  36 1.54  52 1.54
  61  0.250  0.250  0.750-   5 1.54  21 1.54  37 1.54  53 1.54
  62  0.750  0.250  0.750-   6 1.54  22 1.54  38 1.54  54 1.54
  63  0.250  0.750  0.750-   7 1.54  23 1.54  39 1.54  55 1.54
  64  0.750  0.750  0.750-   8 1.54  24 1.54  40 1.54  56 1.54
 
  LATTYP: Found a simple cubic cell.
 ALAT       =     7.1078352816
  
  Lattice vectors:
  
 A1 = (   7.1078352816,   0.0000000000,   0.0000000000)
 A2 = (   0.0000000000,   7.1078352816,   0.0000000000)
 A3 = (   0.0000000000,   0.0000000000,   7.1078352816)


Analysis of symmetry for initial positions (statically):
=====================================================================
 Subroutine PRICEL returns following result:
 
  LATTYP: Found a face centered cubic cell.
 ALAT       =     3.5539176408
  
  Lattice vectors:
  
 A1 = (   1.7769588204,   1.7769588204,   0.0000000000)
 A2 = (   1.7769588204,   0.0000000000,  -1.7769588204)
 A3 = (   0.0000000000,   1.7769588204,  -1.7769588204)
 
  32 primitive cells build up your supercell.
 

 Routine SETGRP: Setting up the symmetry group for a 
 simple cubic supercell.


 Subroutine GETGRP returns: Found 48 space group operations
 (whereof 24 operations were pure point group operations)
 out of a pool of 48 trial point group operations.


The static configuration has the point symmetry T_d .
 The point group associated with its full space group is O_h .


Analysis of symmetry for dynamics (positions and initial velocities):
=====================================================================
 Subroutine PRICEL returns following result:
 
  LATTYP: Found a face centered cubic cell.
 ALAT       =     3.5539176408
  
  Lattice vectors:
  
 A1 = (   1.7769588204,   1.7769588204,   0.0000000000)
 A2 = (   1.7769588204,   0.0000000000,  -1.7769588204)
 A3 = (   0.0000000000,   1.7769588204,  -1.7769588204)
 
  32 primitive cells build up your supercell.
 

 Routine SETGRP: Setting up the symmetry group for a 
 simple cubic supercell.


 Subroutine GETGRP returns: Found 48 space group operations
 (whereof 24 operations were pure point group operations)
 out of a pool of 48 trial point group operations.


The dynamic configuration has the point symmetry T_d .
 The point group associated with its full space group is O_h .


 Subroutine INISYM returns: Found 48 space group operations
 (whereof 24 operations are pure point group operations),
 and found    32 'primitive' translations

 
 
 KPOINTS: kpt_density=3000                        

Automatic generation of k-mesh.
Space group operators:
 irot       det(A)        alpha          n_x          n_y          n_z        tau_x        tau_y        tau_z
    1     1.000000     0.000000     1.000000     0.000000     0.000000     0.000000     0.000000     0.000000
    2     1.000000   120.000000    -0.577350    -0.577350    -0.577350     0.000000     0.000000     0.000000
    3     1.000000   120.000000     0.577350     0.577350     0.577350     0.000000     0.000000     0.000000
    4    -1.000000    90.000000     0.000000     0.000000    -1.000000     0.000000     0.000000     0.000000
    5    -1.000000   180.000000     0.000000     0.707107     0.707107     0.000000     0.000000     0.000000
    6    -1.000000    90.000000     0.000000     1.000000     0.000000     0.000000     0.000000     0.000000
    7     1.000000   180.000000     0.000000     0.000000     1.000000     0.000000     0.000000     0.000000
    8     1.000000   120.000000    -0.577350     0.577350     0.577350     0.000000     0.000000     0.000000
    9     1.000000   120.000000    -0.577350     0.577350    -0.577350     0.000000     0.000000     0.000000
   10    -1.000000    90.000000     0.000000     0.000000     1.000000     0.000000     0.000000     0.000000
   11    -1.000000    90.000000    -1.000000     0.000000     0.000000     0.000000     0.000000     0.000000
   12    -1.000000   180.000000     0.707107     0.000000     0.707107     0.000000     0.000000     0.000000
   13     1.000000   120.000000     0.577350    -0.577350     0.577350     0.000000     0.000000     0.000000
   14     1.000000   120.000000    -0.577350    -0.577350     0.577350     0.000000     0.000000     0.000000
   15     1.000000   180.000000     1.000000     0.000000     0.000000     0.000000     0.000000     0.000000
   16    -1.000000    90.000000     0.000000    -1.000000     0.000000     0.000000     0.000000     0.000000
   17    -1.000000   180.000000     0.707107     0.707107     0.000000     0.000000     0.000000     0.000000
   18    -1.000000    90.000000     1.000000     0.000000     0.000000     0.000000     0.000000     0.000000
   19     1.000000   120.000000     0.577350    -0.577350    -0.577350     0.000000     0.000000     0.000000
   20     1.000000   180.000000     0.000000     1.000000     0.000000     0.000000     0.000000     0.000000
   21     1.000000   120.000000     0.577350     0.577350    -0.577350     0.000000     0.000000     0.000000
   22    -1.000000   180.000000     0.000000    -0.707107     0.707107     0.000000     0.000000     0.000000
   23    -1.000000   180.000000     0.707107    -0.707107     0.000000     0.000000     0.000000     0.000000
   24    -1.000000   180.000000     0.707107     0.000000    -0.707107     0.000000     0.000000     0.000000
   25    -1.000000     0.000000     1.000000     0.000000     0.000000     0.375000     0.375000    -0.375000
   26    -1.000000   120.000000    -0.577350    -0.577350    -0.577350     0.375000     0.375000    -0.375000
   27    -1.000000   120.000000     0.577350     0.577350     0.577350     0.375000     0.375000    -0.375000
   28     1.000000    90.000000     0.000000     0.000000    -1.000000     0.375000     0.375000    -0.375000
   29     1.000000   180.000000     0.000000     0.707107     0.707107     0.375000     0.375000    -0.375000
   30     1.000000    90.000000     0.000000     1.000000     0.000000     0.375000     0.375000    -0.375000
   31    -1.000000   180.000000     0.000000     0.000000     1.000000     0.375000     0.375000    -0.375000
   32    -1.000000   120.000000    -0.577350     0.577350     0.577350     0.375000     0.375000    -0.375000
   33    -1.000000   120.000000    -0.577350     0.577350    -0.577350     0.375000     0.375000    -0.375000
   34     1.000000    90.000000     0.000000     0.000000     1.000000     0.375000     0.375000    -0.375000
   35     1.000000    90.000000    -1.000000     0.000000     0.000000     0.375000     0.375000    -0.375000
   36     1.000000   180.000000     0.707107     0.000000     0.707107     0.375000     0.375000    -0.375000
   37    -1.000000   120.000000     0.577350    -0.577350     0.577350     0.375000     0.375000    -0.375000
   38    -1.000000   120.000000    -0.577350    -0.577350     0.577350     0.375000     0.375000    -0.375000
   39    -1.000000   180.000000     1.000000     0.000000     0.000000     0.375000     0.375000    -0.375000
   40     1.000000    90.000000     0.000000    -1.000000     0.000000     0.375000     0.375000    -0.375000
   41     1.000000   180.000000     0.707107     0.707107     0.000000     0.375000     0.375000    -0.375000
   42     1.000000    90.000000     1.000000     0.000000     0.000000     0.375000     0.375000    -0.375000
   43    -1.000000   120.000000     0.577350    -0.577350    -0.577350     0.375000     0.375000    -0.375000
   44    -1.000000   180.000000     0.000000     1.000000     0.000000     0.375000     0.375000    -0.375000
   45    -1.000000   120.000000     0.577350     0.577350    -0.577350     0.375000     0.375000    -0.375000
   46     1.000000   180.000000     0.000000    -0.707107     0.707107     0.375000     0.375000    -0.375000
   47     1.000000   180.000000     0.707107    -0.707107     0.000000     0.375000     0.375000    -0.375000
   48     1.000000   180.000000     0.707107     0.000000    -0.707107     0.375000     0.375000    -0.375000
 
 Subroutine IBZKPT returns following result:
 ===========================================
 
 Found     20 irreducible k-points:
 
 Following reciprocal coordinates:
            Coordinates               Weight
  0.000000  0.000000  0.000000      1.000000
  0.166667  0.000000  0.000000      6.000000
  0.333333  0.000000  0.000000      6.000000
  0.500000  0.000000  0.000000      3.000000
  0.166667  0.166667  0.000000     12.000000
  0.333333  0.166667  0.000000     24.000000
  0.500000  0.166667  0.000000     12.000000
  0.333333  0.333333  0.000000     12.000000
  0.500000  0.333333  0.000000     12.000000
  0.500000  0.500000  0.000000      3.000000
  0.166667  0.166667  0.166667      8.000000
  0.333333  0.166667  0.166667     24.000000
  0.500000  0.166667  0.166667     12.000000
  0.333333  0.333333  0.166667     24.000000
  0.500000  0.333333  0.166667     24.000000
  0.500000  0.500000  0.166667      6.000000
  0.333333  0.333333  0.333333      8.000000
  0.500000  0.333333  0.333333     12.000000
  0.500000  0.500000  0.333333      6.000000
  0.500000  0.500000  0.500000      1.000000
 
 Following cartesian coordinates:
            Coordinates               Weight
  0.000000  0.000000  0.000000      1.000000
  0.023448  0.000000  0.000000      6.000000
  0.046897  0.000000  0.000000      6.000000
  0.070345  0.000000  0.000000      3.000000
  0.023448  0.023448  0.000000     12.000000
  0.046897  0.023448  0.000000     24.000000
  0.070345  0.023448  0.000000     12.000000
  0.046897  0.046897  0.000000     12.000000
  0.070345  0.046897  0.000000     12.000000
  0.070345  0.070345  0.000000      3.000000
  0.023448  0.023448  0.023448      8.000000
  0.046897  0.023448  0.023448     24.000000
  0.070345  0.023448  0.023448     12.000000
  0.046897  0.046897  0.023448     24.000000
  0.070345  0.046897  0.023448     24.000000
  0.070345  0.070345  0.023448      6.000000
  0.046897  0.046897  0.046897      8.000000
  0.070345  0.046897  0.046897     12.000000
  0.070345  0.070345  0.046897      6.000000
  0.070345  0.070345  0.070345      1.000000
 
 
 Subroutine IBZKPT_HF returns following result:
 ==============================================
 
 Found    216 k-points in 1st BZ
 the following    216 k-points will be used (e.g. in the exchange kernel)
 Following reciprocal coordinates:   # in IRBZ
  0.000000  0.000000  0.000000    0.00462963   1 t-inv F
  0.166667  0.000000  0.000000    0.00462963   2 t-inv F
  0.333333  0.000000  0.000000    0.00462963   3 t-inv F
  0.500000  0.000000  0.000000    0.00462963   4 t-inv F
  0.166667  0.166667  0.000000    0.00462963   5 t-inv F
  0.333333  0.166667  0.000000    0.00462963   6 t-inv F
  0.500000  0.166667  0.000000    0.00462963   7 t-inv F
  0.333333  0.333333  0.000000    0.00462963   8 t-inv F
  0.500000  0.333333  0.000000    0.00462963   9 t-inv F
  0.500000  0.500000  0.000000    0.00462963  10 t-inv F
  0.166667  0.166667  0.166667    0.00462963  11 t-inv F
  0.333333  0.166667  0.166667    0.00462963  12 t-inv F
  0.500000  0.166667  0.166667    0.00462963  13 t-inv F
  0.333333  0.333333  0.166667    0.00462963  14 t-inv F
  0.500000  0.333333  0.166667    0.00462963  15 t-inv F
  0.500000  0.500000  0.166667    0.00462963  16 t-inv F
  0.333333  0.333333  0.333333    0.00462963  17 t-inv F
  0.500000  0.333333  0.333333    0.00462963  18 t-inv F
  0.500000  0.500000  0.333333    0.00462963  19 t-inv F
  0.500000  0.500000  0.500000    0.00462963  20 t-inv F
  0.000000  0.166667  0.000000    0.00462963   2 t-inv F
  0.000000  0.000000  0.166667    0.00462963   2 t-inv F
  0.000000 -0.166667  0.000000    0.00462963   2 t-inv F
  0.000000  0.000000 -0.166667    0.00462963   2 t-inv F
 -0.166667  0.000000  0.000000    0.00462963   2 t-inv F
  0.000000  0.333333  0.000000    0.00462963   3 t-inv F
  0.000000  0.000000  0.333333    0.00462963   3 t-inv F
  0.000000 -0.333333  0.000000    0.00462963   3 t-inv F
  0.000000  0.000000 -0.333333    0.00462963   3 t-inv F
 -0.333333  0.000000  0.000000    0.00462963   3 t-inv F
  0.000000  0.500000  0.000000    0.00462963   4 t-inv F
  0.000000  0.000000  0.500000    0.00462963   4 t-inv F
  0.000000  0.166667  0.166667    0.00462963   5 t-inv F
  0.166667  0.000000  0.166667    0.00462963   5 t-inv F
  0.166667 -0.166667  0.000000    0.00462963   5 t-inv F
  0.166667  0.000000 -0.166667    0.00462963   5 t-inv F
  0.000000 -0.166667 -0.166667    0.00462963   5 t-inv F
 -0.166667 -0.166667  0.000000    0.00462963   5 t-inv F
  0.000000 -0.166667  0.166667    0.00462963   5 t-inv F
 -0.166667  0.000000  0.166667    0.00462963   5 t-inv F
 -0.166667  0.166667  0.000000    0.00462963   5 t-inv F
 -0.166667  0.000000 -0.166667    0.00462963   5 t-inv F
  0.000000  0.166667 -0.166667    0.00462963   5 t-inv F
  0.000000  0.333333  0.166667    0.00462963   6 t-inv F
  0.166667  0.000000  0.333333    0.00462963   6 t-inv F
  0.166667 -0.333333  0.000000    0.00462963   6 t-inv F
  0.333333  0.000000 -0.166667    0.00462963   6 t-inv F
  0.000000 -0.166667 -0.333333    0.00462963   6 t-inv F
 -0.333333 -0.166667  0.000000    0.00462963   6 t-inv F
  0.000000 -0.333333  0.166667    0.00462963   6 t-inv F
 -0.166667  0.000000  0.333333    0.00462963   6 t-inv F
 -0.166667  0.333333  0.000000    0.00462963   6 t-inv F
 -0.333333  0.000000 -0.166667    0.00462963   6 t-inv F
  0.000000  0.166667 -0.333333    0.00462963   6 t-inv F
  0.000000 -0.333333 -0.166667    0.00462963   6 t-inv F
  0.166667  0.000000 -0.333333    0.00462963   6 t-inv F
  0.333333 -0.166667  0.000000    0.00462963   6 t-inv F
  0.000000 -0.166667  0.333333    0.00462963   6 t-inv F
 -0.166667 -0.333333  0.000000    0.00462963   6 t-inv F
 -0.333333  0.000000  0.166667    0.00462963   6 t-inv F
 -0.166667  0.000000 -0.333333    0.00462963   6 t-inv F
 -0.333333  0.166667  0.000000    0.00462963   6 t-inv F
  0.000000  0.333333 -0.166667    0.00462963   6 t-inv F
  0.333333  0.000000  0.166667    0.00462963   6 t-inv F
  0.166667  0.333333  0.000000    0.00462963   6 t-inv F
  0.000000  0.166667  0.333333    0.00462963   6 t-inv F
  0.000000  0.500000  0.166667    0.00462963   7 t-inv F
  0.166667  0.000000  0.500000    0.00462963   7 t-inv F
  0.166667 -0.500000  0.000000    0.00462963   7 t-inv F
  0.500000  0.000000 -0.166667    0.00462963   7 t-inv F
  0.000000 -0.166667 -0.500000    0.00462963   7 t-inv F
 -0.500000 -0.166667  0.000000    0.00462963   7 t-inv F
 -0.166667  0.000000  0.500000    0.00462963   7 t-inv F
 -0.166667  0.500000  0.000000    0.00462963   7 t-inv F
  0.000000  0.166667 -0.500000    0.00462963   7 t-inv F
  0.000000 -0.500000 -0.166667    0.00462963   7 t-inv F
 -0.500000  0.000000  0.166667    0.00462963   7 t-inv F
  0.000000  0.333333  0.333333    0.00462963   8 t-inv F
  0.333333  0.000000  0.333333    0.00462963   8 t-inv F
  0.333333 -0.333333  0.000000    0.00462963   8 t-inv F
  0.333333  0.000000 -0.333333    0.00462963   8 t-inv F
  0.000000 -0.333333 -0.333333    0.00462963   8 t-inv F
 -0.333333 -0.333333  0.000000    0.00462963   8 t-inv F
  0.000000 -0.333333  0.333333    0.00462963   8 t-inv F
 -0.333333  0.000000  0.333333    0.00462963   8 t-inv F
 -0.333333  0.333333  0.000000    0.00462963   8 t-inv F
 -0.333333  0.000000 -0.333333    0.00462963   8 t-inv F
  0.000000  0.333333 -0.333333    0.00462963   8 t-inv F
  0.000000  0.500000  0.333333    0.00462963   9 t-inv F
  0.333333  0.000000  0.500000    0.00462963   9 t-inv F
  0.333333 -0.500000  0.000000    0.00462963   9 t-inv F
  0.500000  0.000000 -0.333333    0.00462963   9 t-inv F
  0.000000 -0.333333 -0.500000    0.00462963   9 t-inv F
 -0.500000 -0.333333  0.000000    0.00462963   9 t-inv F
 -0.333333  0.000000  0.500000    0.00462963   9 t-inv F
 -0.333333  0.500000  0.000000    0.00462963   9 t-inv F
  0.000000  0.333333 -0.500000    0.00462963   9 t-inv F
  0.000000 -0.500000 -0.333333    0.00462963   9 t-inv F
 -0.500000  0.000000  0.333333    0.00462963   9 t-inv F
  0.000000  0.500000  0.500000    0.00462963  10 t-inv F
  0.500000  0.000000  0.500000    0.00462963  10 t-inv F
  0.166667 -0.166667 -0.166667    0.00462963  11 t-inv F
 -0.166667 -0.166667  0.166667    0.00462963  11 t-inv F
 -0.166667  0.166667 -0.166667    0.00462963  11 t-inv F
 -0.166667 -0.166667 -0.166667    0.00462963  11 t-inv F
 -0.166667  0.166667  0.166667    0.00462963  11 t-inv F
  0.166667  0.166667 -0.166667    0.00462963  11 t-inv F
  0.166667 -0.166667  0.166667    0.00462963  11 t-inv F
  0.166667  0.333333  0.166667    0.00462963  12 t-inv F
  0.166667  0.166667  0.333333    0.00462963  12 t-inv F
  0.166667 -0.333333 -0.166667    0.00462963  12 t-inv F
  0.333333 -0.166667 -0.166667    0.00462963  12 t-inv F
  0.166667 -0.166667 -0.333333    0.00462963  12 t-inv F
 -0.333333 -0.166667  0.166667    0.00462963  12 t-inv F
 -0.166667 -0.333333  0.166667    0.00462963  12 t-inv F
 -0.166667 -0.166667  0.333333    0.00462963  12 t-inv F
 -0.166667  0.333333 -0.166667    0.00462963  12 t-inv F
 -0.333333  0.166667 -0.166667    0.00462963  12 t-inv F
 -0.166667  0.166667 -0.333333    0.00462963  12 t-inv F
 -0.333333 -0.166667 -0.166667    0.00462963  12 t-inv F
 -0.166667 -0.333333 -0.166667    0.00462963  12 t-inv F
 -0.166667 -0.166667 -0.333333    0.00462963  12 t-inv F
 -0.166667  0.333333  0.166667    0.00462963  12 t-inv F
 -0.333333  0.166667  0.166667    0.00462963  12 t-inv F
 -0.166667  0.166667  0.333333    0.00462963  12 t-inv F
  0.333333  0.166667 -0.166667    0.00462963  12 t-inv F
  0.166667  0.333333 -0.166667    0.00462963  12 t-inv F
  0.166667  0.166667 -0.333333    0.00462963  12 t-inv F
  0.166667 -0.333333  0.166667    0.00462963  12 t-inv F
  0.333333 -0.166667  0.166667    0.00462963  12 t-inv F
  0.166667 -0.166667  0.333333    0.00462963  12 t-inv F
  0.166667  0.500000  0.166667    0.00462963  13 t-inv F
  0.166667  0.166667  0.500000    0.00462963  13 t-inv F
  0.166667 -0.500000 -0.166667    0.00462963  13 t-inv F
  0.500000 -0.166667 -0.166667    0.00462963  13 t-inv F
  0.166667 -0.166667 -0.500000    0.00462963  13 t-inv F
 -0.500000 -0.166667  0.166667    0.00462963  13 t-inv F
 -0.166667 -0.500000  0.166667    0.00462963  13 t-inv F
 -0.166667 -0.166667  0.500000    0.00462963  13 t-inv F
 -0.166667  0.500000 -0.166667    0.00462963  13 t-inv F
 -0.500000  0.166667 -0.166667    0.00462963  13 t-inv F
 -0.166667  0.166667 -0.500000    0.00462963  13 t-inv F
  0.166667  0.333333  0.333333    0.00462963  14 t-inv F
  0.333333  0.166667  0.333333    0.00462963  14 t-inv F
  0.333333 -0.333333 -0.166667    0.00462963  14 t-inv F
  0.333333 -0.166667 -0.333333    0.00462963  14 t-inv F
  0.166667 -0.333333 -0.333333    0.00462963  14 t-inv F
 -0.333333 -0.333333  0.166667    0.00462963  14 t-inv F
 -0.166667 -0.333333  0.333333    0.00462963  14 t-inv F
 -0.333333 -0.166667  0.333333    0.00462963  14 t-inv F
 -0.333333  0.333333 -0.166667    0.00462963  14 t-inv F
 -0.333333  0.166667 -0.333333    0.00462963  14 t-inv F
 -0.166667  0.333333 -0.333333    0.00462963  14 t-inv F
 -0.333333 -0.333333 -0.166667    0.00462963  14 t-inv F
 -0.166667 -0.333333 -0.333333    0.00462963  14 t-inv F
 -0.333333 -0.166667 -0.333333    0.00462963  14 t-inv F
 -0.333333  0.333333  0.166667    0.00462963  14 t-inv F
 -0.333333  0.166667  0.333333    0.00462963  14 t-inv F
 -0.166667  0.333333  0.333333    0.00462963  14 t-inv F
  0.333333  0.333333 -0.166667    0.00462963  14 t-inv F
  0.166667  0.333333 -0.333333    0.00462963  14 t-inv F
  0.333333  0.166667 -0.333333    0.00462963  14 t-inv F
  0.333333 -0.333333  0.166667    0.00462963  14 t-inv F
  0.333333 -0.166667  0.333333    0.00462963  14 t-inv F
  0.166667 -0.333333  0.333333    0.00462963  14 t-inv F
  0.166667  0.500000  0.333333    0.00462963  15 t-inv F
  0.333333  0.166667  0.500000    0.00462963  15 t-inv F
  0.333333 -0.500000 -0.166667    0.00462963  15 t-inv F
  0.500000 -0.166667 -0.333333    0.00462963  15 t-inv F
  0.166667 -0.333333 -0.500000    0.00462963  15 t-inv F
 -0.500000 -0.333333  0.166667    0.00462963  15 t-inv F
 -0.166667 -0.500000  0.333333    0.00462963  15 t-inv F
 -0.333333 -0.166667  0.500000    0.00462963  15 t-inv F
 -0.333333  0.500000 -0.166667    0.00462963  15 t-inv F
 -0.500000  0.166667 -0.333333    0.00462963  15 t-inv F
 -0.166667  0.333333 -0.500000    0.00462963  15 t-inv F
  0.166667 -0.500000 -0.333333    0.00462963  15 t-inv F
  0.333333 -0.166667 -0.500000    0.00462963  15 t-inv F
  0.500000 -0.333333 -0.166667    0.00462963  15 t-inv F
 -0.166667 -0.333333  0.500000    0.00462963  15 t-inv F
 -0.333333 -0.500000  0.166667    0.00462963  15 t-inv F
 -0.500000 -0.166667  0.333333    0.00462963  15 t-inv F
 -0.333333  0.166667 -0.500000    0.00462963  15 t-inv F
 -0.500000  0.333333 -0.166667    0.00462963  15 t-inv F
 -0.166667  0.500000 -0.333333    0.00462963  15 t-inv F
  0.500000  0.166667  0.333333    0.00462963  15 t-inv F
  0.333333  0.500000  0.166667    0.00462963  15 t-inv F
  0.166667  0.333333  0.500000    0.00462963  15 t-inv F
  0.166667  0.500000  0.500000    0.00462963  16 t-inv F
  0.500000  0.166667  0.500000    0.00462963  16 t-inv F
  0.500000 -0.500000 -0.166667    0.00462963  16 t-inv F
  0.500000 -0.166667 -0.500000    0.00462963  16 t-inv F
 -0.166667 -0.500000  0.500000    0.00462963  16 t-inv F
  0.333333 -0.333333 -0.333333    0.00462963  17 t-inv F
 -0.333333 -0.333333  0.333333    0.00462963  17 t-inv F
 -0.333333  0.333333 -0.333333    0.00462963  17 t-inv F
 -0.333333 -0.333333 -0.333333    0.00462963  17 t-inv F
 -0.333333  0.333333  0.333333    0.00462963  17 t-inv F
  0.333333  0.333333 -0.333333    0.00462963  17 t-inv F
  0.333333 -0.333333  0.333333    0.00462963  17 t-inv F
  0.333333  0.500000  0.333333    0.00462963  18 t-inv F
  0.333333  0.333333  0.500000    0.00462963  18 t-inv F
  0.333333 -0.500000 -0.333333    0.00462963  18 t-inv F
  0.500000 -0.333333 -0.333333    0.00462963  18 t-inv F
  0.333333 -0.333333 -0.500000    0.00462963  18 t-inv F
 -0.500000 -0.333333  0.333333    0.00462963  18 t-inv F
 -0.333333 -0.500000  0.333333    0.00462963  18 t-inv F
 -0.333333 -0.333333  0.500000    0.00462963  18 t-inv F
 -0.333333  0.500000 -0.333333    0.00462963  18 t-inv F
 -0.500000  0.333333 -0.333333    0.00462963  18 t-inv F
 -0.333333  0.333333 -0.500000    0.00462963  18 t-inv F
  0.333333  0.500000  0.500000    0.00462963  19 t-inv F
  0.500000  0.333333  0.500000    0.00462963  19 t-inv F
  0.500000 -0.500000 -0.333333    0.00462963  19 t-inv F
  0.500000 -0.333333 -0.500000    0.00462963  19 t-inv F
 -0.333333 -0.500000  0.500000    0.00462963  19 t-inv F


--------------------------------------------------------------------------------------------------------




 Dimension of arrays:
   k-points           NKPTS =     20   k-points in BZ     NKDIM =     20   number of bands    NBANDS=    192
   number of dos      NEDOS =    301   number of ions     NIONS =     64
   non local maximal  LDIM  =      4   non local SUM 2l+1 LMDIM =      8
   total plane-waves  NPLWV = 110592
   max r-space proj   IRMAX =      1   max aug-charges    IRDMAX=  29271
   dimension x,y,z NGX =    48 NGY =   48 NGZ =   48
   dimension x,y,z NGXF=    96 NGYF=   96 NGZF=   96
   support grid    NGXF=   192 NGYF=  192 NGZF=  192
   ions per type =              64
   NGX,Y,Z   is equivalent  to a cutoff of  11.23, 11.23, 11.23 a.u.
   NGXF,Y,Z  is equivalent  to a cutoff of  22.45, 22.45, 22.45 a.u.

 SYSTEM =  unknown system                          
 POSCAR =  generated by phonopy                    

 Startparameter for this run:
   NWRITE =      2    write-flag & timer
   PREC   = accura    normal or accurate (medium, high low for compatibility)
   ISTART =      0    job   : 0-new  1-cont  2-samecut
   ICHARG =      2    charge: 1-file 2-atom 10-const
   ISPIN  =      1    spin polarized calculation?
   LNONCOLLINEAR =      F non collinear calculations
   LSORBIT =      F    spin-orbit coupling
   INIWAV =      1    electr: 0-lowe 1-rand  2-diag
   LASPH  =      F    aspherical Exc in radial PAW
   METAGGA=      F    non-selfconsistent MetaGGA calc.

 Electronic Relaxation 1
   ENCUT  =  400.0 eV  29.40 Ry    5.42 a.u.  11.59 11.59 11.59*2*pi/ulx,y,z
   ENINI  =  400.0     initial cutoff
   ENAUG  =  644.9 eV  augmentation charge cutoff
   NELM   =     60;   NELMIN=  2; NELMDL= -5     # of ELM steps 
   EDIFF  = 0.1E-07   stopping-criterion for ELM
   LREAL  =      F    real-space projection
   NLSPLINE    = F    spline interpolate recip. space projectors
   LCOMPAT=      F    compatible to vasp.4.4
   GGA_COMPAT  = T    GGA compatible to vasp.4.4-vasp.4.6
   LMAXPAW     = -100 max onsite density
   LMAXMIX     =    2 max onsite mixed and CHGCAR
   VOSKOWN=      0    Vosko Wilk Nusair interpolation
   ROPT   =    0.00000
 Ionic relaxation
   EDIFFG = 0.1E-06   stopping-criterion for IOM
   NSW    =      1    number of steps for IOM
   NBLOCK =      1;   KBLOCK =      1    inner block; outer block 
   IBRION =      8    ionic relax: 0-MD 1-quasi-New 2-CG
   NFREE  =      0    steps in history (QN), initial steepest desc. (CG)
   ISIF   =      2    stress and relaxation
   IWAVPR =     11    prediction:  0-non 1-charg 2-wave 3-comb
   ISYM   =      2    0-nonsym 1-usesym 2-fastsym
   LCORR  =      T    Harris-Foulkes like correction to forces

   POTIM  = 0.5000    time-step for ionic-motion
   TEIN   =    0.0    initial temperature
   TEBEG  =    0.0;   TEEND  =   0.0 temperature during run
   SMASS  =  -3.00    Nose mass-parameter (am)
   estimated Nose-frequenzy (Omega)   =  0.10E-29 period in steps =****** mass=  -0.115E-26a.u.
   SCALEE = 1.0000    scale energy and forces
   NPACO  =    256;   APACO  = 16.0  distance and # of slots for P.C.
   PSTRESS=    0.0 pullay stress

  Mass of Ions in am
   POMASS =  12.01
  Ionic Valenz
   ZVAL   =   4.00
  Atomic Wigner-Seitz radii
   RWIGS  =  -1.00
  virtual crystal weights 
   VCA    =   1.00
   NELECT =     256.0000    total number of electrons
   NUPDOWN=      -1.0000    fix difference up-down

 DOS related values:
   EMIN   =  10.00;   EMAX   =-10.00  energy-range for DOS
   EFERMI =   0.00
   ISMEAR =     0;   SIGMA  =   0.06  broadening in eV -4-tet -1-fermi 0-gaus

 Electronic relaxation 2 (details)
   IALGO  =     38    algorithm
   LDIAG  =      T    sub-space diagonalisation (order eigenvalues)
   LSUBROT=      F    optimize rotation matrix (better conditioning)
   TURBO    =      0    0=normal 1=particle mesh
   IRESTART =      0    0=no restart 2=restart with 2 vectors
   NREBOOT  =      0    no. of reboots
   NMIN     =      0    reboot dimension
   EREF     =   0.00    reference energy to select bands
   IMIX   =      4    mixing-type and parameters
     AMIX     =   0.40;   BMIX     =  1.00
     AMIX_MAG =   1.60;   BMIX_MAG =  1.00
     AMIN     =   0.10
     WC   =   100.;   INIMIX=   1;  MIXPRE=   1;  MAXMIX= -45

 Intra band minimization:
   WEIMIN = 0.0010     energy-eigenvalue tresh-hold
   EBREAK =  0.13E-10  absolut break condition
   DEPER  =   0.30     relativ break condition  

   TIME   =   0.40     timestep for ELM

  volume/ion in A,a.u.               =       5.61        37.86
  Fermi-wavevector in a.u.,A,eV,Ry     =   1.462460  2.763650 29.100012  2.138791
  Thomas-Fermi vector in A             =   2.578671
 
 Write flags
   LWAVE        =      F    write WAVECAR
   LDOWNSAMPLE  =      F    k-point downsampling of WAVECAR
   LCHARG       =      F    write CHGCAR
   LVTOT        =      F    write LOCPOT, total local potential
   LVHAR        =      F    write LOCPOT, Hartree potential only
   LELF         =      F    write electronic localiz. function (ELF)
   LORBIT       =      0    0 simple, 1 ext, 2 COOP (PROOUT), +10 PAW based schemes


 Dipole corrections
   LMONO  =      F    monopole corrections only (constant potential shift)
   LDIPOL =      F    correct potential (dipole corrections)
   IDIPOL =      0    1-x, 2-y, 3-z, 4-all directions 
   EPSILON=  1.0000000 bulk dielectric constant

 Exchange correlation treatment:
   GGA     =    --    GGA type
   LEXCH   =     8    internal setting for exchange type
   VOSKOWN=      0    Vosko Wilk Nusair interpolation
   LHFCALC =     F    Hartree Fock is set to
   LHFONE  =     F    Hartree Fock one center treatment
   AEXX    =    0.0000 exact exchange contribution

 Linear response parameters
   LEPSILON=     F    determine dielectric tensor
   LRPA    =     F    only Hartree local field effects (RPA)
   LNABLA  =     F    use nabla operator in PAW spheres
   LVEL    =     F    velocity operator in full k-point grid
   LINTERFAST=   F  fast interpolation
   KINTER  =     0    interpolate to denser k-point grid
   CSHIFT  =0.1000    complex shift for real part using Kramers Kronig
   OMEGAMAX=  -1.0    maximum frequency
   DEG_THRESHOLD= 0.2000000E-02 threshold for treating states as degnerate
   RTIME   =   -0.100 relaxation time in fs
  (WPLASMAI=    0.000 imaginary part of plasma frequency in eV, 0.658/RTIME)
   DFIELD  = 0.0000000 0.0000000 0.0000000 field for delta impulse in time
 
 Orbital magnetization related:
   ORBITALMAG=     F  switch on orbital magnetization
   LCHIMAG   =     F  perturbation theory with respect to B field
   DQ        =  0.001000  dq finite difference perturbation B field
   LLRAUG    =     F  two centre corrections for induced B field



--------------------------------------------------------------------------------------------------------


 linear response using symmetry
 charge density and potential will be updated during run
 non-spin polarized calculation
 Variant of blocked Davidson
 Davidson routine will perform the subspace rotation
 perform sub-space diagonalisation
    after iterative eigenvector-optimisation
 modified Broyden-mixing scheme, WC =      100.0
 initial mixing is a Kerker type mixing with AMIX =  0.4000 and BMIX =      1.0000
 Hartree-type preconditioning will be used
 using additional bands           64
 reciprocal scheme for non local part
 calculate Harris-corrections to forces 
   (improved forces if not selfconsistent)
 use gradient corrections 
 use of overlap-Matrix (Vanderbilt PP)
 Gauss-broadening in eV      SIGMA  =   0.06


--------------------------------------------------------------------------------------------------------


  energy-cutoff  :      400.00
  volume of cell :      359.10
      direct lattice vectors                 reciprocal lattice vectors
     7.107835282  0.000000000  0.000000000     0.140689811  0.000000000  0.000000000
     0.000000000  7.107835282  0.000000000     0.000000000  0.140689811  0.000000000
     0.000000000  0.000000000  7.107835282     0.000000000  0.000000000  0.140689811

  length of vectors
     7.107835282  7.107835282  7.107835282     0.140689811  0.140689811  0.140689811


 
 k-points in units of 2pi/SCALE and weight: kpt_density=3000                        
   0.00000000  0.00000000  0.00000000       0.005
   0.02344830  0.00000000  0.00000000       0.028
   0.04689660  0.00000000  0.00000000       0.028
   0.07034491  0.00000000  0.00000000       0.014
   0.02344830  0.02344830  0.00000000       0.056
   0.04689660  0.02344830  0.00000000       0.111
   0.07034491  0.02344830  0.00000000       0.056
   0.04689660  0.04689660  0.00000000       0.056
   0.07034491  0.04689660  0.00000000       0.056
   0.07034491  0.07034491  0.00000000       0.014
   0.02344830  0.02344830  0.02344830       0.037
   0.04689660  0.02344830  0.02344830       0.111
   0.07034491  0.02344830  0.02344830       0.056
   0.04689660  0.04689660  0.02344830       0.111
   0.07034491  0.04689660  0.02344830       0.111
   0.07034491  0.07034491  0.02344830       0.028
   0.04689660  0.04689660  0.04689660       0.037
   0.07034491  0.04689660  0.04689660       0.056
   0.07034491  0.07034491  0.04689660       0.028
   0.07034491  0.07034491  0.07034491       0.005
 
 k-points in reciprocal lattice and weights: kpt_density=3000                        
   0.00000000  0.00000000  0.00000000       0.005
   0.16666667  0.00000000  0.00000000       0.028
   0.33333333  0.00000000  0.00000000       0.028
   0.50000000  0.00000000  0.00000000       0.014
   0.16666667  0.16666667  0.00000000       0.056
   0.33333333  0.16666667  0.00000000       0.111
   0.50000000  0.16666667  0.00000000       0.056
   0.33333333  0.33333333  0.00000000       0.056
   0.50000000  0.33333333  0.00000000       0.056
   0.50000000  0.50000000  0.00000000       0.014
   0.16666667  0.16666667  0.16666667       0.037
   0.33333333  0.16666667  0.16666667       0.111
   0.50000000  0.16666667  0.16666667       0.056
   0.33333333  0.33333333  0.16666667       0.111
   0.50000000  0.33333333  0.16666667       0.111
   0.50000000  0.50000000  0.16666667       0.028
   0.33333333  0.33333333  0.33333333       0.037
   0.50000000  0.33333333  0.33333333       0.056
   0.50000000  0.50000000  0.33333333       0.028
   0.50000000  0.50000000  0.50000000       0.005
 
 position of ions in fractional coordinates (direct lattice) 
   0.12500000  0.37500000  0.12500000
   0.62500000  0.37500000  0.12500000
   0.12500000  0.87500000  0.12500000
   0.62500000  0.87500000  0.12500000
   0.12500000  0.37500000  0.62500000
   0.62500000  0.37500000  0.62500000
   0.12500000  0.87500000  0.62500000
   0.62500000  0.87500000  0.62500000
   0.00000000  0.00000000  0.25000000
   0.50000000  0.00000000  0.25000000
   0.00000000  0.50000000  0.25000000
   0.50000000  0.50000000  0.25000000
   0.00000000  0.00000000  0.75000000
   0.50000000  0.00000000  0.75000000
   0.00000000  0.50000000  0.75000000
   0.50000000  0.50000000  0.75000000
   0.12500000  0.12500000  0.37500000
   0.62500000  0.12500000  0.37500000
   0.12500000  0.62500000  0.37500000
   0.62500000  0.62500000  0.37500000
   0.12500000  0.12500000  0.87500000
   0.62500000  0.12500000  0.87500000
   0.12500000  0.62500000  0.87500000
   0.62500000  0.62500000  0.87500000
   0.00000000  0.25000000  0.00000000
   0.50000000  0.25000000  0.00000000
   0.00000000  0.75000000  0.00000000
   0.50000000  0.75000000  0.00000000
   0.00000000  0.25000000  0.50000000
   0.50000000  0.25000000  0.50000000
   0.00000000  0.75000000  0.50000000
   0.50000000  0.75000000  0.50000000
   0.37500000  0.37500000  0.37500000
   0.87500000  0.37500000  0.37500000
   0.37500000  0.87500000  0.37500000
   0.87500000  0.87500000  0.37500000
   0.37500000  0.37500000  0.87500000
   0.87500000  0.37500000  0.87500000
   0.37500000  0.87500000  0.87500000
   0.87500000  0.87500000  0.87500000
   0.25000000  0.00000000  0.00000000
   0.75000000  0.00000000  0.00000000
   0.25000000  0.50000000  0.00000000
   0.75000000  0.50000000  0.00000000
   0.25000000  0.00000000  0.50000000
   0.75000000  0.00000000  0.50000000
   0.25000000  0.50000000  0.50000000
   0.75000000  0.50000000  0.50000000
   0.37500000  0.12500000  0.12500000
   0.87500000  0.12500000  0.12500000
   0.37500000  0.62500000  0.12500000
   0.87500000  0.62500000  0.12500000
   0.37500000  0.12500000  0.62500000
   0.87500000  0.12500000  0.62500000
   0.37500000  0.62500000  0.62500000
   0.87500000  0.62500000  0.62500000
   0.25000000  0.25000000  0.25000000
   0.75000000  0.25000000  0.25000000
   0.25000000  0.75000000  0.25000000
   0.75000000  0.75000000  0.25000000
   0.25000000  0.25000000  0.75000000
   0.75000000  0.25000000  0.75000000
   0.25000000  0.75000000  0.75000000
   0.75000000  0.75000000  0.75000000
 
 position of ions in cartesian coordinates  (Angst):
   0.88847941  2.66543823  0.88847941
   4.44239705  2.66543823  0.88847941
   0.88847941  6.21935587  0.88847941
   4.44239705  6.21935587  0.88847941
   0.88847941  2.66543823  4.44239705
   4.44239705  2.66543823  4.44239705
   0.88847941  6.21935587  4.44239705
   4.44239705  6.21935587  4.44239705
   0.00000000  0.00000000  1.77695882
   3.55391764  0.00000000  1.77695882
   0.00000000  3.55391764  1.77695882
   3.55391764  3.55391764  1.77695882
   0.00000000  0.00000000  5.33087646
   3.55391764  0.00000000  5.33087646
   0.00000000  3.55391764  5.33087646
   3.55391764  3.55391764  5.33087646
   0.88847941  0.88847941  2.66543823
   4.44239705  0.88847941  2.66543823
   0.88847941  4.44239705  2.66543823
   4.44239705  4.44239705  2.66543823
   0.88847941  0.88847941  6.21935587
   4.44239705  0.88847941  6.21935587
   0.88847941  4.44239705  6.21935587
   4.44239705  4.44239705  6.21935587
   0.00000000  1.77695882  0.00000000
   3.55391764  1.77695882  0.00000000
   0.00000000  5.33087646  0.00000000
   3.55391764  5.33087646  0.00000000
   0.00000000  1.77695882  3.55391764
   3.55391764  1.77695882  3.55391764
   0.00000000  5.33087646  3.55391764
   3.55391764  5.33087646  3.55391764
   2.66543823  2.66543823  2.66543823
   6.21935587  2.66543823  2.66543823
   2.66543823  6.21935587  2.66543823
   6.21935587  6.21935587  2.66543823
   2.66543823  2.66543823  6.21935587
   6.21935587  2.66543823  6.21935587
   2.66543823  6.21935587  6.21935587
   6.21935587  6.21935587  6.21935587
   1.77695882  0.00000000  0.00000000
   5.33087646  0.00000000  0.00000000
   1.77695882  3.55391764  0.00000000
   5.33087646  3.55391764  0.00000000
   1.77695882  0.00000000  3.55391764
   5.33087646  0.00000000  3.55391764
   1.77695882  3.55391764  3.55391764
   5.33087646  3.55391764  3.55391764
   2.66543823  0.88847941  0.88847941
   6.21935587  0.88847941  0.88847941
   2.66543823  4.44239705  0.88847941
   6.21935587  4.44239705  0.88847941
   2.66543823  0.88847941  4.44239705
   6.21935587  0.88847941  4.44239705
   2.66543823  4.44239705  4.44239705
   6.21935587  4.44239705  4.44239705
   1.77695882  1.77695882  1.77695882
   5.33087646  1.77695882  1.77695882
   1.77695882  5.33087646  1.77695882
   5.33087646  5.33087646  1.77695882
   1.77695882  1.77695882  5.33087646
   5.33087646  1.77695882  5.33087646
   1.77695882  5.33087646  5.33087646
   5.33087646  5.33087646  5.33087646
 


--------------------------------------------------------------------------------------------------------


 k-point  1 :   0.0000 0.0000 0.0000  plane waves:    6619
 k-point  2 :   0.1667 0.0000 0.0000  plane waves:    6523
 k-point  3 :   0.3333 0.0000 0.0000  plane waves:    6515
 k-point  4 :   0.5000 0.0000 0.0000  plane waves:    6528
 k-point  5 :   0.1667 0.1667 0.0000  plane waves:    6541
 k-point  6 :   0.3333 0.1667 0.0000  plane waves:    6537
 k-point  7 :   0.5000 0.1667 0.0000  plane waves:    6528
 k-point  8 :   0.3333 0.3333 0.0000  plane waves:    6512
 k-point  9 :   0.5000 0.3333 0.0000  plane waves:    6494
 k-point 10 :   0.5000 0.5000 0.0000  plane waves:    6496
 k-point 11 :   0.1667 0.1667 0.1667  plane waves:    6526
 k-point 12 :   0.3333 0.1667 0.1667  plane waves:    6524
 k-point 13 :   0.5000 0.1667 0.1667  plane waves:    6546
 k-point 14 :   0.3333 0.3333 0.1667  plane waves:    6528
 k-point 15 :   0.5000 0.3333 0.1667  plane waves:    6514
 k-point 16 :   0.5000 0.5000 0.1667  plane waves:    6512
 k-point 17 :   0.3333 0.3333 0.3333  plane waves:    6557
 k-point 18 :   0.5000 0.3333 0.3333  plane waves:    6522
 k-point 19 :   0.5000 0.5000 0.3333  plane waves:    6536
 k-point 20 :   0.5000 0.5000 0.5000  plane waves:    6488

 maximum and minimum number of plane-waves per node :      6619     6488

 maximum number of plane-waves:      6619
 maximum index in each direction: 
   IXMAX=   11   IYMAX=   11   IZMAX=   11
   IXMIN=  -12   IYMIN=  -12   IZMIN=  -12


 serial   3D FFT for wavefunctions
 parallel 3D FFT for charge:
    minimum data exchange during FFTs selected (reduces bandwidth)


 total amount of memory used by VASP MPI-rank0    69501. kBytes
=======================================================================

   base      :      30000. kBytes
   nonl-proj :      15261. kBytes
   fftplans  :       4537. kBytes
   grid      :       5806. kBytes
   one-center:        196. kBytes
   wavefun   :      13701. kBytes
 
     INWAV:  cpu time    0.0004: real time    0.0005
 Broyden mixing: mesh for mixing (old mesh)
   NGX = 23   NGY = 23   NGZ = 23
  (NGX  = 96   NGY  = 96   NGZ  = 96)
  gives a total of  12167 points

 initial charge density was supplied:
 charge density of overlapping atoms calculated
 number of electron     256.0000000 magnetization 
 keeping initial charge density in first step


--------------------------------------------------------------------------------------------------------


 Maximum index for augmentation-charges         1117 (set IRDMAX)


--------------------------------------------------------------------------------------------------------


 First call to EWALD:  gamma=   0.249
 Maximum number of real-space cells 3x 3x 3
 Maximum number of reciprocal cells 3x 3x 3

    FEWALD:  cpu time    0.0087: real time    0.0087


--------------------------------------- Iteration      1(   1)  ---------------------------------------


    POTLOK:  cpu time    0.0703: real time    0.1592
    SETDIJ:  cpu time    0.0427: real time    0.0429
     EDDAV:  cpu time   13.1789: real time   13.1879
       DOS:  cpu time    0.0062: real time    0.0062
    --------------------------------------------
      LOOP:  cpu time   13.2982: real time   13.3963

 eigenvalue-minimisations  :  7680
 total energy-change (2. order) : 0.5066453E+03  (-0.1141008E+05)
 number of electron     256.0000000 magnetization 
 augmentation part      256.0000000 magnetization 

 Free energy of the ion-electron system (eV)
  ---------------------------------------------------
  alpha Z        PSCENC =       929.39381495
  Ewald energy   TEWEN  =    -11175.04925341
  -Hartree energ DENC   =      -556.07095814
  -exchange      EXHF   =         0.00000000
  -V(xc)+E(xc)   XCENC  =       917.28810179
  PAW double counting   =      2421.21235816    -2494.84305711
  entropy T*S    EENTRO =        -0.00930628
  eigenvalues    EBANDS =      1048.58127327
  atomic energy  EATOM  =      9416.14232778
  Solvation  Ediel_sol  =         0.00000000
  ---------------------------------------------------
  free energy    TOTEN  =       506.64530101 eV

  energy without entropy =      506.65460729  energy(sigma->0) =      506.64995415


--------------------------------------------------------------------------------------------------------




--------------------------------------- Iteration      1(   2)  ---------------------------------------


     EDDAV:  cpu time   16.7005: real time   16.7017
       DOS:  cpu time    0.0037: real time    0.0037
    --------------------------------------------
      LOOP:  cpu time   16.7042: real time   16.7054

 eigenvalue-minimisations  : 10240
 total energy-change (2. order) :-0.1068613E+04  (-0.1020139E+04)
 number of electron     256.0000000 magnetization 
 augmentation part      256.0000000 magnetization 

 Free energy of the ion-electron system (eV)
  ---------------------------------------------------
  alpha Z        PSCENC =       929.39381495
  Ewald energy   TEWEN  =    -11175.04925341
  -Hartree energ DENC   =      -556.07095814
  -exchange      EXHF   =         0.00000000
  -V(xc)+E(xc)   XCENC  =       917.28810179
  PAW double counting   =      2421.21235816    -2494.84305711
  entropy T*S    EENTRO =        -0.00000000
  eigenvalues    EBANDS =       -20.04078018
  atomic energy  EATOM  =      9416.14232778
  Solvation  Ediel_sol  =         0.00000000
  ---------------------------------------------------
  free energy    TOTEN  =      -561.96744615 eV

  energy without entropy =     -561.96744615  energy(sigma->0) =     -561.96744615


--------------------------------------------------------------------------------------------------------




--------------------------------------- Iteration      1(   3)  ---------------------------------------


     EDDAV:  cpu time   18.0240: real time   18.0253
       DOS:  cpu time    0.0028: real time    0.0028
    --------------------------------------------
      LOOP:  cpu time   18.0267: real time   18.0280

 eigenvalue-minimisations  : 10240
 total energy-change (2. order) :-0.4042559E+02  (-0.4019336E+02)
 number of electron     256.0000000 magnetization 
 augmentation part      256.0000000 magnetization 

 Free energy of the ion-electron system (eV)
  ---------------------------------------------------
  alpha Z        PSCENC =       929.39381495
  Ewald energy   TEWEN  =    -11175.04925341
  -Hartree energ DENC   =      -556.07095814
  -exchange      EXHF   =         0.00000000
  -V(xc)+E(xc)   XCENC  =       917.28810179
  PAW double counting   =      2421.21235816    -2494.84305711
  entropy T*S    EENTRO =        -0.00000000
  eigenvalues    EBANDS =       -60.46637344
  atomic energy  EATOM  =      9416.14232778
  Solvation  Ediel_sol  =         0.00000000
  ---------------------------------------------------
  free energy    TOTEN  =      -602.39303941 eV

  energy without entropy =     -602.39303941  energy(sigma->0) =     -602.39303941


--------------------------------------------------------------------------------------------------------




--------------------------------------- Iteration      1(   4)  ---------------------------------------


     EDDAV:  cpu time   16.6522: real time   16.6534
       DOS:  cpu time    0.0029: real time    0.0029
    --------------------------------------------
      LOOP:  cpu time   16.6551: real time   16.6563

 eigenvalue-minimisations  : 10176
 total energy-change (2. order) :-0.4235054E+00  (-0.4226666E+00)
 number of electron     256.0000000 magnetization 
 augmentation part      256.0000000 magnetization 

 Free energy of the ion-electron system (eV)
  ---------------------------------------------------
  alpha Z        PSCENC =       929.39381495
  Ewald energy   TEWEN  =    -11175.04925341
  -Hartree energ DENC   =      -556.07095814
  -exchange      EXHF   =         0.00000000
  -V(xc)+E(xc)   XCENC  =       917.28810179
  PAW double counting   =      2421.21235816    -2494.84305711
  entropy T*S    EENTRO =        -0.00000000
  eigenvalues    EBANDS =       -60.88987885
  atomic energy  EATOM  =      9416.14232778
  Solvation  Ediel_sol  =         0.00000000
  ---------------------------------------------------
  free energy    TOTEN  =      -602.81654482 eV

  energy without entropy =     -602.81654482  energy(sigma->0) =     -602.81654482


--------------------------------------------------------------------------------------------------------




--------------------------------------- Iteration      1(   5)  ---------------------------------------


     EDDAV:  cpu time   16.1239: real time   16.1252
       DOS:  cpu time    0.0031: real time    0.0031
    CHARGE:  cpu time    0.5230: real time    0.5232
    MIXING:  cpu time    0.0065: real time    0.0065
    --------------------------------------------
      LOOP:  cpu time   16.6566: real time   16.6580

 eigenvalue-minimisations  :  9664
 total energy-change (2. order) :-0.8971556E-02  (-0.8967516E-02)
 number of electron     255.9999994 magnetization 
 augmentation part        6.3844873 magnetization 

 Broyden mixing:
  rms(total) = 0.27235E+01    rms(broyden)= 0.27230E+01
  rms(prec ) = 0.39989E+01
  weight for this iteration     100.00

 Free energy of the ion-electron system (eV)
  ---------------------------------------------------
  alpha Z        PSCENC =       929.39381495
  Ewald energy   TEWEN  =    -11175.04925341
  -Hartree energ DENC   =      -556.07095814
  -exchange      EXHF   =         0.00000000
  -V(xc)+E(xc)   XCENC  =       917.28810179
  PAW double counting   =      2421.21235816    -2494.84305711
  entropy T*S    EENTRO =        -0.00000000
  eigenvalues    EBANDS =       -60.89885040
  atomic energy  EATOM  =      9416.14232778
  Solvation  Ediel_sol  =         0.00000000
  ---------------------------------------------------
  free energy    TOTEN  =      -602.82551638 eV

  energy without entropy =     -602.82551638  energy(sigma->0) =     -602.82551638


--------------------------------------------------------------------------------------------------------




--------------------------------------- Iteration      1(   6)  ---------------------------------------


    POTLOK:  cpu time    0.0854: real time    0.0857
    SETDIJ:  cpu time    0.0469: real time    0.0469
     EDDAV:  cpu time   15.7143: real time   15.7152
       DOS:  cpu time    0.0030: real time    0.0030
    CHARGE:  cpu time    0.5161: real time    0.5161
    MIXING:  cpu time    0.0043: real time    0.0043
    --------------------------------------------
      LOOP:  cpu time   16.3700: real time   16.3713

 eigenvalue-minimisations  :  9024
 total energy-change (2. order) : 0.1571013E+02  (-0.1034734E+01)
 number of electron     255.9999994 magnetization 
 augmentation part        6.2342335 magnetization 

 Broyden mixing:
  rms(total) = 0.14901E+01    rms(broyden)= 0.14901E+01
  rms(prec ) = 0.21690E+01
  weight for this iteration     100.00

 eigenvalues of (default mixing * dielectric matrix)
  average eigenvalue GAMMA=   2.1629
  2.1629

 Free energy of the ion-electron system (eV)
  ---------------------------------------------------
  alpha Z        PSCENC =       929.39381495
  Ewald energy   TEWEN  =    -11175.04925341
  -Hartree energ DENC   =      -678.69365777
  -exchange      EXHF   =         0.00000000
  -V(xc)+E(xc)   XCENC  =       928.78712499
  PAW double counting   =      3169.61431144    -3247.70556845
  entropy T*S    EENTRO =        -0.00000000
  eigenvalues    EBANDS =        70.39550938
  atomic energy  EATOM  =      9416.14232778
  Solvation  Ediel_sol  =         0.00000000
  ---------------------------------------------------
  free energy    TOTEN  =      -587.11539110 eV

  energy without entropy =     -587.11539110  energy(sigma->0) =     -587.11539110


--------------------------------------------------------------------------------------------------------




--------------------------------------- Iteration      1(   7)  ---------------------------------------


    POTLOK:  cpu time    0.0644: real time    0.0646
    SETDIJ:  cpu time    0.0413: real time    0.0413
     EDDAV:  cpu time   16.6162: real time   16.6171
       DOS:  cpu time    0.0032: real time    0.0032
    CHARGE:  cpu time    0.5111: real time    0.5111
    MIXING:  cpu time    0.0044: real time    0.0044
    --------------------------------------------
      LOOP:  cpu time   17.2405: real time   17.2417

 eigenvalue-minimisations  :  9472
 total energy-change (2. order) : 0.5303345E+01  (-0.1176203E+01)
 number of electron     255.9999994 magnetization 
 augmentation part        6.0765369 magnetization 

 Broyden mixing:
  rms(total) = 0.19707E+00    rms(broyden)= 0.19612E+00
  rms(prec ) = 0.24141E+00
  weight for this iteration     100.00

 eigenvalues of (default mixing * dielectric matrix)
  average eigenvalue GAMMA=   2.2744
  2.0127  2.5361

 Free energy of the ion-electron system (eV)
  ---------------------------------------------------
  alpha Z        PSCENC =       929.39381495
  Ewald energy   TEWEN  =    -11175.04925341
  -Hartree energ DENC   =      -835.66156140
  -exchange      EXHF   =         0.00000000
  -V(xc)+E(xc)   XCENC  =       943.66826279
  PAW double counting   =      4192.25626425    -4274.59608295
  entropy T*S    EENTRO =        -0.00000000
  eigenvalues    EBANDS =       222.03418225
  atomic energy  EATOM  =      9416.14232778
  Solvation  Ediel_sol  =         0.00000000
  ---------------------------------------------------
  free energy    TOTEN  =      -581.81204574 eV

  energy without entropy =     -581.81204574  energy(sigma->0) =     -581.81204574


--------------------------------------------------------------------------------------------------------




--------------------------------------- Iteration      1(   8)  ---------------------------------------


    POTLOK:  cpu time    0.0676: real time    0.0680
    SETDIJ:  cpu time    0.0406: real time    0.0406
     EDDAV:  cpu time   15.6434: real time   15.6442
       DOS:  cpu time    0.0029: real time    0.0029
    CHARGE:  cpu time    0.6017: real time    0.6018
    MIXING:  cpu time    0.0046: real time    0.0046
    --------------------------------------------
      LOOP:  cpu time   16.3609: real time   16.3621

 eigenvalue-minimisations  :  9504
 total energy-change (2. order) :-0.6203642E-01  (-0.2627794E-01)
 number of electron     255.9999994 magnetization 
 augmentation part        6.0840020 magnetization 

 Broyden mixing:
  rms(total) = 0.21767E-01    rms(broyden)= 0.21458E-01
  rms(prec ) = 0.26409E-01
  weight for this iteration     100.00

 eigenvalues of (default mixing * dielectric matrix)
  average eigenvalue GAMMA=   2.1056
  1.4654  2.6920  2.1595

 Free energy of the ion-electron system (eV)
  ---------------------------------------------------
  alpha Z        PSCENC =       929.39381495
  Ewald energy   TEWEN  =    -11175.04925341
  -Hartree energ DENC   =      -838.99238362
  -exchange      EXHF   =         0.00000000
  -V(xc)+E(xc)   XCENC  =       944.01489197
  PAW double counting   =      4268.90808395    -4350.19072510
  entropy T*S    EENTRO =        -0.00000000
  eigenvalues    EBANDS =       223.89916132
  atomic energy  EATOM  =      9416.14232778
  Solvation  Ediel_sol  =         0.00000000
  ---------------------------------------------------
  free energy    TOTEN  =      -581.87408215 eV

  energy without entropy =     -581.87408215  energy(sigma->0) =     -581.87408215


--------------------------------------------------------------------------------------------------------




--------------------------------------- Iteration      1(   9)  ---------------------------------------


    POTLOK:  cpu time    0.0638: real time    0.0641
    SETDIJ:  cpu time    0.0417: real time    0.0417
     EDDAV:  cpu time   17.3907: real time   17.3917
       DOS:  cpu time    0.0029: real time    0.0029
    CHARGE:  cpu time    0.5109: real time    0.5109
    MIXING:  cpu time    0.0046: real time    0.0046
    --------------------------------------------
      LOOP:  cpu time   18.0147: real time   18.0160

 eigenvalue-minimisations  :  9920
 total energy-change (2. order) :-0.2107762E-02  (-0.3606979E-03)
 number of electron     255.9999994 magnetization 
 augmentation part        6.0830418 magnetization 

 Broyden mixing:
  rms(total) = 0.80772E-02    rms(broyden)= 0.80538E-02
  rms(prec ) = 0.10250E-01
  weight for this iteration     100.00

 eigenvalues of (default mixing * dielectric matrix)
  average eigenvalue GAMMA=   2.0410
  0.9665  2.7534  2.4549  1.9893

 Free energy of the ion-electron system (eV)
  ---------------------------------------------------
  alpha Z        PSCENC =       929.39381495
  Ewald energy   TEWEN  =    -11175.04925341
  -Hartree energ DENC   =      -838.48327199
  -exchange      EXHF   =         0.00000000
  -V(xc)+E(xc)   XCENC  =       943.96551503
  PAW double counting   =      4264.82752699    -4346.00286444
  entropy T*S    EENTRO =        -0.00000000
  eigenvalues    EBANDS =       223.33001517
  atomic energy  EATOM  =      9416.14232778
  Solvation  Ediel_sol  =         0.00000000
  ---------------------------------------------------
  free energy    TOTEN  =      -581.87618991 eV

  energy without entropy =     -581.87618991  energy(sigma->0) =     -581.87618991


--------------------------------------------------------------------------------------------------------




--------------------------------------- Iteration      1(  10)  ---------------------------------------


    POTLOK:  cpu time    0.0576: real time    0.0579
    SETDIJ:  cpu time    0.0413: real time    0.0413
     EDDAV:  cpu time   15.2431: real time   15.2440
       DOS:  cpu time    0.0029: real time    0.0029
    CHARGE:  cpu time    0.5114: real time    0.5114
    MIXING:  cpu time    0.0047: real time    0.0047
    --------------------------------------------
      LOOP:  cpu time   15.8610: real time   15.8622

 eigenvalue-minimisations  :  9280
 total energy-change (2. order) :-0.4489050E-03  (-0.3915303E-04)
 number of electron     255.9999994 magnetization 
 augmentation part        6.0827520 magnetization 

 Broyden mixing:
  rms(total) = 0.79942E-03    rms(broyden)= 0.78302E-03
  rms(prec ) = 0.11916E-02
  weight for this iteration     100.00

 eigenvalues of (default mixing * dielectric matrix)
  average eigenvalue GAMMA=   1.9560
  2.9317  2.5505  2.0631  0.9882  1.2463

 Free energy of the ion-electron system (eV)
  ---------------------------------------------------
  alpha Z        PSCENC =       929.39381495
  Ewald energy   TEWEN  =    -11175.04925341
  -Hartree energ DENC   =      -838.87368993
  -exchange      EXHF   =         0.00000000
  -V(xc)+E(xc)   XCENC  =       943.99933067
  PAW double counting   =      4261.00370153    -4342.19300777
  entropy T*S    EENTRO =        -0.00000000
  eigenvalues    EBANDS =       223.70013736
  atomic energy  EATOM  =      9416.14232778
  Solvation  Ediel_sol  =         0.00000000
  ---------------------------------------------------
  free energy    TOTEN  =      -581.87663882 eV

  energy without entropy =     -581.87663882  energy(sigma->0) =     -581.87663882


--------------------------------------------------------------------------------------------------------




--------------------------------------- Iteration      1(  11)  ---------------------------------------


    POTLOK:  cpu time    0.0641: real time    0.0645
    SETDIJ:  cpu time    0.0406: real time    0.0406
     EDDAV:  cpu time   17.3116: real time   17.3125
       DOS:  cpu time    0.0034: real time    0.0034
    CHARGE:  cpu time    0.5162: real time    0.5162
    MIXING:  cpu time    0.0055: real time    0.0055
    --------------------------------------------
      LOOP:  cpu time   17.9414: real time   17.9427

 eigenvalue-minimisations  : 10048
 total energy-change (2. order) :-0.5321028E-05  (-0.1085080E-05)
 number of electron     255.9999994 magnetization 
 augmentation part        6.0825665 magnetization 

 Broyden mixing:
  rms(total) = 0.20019E-03    rms(broyden)= 0.19430E-03
  rms(prec ) = 0.26444E-03
  weight for this iteration     100.00

 eigenvalues of (default mixing * dielectric matrix)
  average eigenvalue GAMMA=   1.9967
  2.9741  2.5778  2.4128  2.0272  0.9941  0.9941

 Free energy of the ion-electron system (eV)
  ---------------------------------------------------
  alpha Z        PSCENC =       929.39381495
  Ewald energy   TEWEN  =    -11175.04925341
  -Hartree energ DENC   =      -838.99130707
  -exchange      EXHF   =         0.00000000
  -V(xc)+E(xc)   XCENC  =       944.01024006
  PAW double counting   =      4261.28762726    -4342.48164096
  entropy T*S    EENTRO =        -0.00000000
  eigenvalues    EBANDS =       223.81154724
  atomic energy  EATOM  =      9416.14232778
  Solvation  Ediel_sol  =         0.00000000
  ---------------------------------------------------
  free energy    TOTEN  =      -581.87664414 eV

  energy without entropy =     -581.87664414  energy(sigma->0) =     -581.87664414


--------------------------------------------------------------------------------------------------------




--------------------------------------- Iteration      1(  12)  ---------------------------------------


    POTLOK:  cpu time    0.0614: real time    0.0618
    SETDIJ:  cpu time    0.0408: real time    0.0408
     EDDAV:  cpu time   16.7001: real time   16.7010
       DOS:  cpu time    0.0028: real time    0.0028
    CHARGE:  cpu time    0.5216: real time    0.5216
    MIXING:  cpu time    0.0050: real time    0.0049
    --------------------------------------------
      LOOP:  cpu time   17.3318: real time   17.3331

 eigenvalue-minimisations  :  9856
 total energy-change (2. order) : 0.4512367E-07  (-0.3618015E-07)
 number of electron     255.9999994 magnetization 
 augmentation part        6.0825829 magnetization 

 Broyden mixing:
  rms(total) = 0.20956E-04    rms(broyden)= 0.19541E-04
  rms(prec ) = 0.28518E-04
  weight for this iteration     100.00

 eigenvalues of (default mixing * dielectric matrix)
  average eigenvalue GAMMA=   1.8883
  2.9251  2.6526  2.5087  2.0400  0.9816  1.0551  1.0551

 Free energy of the ion-electron system (eV)
  ---------------------------------------------------
  alpha Z        PSCENC =       929.39381495
  Ewald energy   TEWEN  =    -11175.04925341
  -Hartree energ DENC   =      -838.97589370
  -exchange      EXHF   =         0.00000000
  -V(xc)+E(xc)   XCENC  =       944.00882315
  PAW double counting   =      4261.36607290    -4342.55847720
  entropy T*S    EENTRO =        -0.00000000
  eigenvalues    EBANDS =       223.79594143
  atomic energy  EATOM  =      9416.14232778
  Solvation  Ediel_sol  =         0.00000000
  ---------------------------------------------------
  free energy    TOTEN  =      -581.87664410 eV

  energy without entropy =     -581.87664410  energy(sigma->0) =     -581.87664410


--------------------------------------------------------------------------------------------------------




--------------------------------------- Iteration      1(  13)  ---------------------------------------


    POTLOK:  cpu time    0.0647: real time    0.0651
    SETDIJ:  cpu time    0.0413: real time    0.0413
     EDDAV:  cpu time   13.8965: real time   13.8972
       DOS:  cpu time    0.0029: real time    0.0029
    CHARGE:  cpu time    0.5204: real time    0.5204
    MIXING:  cpu time    0.0077: real time    0.0077
    --------------------------------------------
      LOOP:  cpu time   14.5334: real time   14.5346

 eigenvalue-minimisations  :  7360
 total energy-change (2. order) :-0.6895425E-07  (-0.5308058E-09)
 number of electron     255.9999994 magnetization 
 augmentation part        6.0825815 magnetization 

 Broyden mixing:
  rms(total) = 0.39878E-05    rms(broyden)= 0.37248E-05
  rms(prec ) = 0.44839E-05
  weight for this iteration     100.00

 eigenvalues of (default mixing * dielectric matrix)
  average eigenvalue GAMMA=   1.9898
  2.9039  2.9039  2.0387  2.5897  2.5006  1.0069  1.0069  0.9675

 Free energy of the ion-electron system (eV)
  ---------------------------------------------------
  alpha Z        PSCENC =       929.39381495
  Ewald energy   TEWEN  =    -11175.04925341
  -Hartree energ DENC   =      -838.97365252
  -exchange      EXHF   =         0.00000000
  -V(xc)+E(xc)   XCENC  =       944.00861139
  PAW double counting   =      4261.36109302    -4342.55341132
  entropy T*S    EENTRO =        -0.00000000
  eigenvalues    EBANDS =       223.79382595
  atomic energy  EATOM  =      9416.14232778
  Solvation  Ediel_sol  =         0.00000000
  ---------------------------------------------------
  free energy    TOTEN  =      -581.87664416 eV

  energy without entropy =     -581.87664416  energy(sigma->0) =     -581.87664416


--------------------------------------------------------------------------------------------------------




--------------------------------------- Iteration      1(  14)  ---------------------------------------


    POTLOK:  cpu time    0.0869: real time    0.0873
    SETDIJ:  cpu time    0.0438: real time    0.0438
     EDDAV:  cpu time   12.6622: real time   12.6628
       DOS:  cpu time    0.0027: real time    0.0027
    CHARGE:  cpu time    0.5163: real time    0.5164
    MIXING:  cpu time    0.0060: real time    0.0060
    --------------------------------------------
      LOOP:  cpu time   13.3181: real time   13.3192

 eigenvalue-minimisations  :  6240
 total energy-change (2. order) :-0.2216802E-07  (-0.7203143E-10)
 number of electron     255.9999994 magnetization 
 augmentation part        6.0825818 magnetization 

 Broyden mixing:
  rms(total) = 0.19011E-05    rms(broyden)= 0.18869E-05
  rms(prec ) = 0.25314E-05
  weight for this iteration     100.00

 eigenvalues of (default mixing * dielectric matrix)
  average eigenvalue GAMMA=   1.8670
  2.0421  2.8864  2.7895  2.5309  2.5309  0.9721  0.9721  1.0394  1.0394

 Free energy of the ion-electron system (eV)
  ---------------------------------------------------
  alpha Z        PSCENC =       929.39381495
  Ewald energy   TEWEN  =    -11175.04925341
  -Hartree energ DENC   =      -838.97332479
  -exchange      EXHF   =         0.00000000
  -V(xc)+E(xc)   XCENC  =       944.00858108
  PAW double counting   =      4261.35533378    -4342.54763988
  entropy T*S    EENTRO =        -0.00000000
  eigenvalues    EBANDS =       223.79351629
  atomic energy  EATOM  =      9416.14232778
  Solvation  Ediel_sol  =         0.00000000
  ---------------------------------------------------
  free energy    TOTEN  =      -581.87664419 eV

  energy without entropy =     -581.87664419  energy(sigma->0) =     -581.87664419


--------------------------------------------------------------------------------------------------------




--------------------------------------- Iteration      1(  15)  ---------------------------------------


    POTLOK:  cpu time    0.0568: real time    0.0571
    SETDIJ:  cpu time    0.0408: real time    0.0408
     EDDAV:  cpu time   11.8371: real time   11.8377
       DOS:  cpu time    0.0028: real time    0.0028
    --------------------------------------------
      LOOP:  cpu time   11.9373: real time   11.9382

 eigenvalue-minimisations  :  5952
 total energy-change (2. order) : 0.3656169E-09  (-0.1548708E-10)
 number of electron     255.9999994 magnetization 
 augmentation part        6.0825818 magnetization 

 Free energy of the ion-electron system (eV)
  ---------------------------------------------------
  alpha Z        PSCENC =       929.39381495
  Ewald energy   TEWEN  =    -11175.04925341
  -Hartree energ DENC   =      -838.97347184
  -exchange      EXHF   =         0.00000000
  -V(xc)+E(xc)   XCENC  =       944.00859479
  PAW double counting   =      4261.35634084    -4342.54865992
  entropy T*S    EENTRO =        -0.00000000
  eigenvalues    EBANDS =       223.79366261
  atomic energy  EATOM  =      9416.14232778
  Solvation  Ediel_sol  =         0.00000000
  ---------------------------------------------------
  free energy    TOTEN  =      -581.87664419 eV

  energy without entropy =     -581.87664419  energy(sigma->0) =     -581.87664419


--------------------------------------------------------------------------------------------------------




 average (electrostatic) potential at core
  the test charge radii are     0.6991
  (the norm of the test charge is              1.0000)
       1 -45.2185       2 -45.2185       3 -45.2185       4 -45.2185       5 -45.2185
       6 -45.2185       7 -45.2185       8 -45.2185       9 -45.2185      10 -45.2185
      11 -45.2185      12 -45.2185      13 -45.2185      14 -45.2185      15 -45.2185
      16 -45.2185      17 -45.2185      18 -45.2185      19 -45.2185      20 -45.2185
      21 -45.2185      22 -45.2185      23 -45.2185      24 -45.2185      25 -45.2185
      26 -45.2185      27 -45.2185      28 -45.2185      29 -45.2185      30 -45.2185
      31 -45.2185      32 -45.2185      33 -45.2185      34 -45.2185      35 -45.2185
      36 -45.2185      37 -45.2185      38 -45.2185      39 -45.2185      40 -45.2185
      41 -45.2185      42 -45.2185      43 -45.2185      44 -45.2185      45 -45.2185
      46 -45.2185      47 -45.2185      48 -45.2185      49 -45.2185      50 -45.2185
      51 -45.2185      52 -45.2185      53 -45.2185      54 -45.2185      55 -45.2185
      56 -45.2185      57 -45.2185      58 -45.2185      59 -45.2185      60 -45.2185
      61 -45.2185      62 -45.2185      63 -45.2185      64 -45.2185
 
 
 
 E-fermi :  10.2792     XC(G=0): -13.2775     alpha+bet :-17.8920


 k-point     1 :       0.0000    0.0000    0.0000
  band No.  band energies     occupation 
      1     -11.7101      2.00000
      2      -9.4084      2.00000
      3      -9.4084      2.00000
      4      -9.4084      2.00000
      5      -9.4084      2.00000
      6      -9.4084      2.00000
      7      -9.4084      2.00000
      8      -7.2069      2.00000
      9      -7.2069      2.00000
     10      -7.2069      2.00000
     11      -7.2069      2.00000
     12      -7.2069      2.00000
     13      -7.2069      2.00000
     14      -7.2069      2.00000
     15      -7.2069      2.00000
     16      -7.2069      2.00000
     17      -7.2069      2.00000
     18      -7.2069      2.00000
     19      -7.2069      2.00000
     20      -5.8739      2.00000
     21      -5.8739      2.00000
     22      -5.8739      2.00000
     23      -5.8739      2.00000
     24      -3.5796      2.00000
     25      -3.5796      2.00000
     26      -3.5796      2.00000
     27      -3.5796      2.00000
     28      -2.9289      2.00000
     29      -2.9289      2.00000
     30      -2.9289      2.00000
     31      -2.9289      2.00000
     32      -2.9289      2.00000
     33      -2.9289      2.00000
     34      -2.1209      2.00000
     35      -2.1209      2.00000
     36      -2.1209      2.00000
     37      -2.1209      2.00000
     38      -2.1209      2.00000
     39      -2.1209      2.00000
     40      -2.1209      2.00000
     41      -2.1209      2.00000
     42      -2.1209      2.00000
     43      -2.1209      2.00000
     44      -2.1209      2.00000
     45      -2.1209      2.00000
     46       1.1579      2.00000
     47       1.1579      2.00000
     48       1.1579      2.00000
     49       1.1579      2.00000
     50       1.1579      2.00000
     51       1.1579      2.00000
     52       1.1579      2.00000
     53       1.1579      2.00000
     54       1.1579      2.00000
[...]
      4.442397  0.888479  6.219356    -0.008338   -0.013514   -0.042085  
      0.888479  4.442397  6.219356    -0.038253   -0.081959    0.042085  
      4.442397  4.442397  6.219356    -0.038253   -0.013514   -0.004042  
      0.000000  1.776959  0.000000    -0.013020   -0.059577    0.043353  
      3.553918  1.776959  0.000000    -0.013020    0.138736   -0.067739  
      0.000000  5.330876  0.000000    -0.009457   -0.059577    0.067739  
      3.553918  5.330876  0.000000    -0.009457    0.138736   -0.043353  
      0.000000  1.776959  3.553918     0.009457   -0.138736    0.043353  
      3.553918  1.776959  3.553918     0.009457    0.059577   -0.067739  
      0.000000  5.330876  3.553918     0.013020   -0.138736    0.067739  
      3.553918  5.330876  3.553918     0.013020    0.059577   -0.043353  
      2.665438  2.665438  2.665438    -0.001740    0.153771   -0.028901  
      6.219356  2.665438  2.665438    -0.001740   -0.058297    0.051237  
      2.665438  6.219356  2.665438     0.048331    0.153771   -0.051237  
      6.219356  6.219356  2.665438     0.048331   -0.058297    0.028901  
      2.665438  2.665438  6.219356    -0.048331    0.058297   -0.028901  
      6.219356  2.665438  6.219356    -0.048331   -0.153771    0.051237  
      2.665438  6.219356  6.219356     0.001740    0.058297   -0.051237  
      6.219356  6.219356  6.219356     0.001740   -0.153771    0.028901  
      1.776959  0.000000  0.000000     0.014874    0.078128   -0.010249  
      5.330876  0.000000  0.000000     0.014874    0.001031   -0.034621  
      1.776959  3.553918  0.000000    -0.037351    0.078128    0.034621  
      5.330876  3.553918  0.000000    -0.037351    0.001031    0.010249  
      1.776959  0.000000  3.553918     0.037351   -0.001031   -0.010249  
      5.330876  0.000000  3.553918     0.037351   -0.078128   -0.034621  
      1.776959  3.553918  3.553918    -0.014874   -0.001031    0.034621  
      5.330876  3.553918  3.553918    -0.014874   -0.078128    0.010249  
      2.665438  0.888479  0.888479    -0.016582    0.213481   -0.059091  
      6.219356  0.888479  0.888479    -0.016582    0.001413    0.021048  
      2.665438  4.442397  0.888479    -0.046497    0.213481   -0.021048  
      6.219356  4.442397  0.888479    -0.046497    0.001413    0.059091  
      2.665438  0.888479  4.442397     0.046497   -0.001413   -0.059091  
      6.219356  0.888479  4.442397     0.046497   -0.213481    0.021048  
      2.665438  4.442397  4.442397     0.016582   -0.001413   -0.021048  
      6.219356  4.442397  4.442397     0.016582   -0.213481    0.059091  
      1.776959  1.776959  1.776959    -0.017596    0.154385   -0.000007  
      5.330876  1.776959  1.776959    -0.017596    0.077288   -0.024379  
      1.776959  5.330876  1.776959    -0.014033    0.154385    0.024379  
      5.330876  5.330876  1.776959    -0.014033    0.077288    0.000007  
      1.776959  1.776959  5.330876     0.014033   -0.077288   -0.000007  
      5.330876  1.776959  5.330876     0.014033   -0.154385   -0.024379  
      1.776959  5.330876  5.330876     0.017596   -0.077288    0.024379  
      5.330876  5.330876  5.330876     0.017596   -0.154385    0.000007  
 
 190 f/i=    0.000007 THz     0.000044 2PiTHz    0.000233 cm-1     0.000029 meV
             X         Y         Z           dx          dy          dz
      0.888479  2.665438  0.888479     0.076591    0.098624   -0.005664  
      4.442397  2.665438  0.888479     0.076591    0.098624   -0.005664  
      0.888479  6.219356  0.888479     0.076591    0.098624   -0.005664  
      4.442397  6.219356  0.888479     0.076591    0.098624   -0.005664  
      0.888479  2.665438  4.442397     0.076591    0.098624   -0.005664  
      4.442397  2.665438  4.442397     0.076591    0.098624   -0.005664  
      0.888479  6.219356  4.442397     0.076591    0.098624   -0.005664  
      4.442397  6.219356  4.442397     0.076591    0.098624   -0.005664  
      0.000000  0.000000  1.776959     0.076591    0.098624   -0.005664  
      3.553918  0.000000  1.776959     0.076591    0.098624   -0.005664  
      0.000000  3.553918  1.776959     0.076591    0.098624   -0.005664  
      3.553918  3.553918  1.776959     0.076591    0.098624   -0.005664  
      0.000000  0.000000  5.330876     0.076591    0.098624   -0.005664  
      3.553918  0.000000  5.330876     0.076591    0.098624   -0.005664  
      0.000000  3.553918  5.330876     0.076591    0.098624   -0.005664  
      3.553918  3.553918  5.330876     0.076591    0.098624   -0.005664  
      0.888479  0.888479  2.665438     0.076591    0.098624   -0.005664  
      4.442397  0.888479  2.665438     0.076591    0.098624   -0.005664  
      0.888479  4.442397  2.665438     0.076591    0.098624   -0.005664  
      4.442397  4.442397  2.665438     0.076591    0.098624   -0.005664  
      0.888479  0.888479  6.219356     0.076591    0.098624   -0.005664  
      4.442397  0.888479  6.219356     0.076591    0.098624   -0.005664  
      0.888479  4.442397  6.219356     0.076591    0.098624   -0.005664  
      4.442397  4.442397  6.219356     0.076591    0.098624   -0.005664  
      0.000000  1.776959  0.000000     0.076591    0.098624   -0.005664  
      3.553918  1.776959  0.000000     0.076591    0.098624   -0.005664  
      0.000000  5.330876  0.000000     0.076591    0.098624   -0.005664  
      3.553918  5.330876  0.000000     0.076591    0.098624   -0.005664  
      0.000000  1.776959  3.553918     0.076591    0.098624   -0.005664  
      3.553918  1.776959  3.553918     0.076591    0.098624   -0.005664  
      0.000000  5.330876  3.553918     0.076591    0.098624   -0.005664  
      3.553918  5.330876  3.553918     0.076591    0.098624   -0.005664  
      2.665438  2.665438  2.665438     0.076591    0.098624   -0.005664  
      6.219356  2.665438  2.665438     0.076591    0.098624   -0.005664  
      2.665438  6.219356  2.665438     0.076591    0.098624   -0.005664  
      6.219356  6.219356  2.665438     0.076591    0.098624   -0.005664  
      2.665438  2.665438  6.219356     0.076591    0.098624   -0.005664  
      6.219356  2.665438  6.219356     0.076591    0.098624   -0.005664  
      2.665438  6.219356  6.219356     0.076591    0.098624   -0.005664  
      6.219356  6.219356  6.219356     0.076591    0.098624   -0.005664  
      1.776959  0.000000  0.000000     0.076591    0.098624   -0.005664  
      5.330876  0.000000  0.000000     0.076591    0.098624   -0.005664  
      1.776959  3.553918  0.000000     0.076591    0.098624   -0.005664  
      5.330876  3.553918  0.000000     0.076591    0.098624   -0.005664  
      1.776959  0.000000  3.553918     0.076591    0.098624   -0.005664  
      5.330876  0.000000  3.553918     0.076591    0.098624   -0.005664  
      1.776959  3.553918  3.553918     0.076591    0.098624   -0.005664  
      5.330876  3.553918  3.553918     0.076591    0.098624   -0.005664  
      2.665438  0.888479  0.888479     0.076591    0.098624   -0.005664  
      6.219356  0.888479  0.888479     0.076591    0.098624   -0.005664  
      2.665438  4.442397  0.888479     0.076591    0.098624   -0.005664  
      6.219356  4.442397  0.888479     0.076591    0.098624   -0.005664  
      2.665438  0.888479  4.442397     0.076591    0.098624   -0.005664  
      6.219356  0.888479  4.442397     0.076591    0.098624   -0.005664  
      2.665438  4.442397  4.442397     0.076591    0.098624   -0.005664  
      6.219356  4.442397  4.442397     0.076591    0.098624   -0.005664  
      1.776959  1.776959  1.776959     0.076591    0.098624   -0.005664  
      5.330876  1.776959  1.776959     0.076591    0.098624   -0.005664  
      1.776959  5.330876  1.776959     0.076591    0.098624   -0.005664  
      5.330876  5.330876  1.776959     0.076591    0.098624   -0.005664  
      1.776959  1.776959  5.330876     0.076591    0.098624   -0.005664  
      5.330876  1.776959  5.330876     0.076591    0.098624   -0.005664  
      1.776959  5.330876  5.330876     0.076591    0.098624   -0.005664  
      5.330876  5.330876  5.330876     0.076591    0.098624   -0.005664  
 
 191 f/i=    0.000007 THz     0.000044 2PiTHz    0.000234 cm-1     0.000029 meV
             X         Y         Z           dx          dy          dz
      0.888479  2.665438  0.888479     0.098714   -0.076683   -0.000390  
      4.442397  2.665438  0.888479     0.098714   -0.076683   -0.000390  
      0.888479  6.219356  0.888479     0.098714   -0.076683   -0.000390  
      4.442397  6.219356  0.888479     0.098714   -0.076683   -0.000390  
      0.888479  2.665438  4.442397     0.098714   -0.076683   -0.000390  
      4.442397  2.665438  4.442397     0.098714   -0.076683   -0.000390  
      0.888479  6.219356  4.442397     0.098714   -0.076683   -0.000390  
      4.442397  6.219356  4.442397     0.098714   -0.076683   -0.000390  
      0.000000  0.000000  1.776959     0.098714   -0.076683   -0.000390  
      3.553918  0.000000  1.776959     0.098714   -0.076683   -0.000390  
      0.000000  3.553918  1.776959     0.098714   -0.076683   -0.000390  
      3.553918  3.553918  1.776959     0.098714   -0.076683   -0.000390  
      0.000000  0.000000  5.330876     0.098714   -0.076683   -0.000390  
      3.553918  0.000000  5.330876     0.098714   -0.076683   -0.000390  
      0.000000  3.553918  5.330876     0.098714   -0.076683   -0.000390  
      3.553918  3.553918  5.330876     0.098714   -0.076683   -0.000390  
      0.888479  0.888479  2.665438     0.098714   -0.076683   -0.000390  
      4.442397  0.888479  2.665438     0.098714   -0.076683   -0.000390  
      0.888479  4.442397  2.665438     0.098714   -0.076683   -0.000390  
      4.442397  4.442397  2.665438     0.098714   -0.076683   -0.000390  
      0.888479  0.888479  6.219356     0.098714   -0.076683   -0.000390  
      4.442397  0.888479  6.219356     0.098714   -0.076683   -0.000390  
      0.888479  4.442397  6.219356     0.098714   -0.076683   -0.000390  
      4.442397  4.442397  6.219356     0.098714   -0.076683   -0.000390  
      0.000000  1.776959  0.000000     0.098714   -0.076683   -0.000390  
      3.553918  1.776959  0.000000     0.098714   -0.076683   -0.000390  
      0.000000  5.330876  0.000000     0.098714   -0.076683   -0.000390  
      3.553918  5.330876  0.000000     0.098714   -0.076683   -0.000390  
      0.000000  1.776959  3.553918     0.098714   -0.076683   -0.000390  
      3.553918  1.776959  3.553918     0.098714   -0.076683   -0.000390  
      0.000000  5.330876  3.553918     0.098714   -0.076683   -0.000390  
      3.553918  5.330876  3.553918     0.098714   -0.076683   -0.000390  
      2.665438  2.665438  2.665438     0.098714   -0.076683   -0.000390  
      6.219356  2.665438  2.665438     0.098714   -0.076683   -0.000390  
      2.665438  6.219356  2.665438     0.098714   -0.076683   -0.000390  
      6.219356  6.219356  2.665438     0.098714   -0.076683   -0.000390  
      2.665438  2.665438  6.219356     0.098714   -0.076683   -0.000390  
      6.219356  2.665438  6.219356     0.098714   -0.076683   -0.000390  
      2.665438  6.219356  6.219356     0.098714   -0.076683   -0.000390  
      6.219356  6.219356  6.219356     0.098714   -0.076683   -0.000390  
      1.776959  0.000000  0.000000     0.098714   -0.076683   -0.000390  
      5.330876  0.000000  0.000000     0.098714   -0.076683   -0.000390  
      1.776959  3.553918  0.000000     0.098714   -0.076683   -0.000390  
      5.330876  3.553918  0.000000     0.098714   -0.076683   -0.000390  
      1.776959  0.000000  3.553918     0.098714   -0.076683   -0.000390  
      5.330876  0.000000  3.553918     0.098714   -0.076683   -0.000390  
      1.776959  3.553918  3.553918     0.098714   -0.076683   -0.000390  
      5.330876  3.553918  3.553918     0.098714   -0.076683   -0.000390  
      2.665438  0.888479  0.888479     0.098714   -0.076683   -0.000390  
      6.219356  0.888479  0.888479     0.098714   -0.076683   -0.000390  
      2.665438  4.442397  0.888479     0.098714   -0.076683   -0.000390  
      6.219356  4.442397  0.888479     0.098714   -0.076683   -0.000390  
      2.665438  0.888479  4.442397     0.098714   -0.076683   -0.000390  
      6.219356  0.888479  4.442397     0.098714   -0.076683   -0.000390  
      2.665438  4.442397  4.442397     0.098714   -0.076683   -0.000390  
      6.219356  4.442397  4.442397     0.098714   -0.076683   -0.000390  
      1.776959  1.776959  1.776959     0.098714   -0.076683   -0.000390  
      5.330876  1.776959  1.776959     0.098714   -0.076683   -0.000390  
      1.776959  5.330876  1.776959     0.098714   -0.076683   -0.000390  
      5.330876  5.330876  1.776959     0.098714   -0.076683   -0.000390  
      1.776959  1.776959  5.330876     0.098714   -0.076683   -0.000390  
      5.330876  1.776959  5.330876     0.098714   -0.076683   -0.000390  
      1.776959  5.330876  5.330876     0.098714   -0.076683   -0.000390  
      5.330876  5.330876  5.330876     0.098714   -0.076683   -0.000390  
 
 192 f/i=    0.000007 THz     0.000044 2PiTHz    0.000235 cm-1     0.000029 meV
             X         Y         Z           dx          dy          dz
      0.888479  2.665438  0.888479    -0.003782   -0.004234   -0.124871  
      4.442397  2.665438  0.888479    -0.003782   -0.004234   -0.124871  
      0.888479  6.219356  0.888479    -0.003782   -0.004234   -0.124871  
      4.442397  6.219356  0.888479    -0.003782   -0.004234   -0.124871  
      0.888479  2.665438  4.442397    -0.003782   -0.004234   -0.124871  
      4.442397  2.665438  4.442397    -0.003782   -0.004234   -0.124871  
      0.888479  6.219356  4.442397    -0.003782   -0.004234   -0.124871  
      4.442397  6.219356  4.442397    -0.003782   -0.004234   -0.124871  
      0.000000  0.000000  1.776959    -0.003782   -0.004234   -0.124871  
      3.553918  0.000000  1.776959    -0.003782   -0.004234   -0.124871  
      0.000000  3.553918  1.776959    -0.003782   -0.004234   -0.124871  
      3.553918  3.553918  1.776959    -0.003782   -0.004234   -0.124871  
      0.000000  0.000000  5.330876    -0.003782   -0.004234   -0.124871  
      3.553918  0.000000  5.330876    -0.003782   -0.004234   -0.124871  
      0.000000  3.553918  5.330876    -0.003782   -0.004234   -0.124871  
      3.553918  3.553918  5.330876    -0.003782   -0.004234   -0.124871  
      0.888479  0.888479  2.665438    -0.003782   -0.004234   -0.124871  
      4.442397  0.888479  2.665438    -0.003782   -0.004234   -0.124871  
      0.888479  4.442397  2.665438    -0.003782   -0.004234   -0.124871  
      4.442397  4.442397  2.665438    -0.003782   -0.004234   -0.124871  
      0.888479  0.888479  6.219356    -0.003782   -0.004234   -0.124871  
      4.442397  0.888479  6.219356    -0.003782   -0.004234   -0.124871  
      0.888479  4.442397  6.219356    -0.003782   -0.004234   -0.124871  
      4.442397  4.442397  6.219356    -0.003782   -0.004234   -0.124871  
      0.000000  1.776959  0.000000    -0.003782   -0.004234   -0.124871  
      3.553918  1.776959  0.000000    -0.003782   -0.004234   -0.124871  
      0.000000  5.330876  0.000000    -0.003782   -0.004234   -0.124871  
      3.553918  5.330876  0.000000    -0.003782   -0.004234   -0.124871  
      0.000000  1.776959  3.553918    -0.003782   -0.004234   -0.124871  
      3.553918  1.776959  3.553918    -0.003782   -0.004234   -0.124871  
      0.000000  5.330876  3.553918    -0.003782   -0.004234   -0.124871  
      3.553918  5.330876  3.553918    -0.003782   -0.004234   -0.124871  
      2.665438  2.665438  2.665438    -0.003782   -0.004234   -0.124871  
      6.219356  2.665438  2.665438    -0.003782   -0.004234   -0.124871  
      2.665438  6.219356  2.665438    -0.003782   -0.004234   -0.124871  
      6.219356  6.219356  2.665438    -0.003782   -0.004234   -0.124871  
      2.665438  2.665438  6.219356    -0.003782   -0.004234   -0.124871  
      6.219356  2.665438  6.219356    -0.003782   -0.004234   -0.124871  
      2.665438  6.219356  6.219356    -0.003782   -0.004234   -0.124871  
      6.219356  6.219356  6.219356    -0.003782   -0.004234   -0.124871  
      1.776959  0.000000  0.000000    -0.003782   -0.004234   -0.124871  
      5.330876  0.000000  0.000000    -0.003782   -0.004234   -0.124871  
      1.776959  3.553918  0.000000    -0.003782   -0.004234   -0.124871  
      5.330876  3.553918  0.000000    -0.003782   -0.004234   -0.124871  
      1.776959  0.000000  3.553918    -0.003782   -0.004234   -0.124871  
      5.330876  0.000000  3.553918    -0.003782   -0.004234   -0.124871  
      1.776959  3.553918  3.553918    -0.003782   -0.004234   -0.124871  
      5.330876  3.553918  3.553918    -0.003782   -0.004234   -0.124871  
      2.665438  0.888479  0.888479    -0.003782   -0.004234   -0.124871  
      6.219356  0.888479  0.888479    -0.003782   -0.004234   -0.124871  
      2.665438  4.442397  0.888479    -0.003782   -0.004234   -0.124871  
      6.219356  4.442397  0.888479    -0.003782   -0.004234   -0.124871  
      2.665438  0.888479  4.442397    -0.003782   -0.004234   -0.124871  
      6.219356  0.888479  4.442397    -0.003782   -0.004234   -0.124871  
      2.665438  4.442397  4.442397    -0.003782   -0.004234   -0.124871  
      6.219356  4.442397  4.442397    -0.003782   -0.004234   -0.124871  
      1.776959  1.776959  1.776959    -0.003782   -0.004234   -0.124871  
      5.330876  1.776959  1.776959    -0.003782   -0.004234   -0.124871  
      1.776959  5.330876  1.776959    -0.003782   -0.004234   -0.124871  
      5.330876  5.330876  1.776959    -0.003782   -0.004234   -0.124871  
      1.776959  1.776959  5.330876    -0.003782   -0.004234   -0.124871  
      5.330876  1.776959  5.330876    -0.003782   -0.004234   -0.124871  
      1.776959  5.330876  5.330876    -0.003782   -0.004234   -0.124871  
      5.330876  5.330876  5.330876    -0.003782   -0.004234   -0.124871  
 


--------------------------------------------------------------------------------------------------------



 ELASTIC MODULI CONTR FROM IONIC RELAXATION (kBar)
 Direction    XX          YY          ZZ          XY          YZ          ZX
 --------------------------------------------------------------------------------
 XX          -0.0000     -0.0000     -0.0000     -0.0000      0.0000     -0.0000
 YY          -0.0000     -0.0000      0.0000     -0.0000      0.0000      0.0000
 ZZ          -0.0000      0.0000     -0.0000      0.0000      0.0000     -0.0000
 XY          -0.0000     -0.0000      0.0000    -65.2133      0.0000      0.0000
 YZ           0.0000      0.0000      0.0000     -0.0000    -65.2133      0.0000
 ZX          -0.0000      0.0000     -0.0000      0.0000      0.0000    -65.2133
 --------------------------------------------------------------------------------



--------------------------------------------------------------------------------------------------------


     LOOP+:  cpu time  883.2223: real time  883.5116
    4ORBIT:  cpu time    0.0000: real time    0.0000

 total amount of memory used by VASP MPI-rank0    69501. kBytes
=======================================================================

   base      :      30000. kBytes
   nonl-proj :      15261. kBytes
   fftplans  :       4537. kBytes
   grid      :       5806. kBytes
   one-center:        196. kBytes
   wavefun   :      13701. kBytes
 
  
  
 General timing and accounting informations for this job:
 ========================================================
  
                  Total CPU time used (sec):      893.973
                            User time (sec):      888.946
                          System time (sec):        5.028
                         Elapsed time (sec):      894.422
  
                   Maximum memory used (kb):      383188.
                   Average memory used (kb):           0.
  
                          Minor page faults:        39294
                          Major page faults:           35
                 Voluntary context switches:          849
