# Thermal properties / unit cell (natom)

unit:
  temperature:   K
  free_energy:   kJ/mol
  entropy:       J/K/mol
  heat_capacity: J/K/mol

natom: 8    
cutoff_frequency:    0.000
num_modes: 2654208
num_integrated_modes: 2654208

zero_point_energy:     140.4855843
high_T_entropy:        430.6490807

thermal_properties:
- temperature:         0.0000000
  free_energy:       140.4855843
  entropy:             0.0000000
  heat_capacity:       0.0000000
  energy:            140.4855843

- temperature:         2.0000000
  free_energy:       140.4855843
  entropy:             0.0000000
  heat_capacity:       0.0000000
  energy:            140.4855843

- temperature:         4.0000000
  free_energy:       140.4855843
  entropy:             0.0000077
  heat_capacity:       0.0000494
  energy:            140.4855843

- temperature:         6.0000000
  free_energy:       140.4855842
  entropy:             0.0000654
  heat_capacity:       0.0002848
  energy:            140.4855846

- temperature:         8.0000000
  free_energy:       140.4855840
  entropy:             0.0002036
  heat_capacity:       0.0007372
  energy:            140.4855856

- temperature:        10.0000000
  free_energy:       140.4855834
  entropy:             0.0004403
  heat_capacity:       0.0014628
  energy:            140.4855878

- temperature:        12.0000000
  free_energy:       140.4855821
  entropy:             0.0007961
  heat_capacity:       0.0025374
  energy:            140.4855917

- temperature:        14.0000000
  free_energy:       140.4855801
  entropy:             0.0012939
  heat_capacity:       0.0040363
  energy:            140.4855982

- temperature:        16.0000000
  free_energy:       140.4855769
  entropy:             0.0019573
  heat_capacity:       0.0060337
  energy:            140.4856082

- temperature:        18.0000000
  free_energy:       140.4855721
  entropy:             0.0028103
  heat_capacity:       0.0086039
  energy:            140.4856227

- temperature:        20.0000000
  free_energy:       140.4855655
  entropy:             0.0038774
  heat_capacity:       0.0118222
  energy:            140.4856430

- temperature:        22.0000000
  free_energy:       140.4855565
  entropy:             0.0051830
  heat_capacity:       0.0157647
  energy:            140.4856705

- temperature:        24.0000000
  free_energy:       140.4855446
  entropy:             0.0067521
  heat_capacity:       0.0205091
  energy:            140.4857066

- temperature:        26.0000000
  free_energy:       140.4855293
  entropy:             0.0086096
  heat_capacity:       0.0261345
  energy:            140.4857531

- temperature:        28.0000000
  free_energy:       140.4855099
  entropy:             0.0107813
  heat_capacity:       0.0327219
  energy:            140.4858118

- temperature:        30.0000000
  free_energy:       140.4854859
  entropy:             0.0132929
  heat_capacity:       0.0403544
  energy:            140.4858847

- temperature:        32.0000000
  free_energy:       140.4854565
  entropy:             0.0161707
  heat_capacity:       0.0491175
  energy:            140.4859740

- temperature:        34.0000000
  free_energy:       140.4854210
  entropy:             0.0194416
  heat_capacity:       0.0590992
  energy:            140.4860820

- temperature:        36.0000000
  free_energy:       140.4853785
  entropy:             0.0231328
  heat_capacity:       0.0703909
  energy:            140.4862112

- temperature:        38.0000000
  free_energy:       140.4853281
  entropy:             0.0272722
  heat_capacity:       0.0830874
  energy:            140.4863645

- temperature:        40.0000000
  free_energy:       140.4852690
  entropy:             0.0318885
  heat_capacity:       0.0972876
  energy:            140.4865446

- temperature:        42.0000000
  free_energy:       140.4852002
  entropy:             0.0370109
  heat_capacity:       0.1130952
  energy:            140.4867547

- temperature:        44.0000000
  free_energy:       140.4851206
  entropy:             0.0426697
  heat_capacity:       0.1306195
  energy:            140.4869981

- temperature:        46.0000000
  free_energy:       140.4850292
  entropy:             0.0488960
  heat_capacity:       0.1499760
  energy:            140.4872784

- temperature:        48.0000000
  free_energy:       140.4849247
  entropy:             0.0557220
  heat_capacity:       0.1712874
  energy:            140.4875993

- temperature:        50.0000000
  free_energy:       140.4848059
  entropy:             0.0631813
  heat_capacity:       0.1946842
  energy:            140.4879649

- temperature:        52.0000000
  free_energy:       140.4846715
  entropy:             0.0713086
  heat_capacity:       0.2203057
  energy:            140.4883795

- temperature:        54.0000000
  free_energy:       140.4845202
  entropy:             0.0801402
  heat_capacity:       0.2483001
  energy:            140.4888477

- temperature:        56.0000000
  free_energy:       140.4843504
  entropy:             0.0897141
  heat_capacity:       0.2788257
  energy:            140.4893744

- temperature:        58.0000000
  free_energy:       140.4841608
  entropy:             0.1000699
  heat_capacity:       0.3120505
  energy:            140.4899648

- temperature:        60.0000000
  free_energy:       140.4839496
  entropy:             0.1112490
  heat_capacity:       0.3481524
  energy:            140.4906245

- temperature:        62.0000000
  free_energy:       140.4837152
  entropy:             0.1232948
  heat_capacity:       0.3873192
  energy:            140.4913595

- temperature:        64.0000000
  free_energy:       140.4834558
  entropy:             0.1362528
  heat_capacity:       0.4297481
  energy:            140.4921760

- temperature:        66.0000000
  free_energy:       140.4831696
  entropy:             0.1501702
  heat_capacity:       0.4756447
  energy:            140.4930808

- temperature:        68.0000000
  free_energy:       140.4828545
  entropy:             0.1650965
  heat_capacity:       0.5252225
  energy:            140.4940810

- temperature:        70.0000000
  free_energy:       140.4825085
  entropy:             0.1810831
  heat_capacity:       0.5787017
  energy:            140.4951843

- temperature:        72.0000000
  free_energy:       140.4821294
  entropy:             0.1981833
  heat_capacity:       0.6363078
  energy:            140.4963986

- temperature:        74.0000000
  free_energy:       140.4817150
  entropy:             0.2164522
  heat_capacity:       0.6982706
  energy:            140.4977324

- temperature:        76.0000000
  free_energy:       140.4812628
  entropy:             0.2359469
  heat_capacity:       0.7648226
  energy:            140.4991947

- temperature:        78.0000000
  free_energy:       140.4807703
  entropy:             0.2567258
  heat_capacity:       0.8361973
  energy:            140.5007949

- temperature:        80.0000000
  free_energy:       140.4802350
  entropy:             0.2788490
  heat_capacity:       0.9126283
  energy:            140.5025429

- temperature:        82.0000000
  free_energy:       140.4796540
  entropy:             0.3023779
  heat_capacity:       0.9943474
  energy:            140.5044490

- temperature:        84.0000000
  free_energy:       140.4790245
  entropy:             0.3273748
  heat_capacity:       1.0815832
  energy:            140.5065240

- temperature:        86.0000000
  free_energy:       140.4783435
  entropy:             0.3539031
  heat_capacity:       1.1745600
  energy:            140.5087791

- temperature:        88.0000000
  free_energy:       140.4776078
  entropy:             0.3820269
  heat_capacity:       1.2734966
  energy:            140.5112262

- temperature:        90.0000000
  free_energy:       140.4768142
  entropy:             0.4118109
  heat_capacity:       1.3786050
  energy:            140.5138772

- temperature:        92.0000000
  free_energy:       140.4759594
  entropy:             0.4433199
  heat_capacity:       1.4900894
  energy:            140.5167448

- temperature:        94.0000000
  free_energy:       140.4750398
  entropy:             0.4766191
  heat_capacity:       1.6081456
  energy:            140.5198420

- temperature:        96.0000000
  free_energy:       140.4740517
  entropy:             0.5117733
  heat_capacity:       1.7329599
  energy:            140.5231819

- temperature:        98.0000000
  free_energy:       140.4729914
  entropy:             0.5488472
  heat_capacity:       1.8647088
  energy:            140.5267784

- temperature:       100.0000000
  free_energy:       140.4718550
  entropy:             0.5879052
  heat_capacity:       2.0035584
  energy:            140.5306455

- temperature:       102.0000000
  free_energy:       140.4706384
  entropy:             0.6290106
  heat_capacity:       2.1496642
  energy:            140.5347975

- temperature:       104.0000000
  free_energy:       140.4693375
  entropy:             0.6722265
  heat_capacity:       2.3031705
  energy:            140.5392491

- temperature:       106.0000000
  free_energy:       140.4679481
  entropy:             0.7176146
  heat_capacity:       2.4642106
  energy:            140.5440152

- temperature:       108.0000000
  free_energy:       140.4664656
  entropy:             0.7652356
  heat_capacity:       2.6329068
  energy:            140.5491110

- temperature:       110.0000000
  free_energy:       140.4648856
  entropy:             0.8151493
  heat_capacity:       2.8093701
  energy:            140.5545520

- temperature:       112.0000000
  free_energy:       140.4632034
  entropy:             0.8674138
  heat_capacity:       2.9937008
  energy:            140.5603538

- temperature:       114.0000000
  free_energy:       140.4614143
  entropy:             0.9220859
  heat_capacity:       3.1859882
  energy:            140.5665321

- temperature:       116.0000000
  free_energy:       140.4595134
  entropy:             0.9792210
  heat_capacity:       3.3863113
  energy:            140.5731031

- temperature:       118.0000000
  free_energy:       140.4574958
  entropy:             1.0388729
  heat_capacity:       3.5947389
  energy:            140.5800828

- temperature:       120.0000000
  free_energy:       140.4553562
  entropy:             1.1010936
  heat_capacity:       3.8113298
  energy:            140.5874875

- temperature:       122.0000000
  free_energy:       140.4530896
  entropy:             1.1659337
  heat_capacity:       4.0361334
  energy:            140.5953336

- temperature:       124.0000000
  free_energy:       140.4506907
  entropy:             1.2334418
  heat_capacity:       4.2691900
  energy:            140.6036375

- temperature:       126.0000000
  free_energy:       140.4481541
  entropy:             1.3036649
  heat_capacity:       4.5105310
  energy:            140.6124158

- temperature:       128.0000000
  free_energy:       140.4454742
  entropy:             1.3766480
  heat_capacity:       4.7601798
  energy:            140.6216852

- temperature:       130.0000000
  free_energy:       140.4426456
  entropy:             1.4524347
  heat_capacity:       5.0181515
  energy:            140.6314621

- temperature:       132.0000000
  free_energy:       140.4396626
  entropy:             1.5310662
  heat_capacity:       5.2844538
  energy:            140.6417633

- temperature:       134.0000000
  free_energy:       140.4365194
  entropy:             1.6125826
  heat_capacity:       5.5590874
  energy:            140.6526055

- temperature:       136.0000000
  free_energy:       140.4332103
  entropy:             1.6970215
  heat_capacity:       5.8420458
  energy:            140.6640052

- temperature:       138.0000000
  free_energy:       140.4297294
  entropy:             1.7844192
  heat_capacity:       6.1333165
  energy:            140.6759792

- temperature:       140.0000000
  free_energy:       140.4260706
  entropy:             1.8748099
  heat_capacity:       6.4328808
  energy:            140.6885440

- temperature:       142.0000000
  free_energy:       140.4222281
  entropy:             1.9682263
  heat_capacity:       6.7407140
  energy:            140.7017162

- temperature:       144.0000000
  free_energy:       140.4181957
  entropy:             2.0646992
  heat_capacity:       7.0567864
  energy:            140.7155124

- temperature:       146.0000000
  free_energy:       140.4139672
  entropy:             2.1642576
  heat_capacity:       7.3810627
  energy:            140.7299489

- temperature:       148.0000000
  free_energy:       140.4095366
  entropy:             2.2669289
  heat_capacity:       7.7135029
  energy:            140.7450421

- temperature:       150.0000000
  free_energy:       140.4048974
  entropy:             2.3727389
  heat_capacity:       8.0540625
  energy:            140.7608083

- temperature:       152.0000000
  free_energy:       140.4000435
  entropy:             2.4817117
  heat_capacity:       8.4026924
  energy:            140.7772637

- temperature:       154.0000000
  free_energy:       140.3949685
  entropy:             2.5938696
  heat_capacity:       8.7593395
  energy:            140.7944244

- temperature:       156.0000000
  free_energy:       140.3896659
  entropy:             2.7092337
  heat_capacity:       9.1239465
  energy:            140.8123064

- temperature:       158.0000000
  free_energy:       140.3841294
  entropy:             2.8278232
  heat_capacity:       9.4964526
  energy:            140.8309254

- temperature:       160.0000000
  free_energy:       140.3783524
  entropy:             2.9496559
  heat_capacity:       9.8767931
  energy:            140.8502974

- temperature:       162.0000000
  free_energy:       140.3723286
  entropy:             3.0747482
  heat_capacity:      10.2649002
  energy:            140.8704378

- temperature:       164.0000000
  free_energy:       140.3660513
  entropy:             3.2031149
  heat_capacity:      10.6607023
  energy:            140.8913621

- temperature:       166.0000000
  free_energy:       140.3595139
  entropy:             3.3347696
  heat_capacity:      11.0641252
  energy:            140.9130857

- temperature:       168.0000000
  free_energy:       140.3527100
  entropy:             3.4697242
  heat_capacity:      11.4750914
  energy:            140.9356237

- temperature:       170.0000000
  free_energy:       140.3456328
  entropy:             3.6079894
  heat_capacity:      11.8935203
  energy:            140.9589910

- temperature:       172.0000000
  free_energy:       140.3382758
  entropy:             3.7495746
  heat_capacity:      12.3193288
  energy:            140.9832027

- temperature:       174.0000000
  free_energy:       140.3306323
  entropy:             3.8944879
  heat_capacity:      12.7524310
  energy:            141.0082732

- temperature:       176.0000000
  free_energy:       140.3226956
  entropy:             4.0427360
  heat_capacity:      13.1927384
  energy:            141.0342172

- temperature:       178.0000000
  free_energy:       140.3144591
  entropy:             4.1943245
  heat_capacity:      13.6401601
  energy:            141.0610489

- temperature:       180.0000000
  free_energy:       140.3059161
  entropy:             4.3492577
  heat_capacity:      14.0946026
  energy:            141.0887825

- temperature:       182.0000000
  free_energy:       140.2970599
  entropy:             4.5075387
  heat_capacity:      14.5559703
  energy:            141.1174319

- temperature:       184.0000000
  free_energy:       140.2878837
  entropy:             4.6691696
  heat_capacity:      15.0241652
  energy:            141.1470109

- temperature:       186.0000000
  free_energy:       140.2783810
  entropy:             4.8341511
  heat_capacity:      15.4990875
  energy:            141.1775331

- temperature:       188.0000000
  free_energy:       140.2685449
  entropy:             5.0024830
  heat_capacity:      15.9806348
  energy:            141.2090117

- temperature:       190.0000000
  free_energy:       140.2583688
  entropy:             5.1741640
  heat_capacity:      16.4687033
  energy:            141.2414600

- temperature:       192.0000000
  free_energy:       140.2478460
  entropy:             5.3491916
  heat_capacity:      16.9631870
  energy:            141.2748908

- temperature:       194.0000000
  free_energy:       140.2369698
  entropy:             5.5275624
  heat_capacity:      17.4639782
  energy:            141.3093169

- temperature:       196.0000000
  free_energy:       140.2257335
  entropy:             5.7092720
  heat_capacity:      17.9709675
  energy:            141.3447508

- temperature:       198.0000000
  free_energy:       140.2141305
  entropy:             5.8943149
  heat_capacity:      18.4840438
  energy:            141.3812048

- temperature:       200.0000000
  free_energy:       140.2021541
  entropy:             6.0826847
  heat_capacity:      19.0030946
  energy:            141.4186910

- temperature:       202.0000000
  free_energy:       140.1897975
  entropy:             6.2743742
  heat_capacity:      19.5280058
  energy:            141.4572211

- temperature:       204.0000000
  free_energy:       140.1770543
  entropy:             6.4693750
  heat_capacity:      20.0586620
  energy:            141.4968068

- temperature:       206.0000000
  free_energy:       140.1639178
  entropy:             6.6676781
  heat_capacity:      20.5949466
  energy:            141.5374595

- temperature:       208.0000000
  free_energy:       140.1503814
  entropy:             6.8692734
  heat_capacity:      21.1367417
  energy:            141.5791903

- temperature:       210.0000000
  free_energy:       140.1364386
  entropy:             7.0741501
  heat_capacity:      21.6839283
  energy:            141.6220101

- temperature:       212.0000000
  free_energy:       140.1220827
  entropy:             7.2822966
  heat_capacity:      22.2363864
  energy:            141.6659295

- temperature:       214.0000000
  free_energy:       140.1073072
  entropy:             7.4937003
  heat_capacity:      22.7939952
  energy:            141.7109591

- temperature:       216.0000000
  free_energy:       140.0921057
  entropy:             7.7083480
  heat_capacity:      23.3566329
  energy:            141.7571089

- temperature:       218.0000000
  free_energy:       140.0764717
  entropy:             7.9262257
  heat_capacity:      23.9241769
  energy:            141.8043889

- temperature:       220.0000000
  free_energy:       140.0603987
  entropy:             8.1473187
  heat_capacity:      24.4965042
  energy:            141.8528088

- temperature:       222.0000000
  free_energy:       140.0438803
  entropy:             8.3716114
  heat_capacity:      25.0734910
  energy:            141.9023780

- temperature:       224.0000000
  free_energy:       140.0269101
  entropy:             8.5990878
  heat_capacity:      25.6550131
  energy:            141.9531058

- temperature:       226.0000000
  free_energy:       140.0094818
  entropy:             8.8297310
  heat_capacity:      26.2409459
  energy:            142.0050010

- temperature:       228.0000000
  free_energy:       139.9915891
  entropy:             9.0635234
  heat_capacity:      26.8311646
  energy:            142.0580724

- temperature:       230.0000000
  free_energy:       139.9732256
  entropy:             9.3004470
  heat_capacity:      27.4255439
  energy:            142.1123284

- temperature:       232.0000000
  free_energy:       139.9543852
  entropy:             9.5404830
  heat_capacity:      28.0239587
  energy:            142.1677773

- temperature:       234.0000000
  free_energy:       139.9350616
  entropy:             9.7836122
  heat_capacity:      28.6262836
  energy:            142.2244269

- temperature:       236.0000000
  free_energy:       139.9152487
  entropy:            10.0298145
  heat_capacity:      29.2323934
  energy:            142.2822849

- temperature:       238.0000000
  free_energy:       139.8949403
  entropy:            10.2790695
  heat_capacity:      29.8421629
  energy:            142.3413589

- temperature:       240.0000000
  free_energy:       139.8741304
  entropy:            10.5313564
  heat_capacity:      30.4554672
  energy:            142.4016559

- temperature:       242.0000000
  free_energy:       139.8528129
  entropy:            10.7866534
  heat_capacity:      31.0721816
  energy:            142.4631830

- temperature:       244.0000000
  free_energy:       139.8309818
  entropy:            11.0449387
  heat_capacity:      31.6921819
  energy:            142.5259468

- temperature:       246.0000000
  free_energy:       139.8086312
  entropy:            11.3061898
  heat_capacity:      32.3153440
  energy:            142.5899539

- temperature:       248.0000000
  free_energy:       139.7857551
  entropy:            11.5703838
  heat_capacity:      32.9415447
  energy:            142.6552102

- temperature:       250.0000000
  free_energy:       139.7623477
  entropy:            11.8374972
  heat_capacity:      33.5706611
  energy:            142.7217220

- temperature:       252.0000000
  free_energy:       139.7384032
  entropy:            12.1075063
  heat_capacity:      34.2025711
  energy:            142.7894948

- temperature:       254.0000000
  free_energy:       139.7139157
  entropy:            12.3803870
  heat_capacity:      34.8371532
  energy:            142.8585340

- temperature:       256.0000000
  free_energy:       139.6888797
  entropy:            12.6561147
  heat_capacity:      35.4742867
  energy:            142.9288451

- temperature:       258.0000000
  free_energy:       139.6632894
  entropy:            12.9346644
  heat_capacity:      36.1138519
  energy:            143.0004328

- temperature:       260.0000000
  free_energy:       139.6371392
  entropy:            13.2160109
  heat_capacity:      36.7557297
  energy:            143.0733020

- temperature:       262.0000000
  free_energy:       139.6104235
  entropy:            13.5001286
  heat_capacity:      37.3998023
  energy:            143.1474572

- temperature:       264.0000000
  free_energy:       139.5831368
  entropy:            13.7869915
  heat_capacity:      38.0459526
  energy:            143.2229026

- temperature:       266.0000000
  free_energy:       139.5552737
  entropy:            14.0765736
  heat_capacity:      38.6940647
  energy:            143.2996423

- temperature:       268.0000000
  free_energy:       139.5268288
  entropy:            14.3688483
  heat_capacity:      39.3440239
  energy:            143.3776801

- temperature:       270.0000000
  free_energy:       139.4977966
  entropy:            14.6637889
  heat_capacity:      39.9957166
  energy:            143.4570196

- temperature:       272.0000000
  free_energy:       139.4681718
  entropy:            14.9613684
  heat_capacity:      40.6490304
  energy:            143.5376640

- temperature:       274.0000000
  free_energy:       139.4379493
  entropy:            15.2615597
  heat_capacity:      41.3038540
  energy:            143.6196167

- temperature:       276.0000000
  free_energy:       139.4071239
  entropy:            15.5643352
  heat_capacity:      41.9600777
  energy:            143.7028804

- temperature:       278.0000000
  free_energy:       139.3756903
  entropy:            15.8696675
  heat_capacity:      42.6175930
  energy:            143.7874579

- temperature:       280.0000000
  free_energy:       139.3436435
  entropy:            16.1775287
  heat_capacity:      43.2762926
  energy:            143.8733516

- temperature:       282.0000000
  free_energy:       139.3109785
  entropy:            16.4878909
  heat_capacity:      43.9360709
  energy:            143.9605637

- temperature:       284.0000000
  free_energy:       139.2776903
  entropy:            16.8007260
  heat_capacity:      44.5968235
  energy:            144.0490965

- temperature:       286.0000000
  free_energy:       139.2437740
  entropy:            17.1160057
  heat_capacity:      45.2584476
  energy:            144.1389516

- temperature:       288.0000000
  free_energy:       139.2092247
  entropy:            17.4337018
  heat_capacity:      45.9208419
  energy:            144.2301308

- temperature:       290.0000000
  free_energy:       139.1740376
  entropy:            17.7537857
  heat_capacity:      46.5839064
  energy:            144.3226354

- temperature:       292.0000000
  free_energy:       139.1382080
  entropy:            18.0762289
  heat_capacity:      47.2475429
  energy:            144.4164668

- temperature:       294.0000000
  free_energy:       139.1017311
  entropy:            18.4010028
  heat_capacity:      47.9116546
  energy:            144.5116259

- temperature:       296.0000000
  free_energy:       139.0646024
  entropy:            18.7280786
  heat_capacity:      48.5761463
  energy:            144.6081137

- temperature:       298.0000000
  free_energy:       139.0268173
  entropy:            19.0574276
  heat_capacity:      49.2409246
  energy:            144.7059307

- temperature:       300.0000000
  free_energy:       138.9883712
  entropy:            19.3890210
  heat_capacity:      49.9058973
  energy:            144.8050775

- temperature:       302.0000000
  free_energy:       138.9492597
  entropy:            19.7228299
  heat_capacity:      50.5709741
  energy:            144.9055544

- temperature:       304.0000000
  free_energy:       138.9094784
  entropy:            20.0588256
  heat_capacity:      51.2360663
  energy:            145.0073614

- temperature:       306.0000000
  free_energy:       138.8690230
  entropy:            20.3969791
  heat_capacity:      51.9010869
  energy:            145.1104986

- temperature:       308.0000000
  free_energy:       138.8278891
  entropy:            20.7372615
  heat_capacity:      52.5659502
  energy:            145.2149656

- temperature:       310.0000000
  free_energy:       138.7860725
  entropy:            21.0796441
  heat_capacity:      53.2305726
  energy:            145.3207622

- temperature:       312.0000000
  free_energy:       138.7435691
  entropy:            21.4240980
  heat_capacity:      53.8948719
  energy:            145.4278877

- temperature:       314.0000000
  free_energy:       138.7003748
  entropy:            21.7705944
  heat_capacity:      54.5587676
  energy:            145.5363414

- temperature:       316.0000000
  free_energy:       138.6564854
  entropy:            22.1191046
  heat_capacity:      55.2221808
  energy:            145.6461225

- temperature:       318.0000000
  free_energy:       138.6118970
  entropy:            22.4695998
  heat_capacity:      55.8850343
  energy:            145.7572298

- temperature:       320.0000000
  free_energy:       138.5666057
  entropy:            22.8220515
  heat_capacity:      56.5472527
  energy:            145.8696622

- temperature:       322.0000000
  free_energy:       138.5206075
  entropy:            23.1764310
  heat_capacity:      57.2087619
  energy:            145.9834183

- temperature:       324.0000000
  free_energy:       138.4738987
  entropy:            23.5327099
  heat_capacity:      57.8694898
  energy:            146.0984967

- temperature:       326.0000000
  free_energy:       138.4264755
  entropy:            23.8908597
  heat_capacity:      58.5293657
  energy:            146.2148957

- temperature:       328.0000000
  free_energy:       138.3783341
  entropy:            24.2508522
  heat_capacity:      59.1883207
  energy:            146.3326136

- temperature:       330.0000000
  free_energy:       138.3294708
  entropy:            24.6126591
  heat_capacity:      59.8462874
  energy:            146.4516483

- temperature:       332.0000000
  free_energy:       138.2798822
  entropy:            24.9762524
  heat_capacity:      60.5031999
  energy:            146.5719980

- temperature:       334.0000000
  free_energy:       138.2295647
  entropy:            25.3416040
  heat_capacity:      61.1589942
  energy:            146.6936604

- temperature:       336.0000000
  free_energy:       138.1785147
  entropy:            25.7086861
  heat_capacity:      61.8136077
  energy:            146.8166332

- temperature:       338.0000000
  free_energy:       138.1267288
  entropy:            26.0774711
  heat_capacity:      62.4669794
  energy:            146.9409140

- temperature:       340.0000000
  free_energy:       138.0742037
  entropy:            26.4479312
  heat_capacity:      63.1190499
  energy:            147.0665002

- temperature:       342.0000000
  free_energy:       138.0209360
  entropy:            26.8200390
  heat_capacity:      63.7697613
  energy:            147.1933893

- temperature:       344.0000000
  free_energy:       137.9669224
  entropy:            27.1937672
  heat_capacity:      64.4190572
  energy:            147.3215784

- temperature:       346.0000000
  free_energy:       137.9121598
  entropy:            27.5690888
  heat_capacity:      65.0668829
  energy:            147.4510645

- temperature:       348.0000000
  free_energy:       137.8566450
  entropy:            27.9459766
  heat_capacity:      65.7131850
  energy:            147.5818449

- temperature:       350.0000000
  free_energy:       137.8003749
  entropy:            28.3244038
  heat_capacity:      66.3579116
  energy:            147.7139162

- temperature:       352.0000000
  free_energy:       137.7433464
  entropy:            28.7043438
  heat_capacity:      67.0010125
  energy:            147.8472754

- temperature:       354.0000000
  free_energy:       137.6855565
  entropy:            29.0857702
  heat_capacity:      67.6424388
  energy:            147.9819192

- temperature:       356.0000000
  free_energy:       137.6270023
  entropy:            29.4686564