<?xml version="1.0" encoding="ISO-8859-1"?>
<modeling>
 <generator>
  <i name="program" type="string">vasp </i>
  <i name="version" type="string">5.4.4.18Apr17-6-g9f103f2a35  </i>
  <i name="subversion" type="string">(build Mar 12 2022 03:36:41) complex            parallel </i>
  <i name="platform" type="string">IFC19.0.3.199_CrayMPICH7.7.19 </i>
  <i name="date" type="string">2022 12 02 </i>
  <i name="time" type="string">01:40:34 </i>
 </generator>
 <incar>
  <i type="string" name="PREC">accurate</i>
  <i type="int" name="IALGO">    38</i>
  <i type="logical" name="ADDGRID"> T  </i>
  <i type="int" name="IBRION">     8</i>
  <i name="EDIFF">      0.00000001</i>
  <i type="logical" name="LREAL"> F  </i>
  <i type="int" name="ISMEAR">     0</i>
  <i name="SIGMA">      0.06000000</i>
  <i type="logical" name="LWAVE"> F  </i>
  <i type="logical" name="LCHARG"> F  </i>
  <v type="int" name="KPOINT_BSE">    -1     0     0     0</v>
 </incar>
 <structure name="primitive_cell" >
  <crystal>
   <varray name="basis" >
    <v>       1.77695882       1.77695882       0.00000000 </v>
    <v>       1.77695882       0.00000000      -1.77695882 </v>
    <v>       0.00000000       1.77695882      -1.77695882 </v>
   </varray>
   <i name="volume">     11.22178868 </i>
   <varray name="rec_basis" >
    <v>       0.28137962       0.28137962       0.28137962 </v>
    <v>       0.28137962      -0.28137962      -0.28137962 </v>
    <v>      -0.28137962       0.28137962      -0.28137962 </v>
   </varray>
  </crystal>
  <varray name="positions" >
   <v>       0.25000000       0.25000000       0.25000000 </v>
   <v>      -0.50000000      -0.50000000      -0.50000000 </v>
  </varray>
 </structure>
 <varray name="primitive_index" >
  <v type="int" >        1 </v>
  <v type="int" >       11 </v>
 </varray>
 <kpoints>
  <generation param="Gamma">
   <v type="int" name="divisions">       6        6        6 </v>
   <v name="usershift">      0.00000000       0.00000000       0.00000000 </v>
   <v name="genvec1">      0.16666667       0.00000000       0.00000000 </v>
   <v name="genvec2">      0.00000000       0.16666667       0.00000000 </v>
   <v name="genvec3">      0.00000000       0.00000000       0.16666667 </v>
   <v name="shift">      0.00000000       0.00000000       0.00000000 </v>
  </generation>
  <varray name="kpointlist" >
   <v>       0.00000000       0.00000000       0.00000000 </v>
   <v>       0.16666667       0.00000000       0.00000000 </v>
   <v>       0.33333333       0.00000000       0.00000000 </v>
   <v>       0.50000000       0.00000000       0.00000000 </v>
   <v>       0.16666667       0.16666667       0.00000000 </v>
   <v>       0.33333333       0.16666667       0.00000000 </v>
   <v>       0.50000000       0.16666667       0.00000000 </v>
   <v>       0.33333333       0.33333333       0.00000000 </v>
   <v>       0.50000000       0.33333333       0.00000000 </v>
   <v>       0.50000000       0.50000000       0.00000000 </v>
   <v>       0.16666667       0.16666667       0.16666667 </v>
   <v>       0.33333333       0.16666667       0.16666667 </v>
   <v>       0.50000000       0.16666667       0.16666667 </v>
   <v>       0.33333333       0.33333333       0.16666667 </v>
   <v>       0.50000000       0.33333333       0.16666667 </v>
   <v>       0.50000000       0.50000000       0.16666667 </v>
   <v>       0.33333333       0.33333333       0.33333333 </v>
   <v>       0.50000000       0.33333333       0.33333333 </v>
   <v>       0.50000000       0.50000000       0.33333333 </v>
   <v>       0.50000000       0.50000000       0.50000000 </v>
  </varray>
  <varray name="weights" >
   <v>       0.00462963 </v>
   <v>       0.02777778 </v>
   <v>       0.02777778 </v>
   <v>       0.01388889 </v>
   <v>       0.05555556 </v>
   <v>       0.11111111 </v>
   <v>       0.05555556 </v>
   <v>       0.05555556 </v>
   <v>       0.05555556 </v>
   <v>       0.01388889 </v>
   <v>       0.03703704 </v>
   <v>       0.11111111 </v>
   <v>       0.05555556 </v>
   <v>       0.11111111 </v>
   <v>       0.11111111 </v>
   <v>       0.02777778 </v>
   <v>       0.03703704 </v>
   <v>       0.05555556 </v>
   <v>       0.02777778 </v>
   <v>       0.00462963 </v>
  </varray>
 </kpoints>
 <parameters>
  <separator name="general" >
   <i type="string" name="SYSTEM">unknown system</i>
   <i type="logical" name="LCOMPAT"> F  </i>
  </separator>
  <separator name="electronic" >
   <i type="string" name="PREC">accura</i>
   <i name="ENMAX">    400.00000000</i>
   <i name="ENAUG">    644.87300000</i>
   <i name="EDIFF">      0.00000001</i>
   <i type="int" name="IALGO">    38</i>
   <i type="int" name="IWAVPR">    11</i>
   <i type="int" name="NBANDS">   192</i>
   <i name="NELECT">    256.00000000</i>
   <i type="int" name="TURBO">     0</i>
   <i type="int" name="IRESTART">     0</i>
   <i type="int" name="NREBOOT">     0</i>
   <i type="int" name="NMIN">     0</i>
   <i name="EREF">      0.00000000</i>
   <separator name="electronic smearing" >
    <i type="int" name="ISMEAR">     0</i>
    <i name="SIGMA">      0.06000000</i>
    <i name="KSPACING">      0.50000000</i>
    <i type="logical" name="KGAMMA"> T  </i>
   </separator>
   <separator name="electronic projectors" >
    <i type="logical" name="LREAL"> F  </i>
    <v name="ROPT">      0.00000000</v>
    <i type="int" name="LMAXPAW">  -100</i>
    <i type="int" name="LMAXMIX">     2</i>
    <i type="logical" name="NLSPLINE"> F  </i>
   </separator>
   <separator name="electronic startup" >
    <i type="int" name="ISTART">     0</i>
    <i type="int" name="ICHARG">     2</i>
    <i type="int" name="INIWAV">     1</i>
   </separator>
   <separator name="electronic spin" >
    <i type="int" name="ISPIN">     1</i>
    <i type="logical" name="LNONCOLLINEAR"> F  </i>
    <v name="MAGMOM">      1.00000000      1.00000000      1.00000000      1.00000000      1.00000000      1.00000000      1.00000000      1.00000000      1.00000000      1.00000000      1.00000000      1.00000000      1.00000000      1.00000000      1.00000000      1.00000000      1.00000000      1.00000000      1.00000000      1.00000000
      1.00000000      1.00000000      1.00000000      1.00000000      1.00000000      1.00000000      1.00000000      1.00000000      1.00000000      1.00000000      1.00000000      1.00000000      1.00000000      1.00000000      1.00000000      1.00000000      1.00000000      1.00000000      1.00000000      1.00000000
      1.00000000      1.00000000      1.00000000      1.00000000      1.00000000      1.00000000      1.00000000      1.00000000      1.00000000      1.00000000      1.00000000      1.00000000      1.00000000      1.00000000      1.00000000      1.00000000      1.00000000      1.00000000      1.00000000      1.00000000
      1.00000000      1.00000000      1.00000000      1.00000000</v>
    <i name="NUPDOWN">     -1.00000000</i>
    <i type="logical" name="LSORBIT"> F  </i>
    <v name="SAXIS">      0.00000000      0.00000000      1.00000000</v>
    <i type="logical" name="LSPIRAL"> F  </i>
    <v name="QSPIRAL">      0.00000000      0.00000000      0.00000000</v>
    <i type="logical" name="LZEROZ"> F  </i>
   </separator>
   <separator name="electronic exchange-correlation" >
    <i type="logical" name="LASPH"> F  </i>
    <i type="logical" name="LMETAGGA"> F  </i>
   </separator>
   <separator name="electronic convergence" >
    <i type="int" name="NELM">    60</i>
    <i type="int" name="NELMDL">    -5</i>
    <i type="int" name="NELMIN">     2</i>
    <i name="ENINI">    400.00000000</i>
    <separator name="electronic convergence detail" >
     <i type="logical" name="LDIAG"> T  </i>
     <i type="logical" name="LSUBROT"> F  </i>
     <i name="WEIMIN">      0.00100000</i>
     <i name="EBREAK">      0.00000000</i>
     <i name="DEPER">      0.30000000</i>
     <i type="int" name="NRMM">     4</i>
     <i name="TIME">      0.40000000</i>
    </separator>
   </separator>
   <separator name="electronic mixer" >
    <i name="AMIX">      0.40000000</i>
    <i name="BMIX">      1.00000000</i>
    <i name="AMIN">      0.10000000</i>
    <i name="AMIX_MAG">      1.60000000</i>
    <i name="BMIX_MAG">      1.00000000</i>
    <separator name="electronic mixer details" >
     <i type="int" name="IMIX">     4</i>
     <i type="logical" name="MIXFIRST"> F  </i>
     <i type="int" name="MAXMIX">   -45</i>
     <i name="WC">    100.00000000</i>
     <i type="int" name="INIMIX">     1</i>
     <i type="int" name="MIXPRE">     1</i>
     <i type="int" name="MREMOVE">     5</i>
    </separator>
   </separator>
   <separator name="electronic dipolcorrection" >
    <i type="logical" name="LDIPOL"> F  </i>
    <i type="logical" name="LMONO"> F  </i>
    <i type="int" name="IDIPOL">     0</i>
    <i name="EPSILON">      1.00000000</i>
    <v name="DIPOL">   -100.00000000   -100.00000000   -100.00000000</v>
    <i name="EFIELD">      0.00000000</i>
   </separator>
  </separator>
  <separator name="grids" >
   <i type="int" name="NGX">    48</i>
   <i type="int" name="NGY">    48</i>
   <i type="int" name="NGZ">    48</i>
   <i type="int" name="NGXF">    96</i>
   <i type="int" name="NGYF">    96</i>
   <i type="int" name="NGZF">    96</i>
   <i type="logical" name="ADDGRID"> T  </i>
  </separator>
  <separator name="ionic" >
   <i type="int" name="NSW">     1</i>
   <i type="int" name="IBRION">     8</i>
   <i type="int" name="MDALGO">     0</i>
   <i type="int" name="ISIF">     2</i>
   <i name="PSTRESS">      0.00000000</i>
   <i name="EDIFFG">      0.00000010</i>
   <i type="int" name="NFREE">     0</i>
   <i name="POTIM">      0.50000000</i>
   <i name="SMASS">     -3.00000000</i>
   <i name="SCALEE">      1.00000000</i>
  </separator>
  <separator name="ionic md" >
   <i name="TEBEG">      0.00010000</i>
   <i name="TEEND">      0.00010000</i>
   <i type="int" name="NBLOCK">     1</i>
   <i type="int" name="KBLOCK">     1</i>
   <i type="int" name="NPACO">   256</i>
   <i name="APACO">     16.00000000</i>
  </separator>
  <separator name="symmetry" >
   <i type="int" name="ISYM">     2</i>
   <i name="SYMPREC">      0.00001000</i>
  </separator>
  <separator name="dos" >
   <i type="int" name="LORBIT">     0</i>
   <v name="RWIGS">     -1.00000000</v>
   <i type="int" name="NEDOS">   301</i>
   <i name="EMIN">     10.00000000</i>
   <i name="EMAX">    -10.00000000</i>
   <i name="EFERMI">      0.00000000</i>
  </separator>
  <separator name="writing" >
   <i type="int" name="NWRITE">     2</i>
   <i type="logical" name="LWAVE"> F  </i>
   <i type="logical" name="LDOWNSAMPLE"> F  </i>
   <i type="logical" name="LCHARG"> F  </i>
   <i type="logical" name="LPARD"> F  </i>
   <i type="logical" name="LVTOT"> F  </i>
   <i type="logical" name="LVHAR"> F  </i>
   <i type="logical" name="LELF"> F  </i>
   <i type="logical" name="LOPTICS"> F  </i>
   <v name="STM">      0.00000000      0.00000000      0.00000000      0.00000000      0.00000000      0.00000000      0.00000000</v>
  </separator>
  <separator name="performance" >
   <i type="int" name="NPAR">    32</i>
   <i type="int" name="NSIM">     4</i>
   <i type="int" name="NBLK">    -1</i>
   <i type="logical" name="LPLANE"> T  </i>
   <i type="logical" name="LSCALAPACK"> T  </i>
   <i type="logical" name="LSCAAWARE"> F  </i>
   <i type="logical" name="LSCALU"> F  </i>
   <i type="logical" name="LASYNC"> F  </i>
   <i type="logical" name="LORBITALREAL"> F  </i>
  </separator>
  <separator name="miscellaneous" >
   <i type="int" name="IDIOT">     3</i>
   <i type="int" name="ISPECIAL">     0</i>
   <i type="logical" name="LMUSIC"> F  </i>
   <v name="POMASS">     12.01100000</v>
   <v name="DARWINR">      0.00000000</v>
   <v name="DARWINV">      1.00000000</v>
   <i type="logical" name="LCORR"> T  </i>
  </separator>
  <i type="logical" name="GGA_COMPAT"> T  </i>
  <i type="logical" name="LBERRY"> F  </i>
  <i type="int" name="ICORELEVEL">     0</i>
  <i type="logical" name="LDAU"> F  </i>
  <i type="int" name="I_CONSTRAINED_M">     0</i>
  <separator name="electronic exchange-correlation" >
   <i type="string" name="GGA">--</i>
   <i type="int" name="VOSKOWN">     0</i>
   <i type="logical" name="LHFCALC"> F  </i>
   <i type="string" name="PRECFOCK"></i>
   <i type="logical" name="LSYMGRAD"> F  </i>
   <i type="logical" name="LHFONE"> F  </i>
   <i type="logical" name="LRHFCALC"> F  </i>
   <i type="logical" name="LTHOMAS"> F  </i>
   <i type="logical" name="LMODELHF"> F  </i>
   <i name="ENCUT4O">     -1.00000000</i>
   <i type="int" name="EXXOEP">     0</i>
   <i type="int" name="FOURORBIT">     0</i>
   <i name="AEXX">      0.00000000</i>
   <i name="HFALPHA">      0.00000000</i>
   <i name="MCALPHA">      0.00000000</i>
   <i name="ALDAX">      1.00000000</i>
   <i name="AGGAX">      1.00000000</i>
   <i name="ALDAC">      1.00000000</i>
   <i name="AGGAC">      1.00000000</i>
   <i type="int" name="NKREDX">     1</i>
   <i type="int" name="NKREDY">     1</i>
   <i type="int" name="NKREDZ">     1</i>
   <i type="logical" name="SHIFTRED"> F  </i>
   <i type="logical" name="ODDONLY"> F  </i>
   <i type="logical" name="EVENONLY"> F  </i>
   <i type="int" name="LMAXFOCK">     0</i>
   <i type="int" name="NMAXFOCKAE">     0</i>
   <i type="logical" name="LFOCKAEDFT"> F  </i>
   <i name="HFSCREEN">      0.00000000</i>
   <i name="HFSCREENC">      0.00000000</i>
   <i type="int" name="NBANDSGWLOW">     0</i>
  </separator>
  <separator name="vdW DFT" >
   <i type="logical" name="LUSE_VDW"> F  </i>
   <i name="Zab_VDW">     -0.84910000</i>
   <i name="PARAM1">      0.12340000</i>
   <i name="PARAM2">      1.00000000</i>
   <i name="PARAM3">      0.00000000</i>
  </separator>
  <separator name="model GW" >
   <i type="int" name="MODEL_GW">     0</i>
   <i name="MODEL_EPS0">      3.36653660</i>
   <i name="MODEL_ALPHA">      1.00000000</i>
  </separator>
  <separator name="linear response parameters" >
   <i type="logical" name="LEPSILON"> F  </i>
   <i type="logical" name="LRPA"> F  </i>
   <i type="logical" name="LNABLA"> F  </i>
   <i type="logical" name="LVEL"> F  </i>
   <i type="int" name="KINTER">     0</i>
   <i name="CSHIFT">      0.10000000</i>
   <i name="OMEGAMAX">     -1.00000000</i>
   <i name="DEG_THRESHOLD">      0.00200000</i>
   <i name="RTIME">     -0.10000000</i>
   <i name="WPLASMAI">      0.00000000</i>
   <v name="DFIELD">      0.00000000      0.00000000      0.00000000</v>
   <v name="WPLASMA">      0.00000000      0.00000000      0.00000000      0.00000000      0.00000000      0.00000000      0.00000000      0.00000000      0.00000000</v>
  </separator>
  <separator name="orbital magnetization" >
   <i type="logical" name="NUCIND"> F  </i>
   <v name="MAGPOS">      0.00000000      0.00000000      0.00000000</v>
   <i type="logical" name="LNICSALL"> T  </i>
   <i type="logical" name="ORBITALMAG"> F  </i>
   <i type="logical" name="LMAGBLOCH"> F  </i>
   <i type="logical" name="LCHIMAG"> F  </i>
   <i type="logical" name="LGAUGE"> T  </i>
   <i type="int" name="MAGATOM">     0</i>
   <v name="MAGDIPOL">      0.00000000      0.00000000      0.00000000</v>
   <v name="AVECCONST">      0.00000000      0.00000000      0.00000000</v>
  </separator>
  <separator name="response functions" >
   <i type="logical" name="LADDER"> F  </i>
   <i type="logical" name="LRPAFORCE"> F  </i>
   <i type="logical" name="LFXC"> F  </i>
   <i type="logical" name="LHARTREE"> T  </i>
   <i type="int" name="IBSE">     0</i>
   <v type="int" name="KPOINT">    -1     0     0     0</v>
   <i type="logical" name="LTCTE"> F  </i>
   <i type="logical" name="LTETE"> F  </i>
   <i type="logical" name="LTRIPLET"> F  </i>
   <i type="logical" name="LFXCEPS"> F  </i>
   <i type="logical" name="LFXHEG"> F  </i>
   <i type="int" name="NATURALO">     2</i>
   <i type="logical" name="L2ORDER"> F  </i>
   <i type="logical" name="LMP2LT"> F  </i>
   <i type="logical" name="LUSEW"> F  </i>
   <i name="ENCUTGW">     -2.00000000</i>
   <i name="ENCUTGWSOFT">     -2.00000000</i>
   <i name="ENCUTLF">     -1.00000000</i>
   <i type="int" name="LMAXMP2">    -1</i>
   <i name="SCISSOR">      0.00000000</i>
   <i type="int" name="NOMEGA">     0</i>
   <i type="int" name="NOMEGAR">     0</i>
   <i type="int" name="NBANDSGW">    -1</i>
   <i type="int" name="NBANDSO">    -1</i>
   <i type="int" name="NBANDSV">    -1</i>
   <i type="int" name="NELM">     1</i>
   <i type="int" name="NELMHF">     1</i>
   <i type="int" name="DIM">     3</i>
   <i type="int" name="ANTIRES">     0</i>
   <i name="OMEGAMAX">    -30.00000000</i>
   <i name="OMEGAMIN">    -30.00000000</i>
   <i name="OMEGATL">   -200.00000000</i>
   <i type="int" name="OMEGAGRID">   140</i>
   <i name="CSHIFT">     -0.10000000</i>
   <i type="logical" name="SELFENERGY"> F  </i>
   <i type="logical" name="LSPECTRAL"> F  </i>
   <i type="logical" name="LSPECTRALGW"> F  </i>
   <i type="logical" name="LSINGLES"> F  </i>
   <i type="logical" name="LFERMIGW"> F  </i>
   <i type="logical" name="ODDONLYGW"> F  </i>
   <i type="logical" name="EVENONLYGW"> F  </i>
   <i type="int" name="NKREDLFX">     1</i>
   <i type="int" name="NKREDLFY">     1</i>
   <i type="int" name="NKREDLFZ">     1</i>
   <i type="int" name="MAXMEM">  2800</i>
   <i type="int" name="TELESCOPE">     0</i>
   <i type="int" name="TAUPAR">     1</i>
   <i type="int" name="OMEGAPAR">    -1</i>
   <i name="LAMBDA">      1.00000000</i>
  </separator>
  <separator name="External order field" >
   <i name="OFIELD_KAPPA">      0.00000000</i>
   <v name="OFIELD_K">      0.00000000      0.00000000      0.00000000</v>
   <i name="OFIELD_Q6_NEAR">      0.00000000</i>
   <i name="OFIELD_Q6_FAR">      0.00000000</i>
   <i name="OFIELD_A">      0.00000000</i>
  </separator>
 </parameters>
 <atominfo>
  <atoms>      64 </atoms>
  <types>       1 </types>
  <array name="atoms" >
   <dimension dim="1">ion</dimension>
   <field type="string">element</field>
   <field type="int">atomtype</field>
   <set>
    <rc><c>C </c><c>   1</c></rc>
    <rc><c>C </c><c>   1</c></rc>
    <rc><c>C </c><c>   1</c></rc>
    <rc><c>C </c><c>   1</c></rc>
    <rc><c>C </c><c>   1</c></rc>
    <rc><c>C </c><c>   1</c></rc>
    <rc><c>C </c><c>   1</c></rc>
    <rc><c>C </c><c>   1</c></rc>
    <rc><c>C </c><c>   1</c></rc>
    <rc><c>C </c><c>   1</c></rc>
    <rc><c>C </c><c>   1</c></rc>
    <rc><c>C </c><c>   1</c></rc>
    <rc><c>C </c><c>   1</c></rc>
    <rc><c>C </c><c>   1</c></rc>
    <rc><c>C </c><c>   1</c></rc>
    <rc><c>C </c><c>   1</c></rc>
    <rc><c>C </c><c>   1</c></rc>
    <rc><c>C </c><c>   1</c></rc>
    <rc><c>C </c><c>   1</c></rc>
    <rc><c>C </c><c>   1</c></rc>
    <rc><c>C </c><c>   1</c></rc>
    <rc><c>C </c><c>   1</c></rc>
    <rc><c>C </c><c>   1</c></rc>
    <rc><c>C </c><c>   1</c></rc>
    <rc><c>C </c><c>   1</c></rc>
    <rc><c>C </c><c>   1</c></rc>
    <rc><c>C </c><c>   1</c></rc>
    <rc><c>C </c><c>   1</c></rc>
    <rc><c>C </c><c>   1</c></rc>
    <rc><c>C </c><c>   1</c></rc>
    <rc><c>C </c><c>   1</c></rc>
    <rc><c>C </c><c>   1</c></rc>
    <rc><c>C </c><c>   1</c></rc>
    <rc><c>C </c><c>   1</c></rc>
    <rc><c>C </c><c>   1</c></rc>
    <rc><c>C </c><c>   1</c></rc>
    <rc><c>C </c><c>   1</c></rc>
    <rc><c>C </c><c>   1</c></rc>
    <rc><c>C </c><c>   1</c></rc>
    <rc><c>C </c><c>   1</c></rc>
    <rc><c>C </c><c>   1</c></rc>
    <rc><c>C </c><c>   1</c></rc>
    <rc><c>C </c><c>   1</c></rc>
    <rc><c>C </c><c>   1</c></rc>
    <rc><c>C </c><c>   1</c></rc>
    <rc><c>C </c><c>   1</c></rc>
    <rc><c>C </c><c>   1</c></rc>
    <rc><c>C </c><c>   1</c></rc>
    <rc><c>C </c><c>   1</c></rc>
    <rc><c>C </c><c>   1</c></rc>
    <rc><c>C </c><c>   1</c></rc>
    <rc><c>C </c><c>   1</c></rc>
    <rc><c>C </c><c>   1</c></rc>
    <rc><c>C </c><c>   1</c></rc>
    <rc><c>C </c><c>   1</c></rc>
    <rc><c>C </c><c>   1</c></rc>
    <rc><c>C </c><c>   1</c></rc>
    <rc><c>C </c><c>   1</c></rc>
    <rc><c>C </c><c>   1</c></rc>
    <rc><c>C </c><c>   1</c></rc>
    <rc><c>C </c><c>   1</c></rc>
    <rc><c>C </c><c>   1</c></rc>
    <rc><c>C </c><c>   1</c></rc>
    <rc><c>C </c><c>   1</c></rc>
   </set>
  </array>
  <array name="atomtypes" >
   <dimension dim="1">type</dimension>
   <field type="int">atomspertype</field>
   <field type="string">element</field>
   <field>mass</field>
   <field>valence</field>
   <field type="string">pseudopotential</field>
   <set>
    <rc><c>  64</c><c>C </c><c>     12.01100000</c><c>      4.00000000</c><c> PAW_PBE C 08Apr2002                    </c></rc>
   </set>
  </array>
 </atominfo>
 <structure name="initialpos" >
  <crystal>
   <varray name="basis" >
    <v>       7.10783528       0.00000000       0.00000000 </v>
    <v>       0.00000000       7.10783528       0.00000000 </v>
    <v>       0.00000000       0.00000000       7.10783528 </v>
   </varray>
   <i name="volume">    359.09723776 </i>
   <varray name="rec_basis" >
    <v>       0.14068981       0.00000000       0.00000000 </v>
    <v>       0.00000000       0.14068981       0.00000000 </v>
    <v>       0.00000000       0.00000000       0.14068981 </v>
   </varray>
  </crystal>
  <varray name="positions" >
   <v>       0.12500000       0.37500000       0.12500000 </v>
   <v>       0.62500000       0.37500000       0.12500000 </v>
   <v>       0.12500000       0.87500000       0.12500000 </v>
   <v>       0.62500000       0.87500000       0.12500000 </v>
   <v>       0.12500000       0.37500000       0.62500000 </v>
   <v>       0.62500000       0.37500000       0.62500000 </v>
   <v>       0.12500000       0.87500000       0.62500000 </v>
   <v>       0.62500000       0.87500000       0.62500000 </v>
   <v>       0.00000000       0.00000000       0.25000000 </v>
   <v>       0.50000000       0.00000000       0.25000000 </v>
   <v>       0.00000000       0.50000000       0.25000000 </v>
   <v>       0.50000000       0.50000000       0.25000000 </v>
   <v>       0.00000000       0.00000000       0.75000000 </v>
   <v>       0.50000000       0.00000000       0.75000000 </v>
   <v>       0.00000000       0.50000000       0.75000000 </v>
   <v>       0.50000000       0.50000000       0.75000000 </v>
   <v>       0.12500000       0.12500000       0.37500000 </v>
   <v>       0.62500000       0.12500000       0.37500000 </v>
   <v>       0.12500000       0.62500000       0.37500000 </v>
   <v>       0.62500000       0.62500000       0.37500000 </v>
   <v>       0.12500000       0.12500000       0.87500000 </v>
   <v>       0.62500000       0.12500000       0.87500000 </v>
   <v>       0.12500000       0.62500000       0.87500000 </v>
   <v>       0.62500000       0.62500000       0.87500000 </v>
   <v>       0.00000000       0.25000000       0.00000000 </v>
   <v>       0.50000000       0.25000000       0.00000000 </v>
   <v>       0.00000000       0.75000000       0.00000000 </v>
   <v>       0.50000000       0.75000000       0.00000000 </v>
   <v>       0.00000000       0.25000000       0.50000000 </v>
   <v>       0.50000000       0.25000000       0.50000000 </v>
   <v>       0.00000000       0.75000000       0.50000000 </v>
   <v>       0.50000000       0.75000000       0.50000000 </v>
   <v>       0.37500000       0.37500000       0.37500000 </v>
   <v>       0.87500000       0.37500000       0.37500000 </v>
   <v>       0.37500000       0.87500000       0.37500000 </v>
   <v>       0.87500000       0.87500000       0.37500000 </v>
   <v>       0.37500000       0.37500000       0.87500000 </v>
   <v>       0.87500000       0.37500000       0.87500000 </v>
   <v>       0.37500000       0.87500000       0.87500000 </v>
   <v>       0.87500000       0.87500000       0.87500000 </v>
   <v>       0.25000000       0.00000000       0.00000000 </v>
   <v>       0.75000000       0.00000000       0.00000000 </v>
   <v>       0.25000000       0.50000000       0.00000000 </v>
   <v>       0.75000000       0.50000000       0.00000000 </v>
   <v>       0.25000000       0.00000000       0.50000000 </v>
   <v>       0.75000000       0.00000000       0.50000000 </v>
   <v>       0.25000000       0.50000000       0.50000000 </v>
   <v>       0.75000000       0.50000000       0.50000000 </v>
   <v>       0.37500000       0.12500000       0.12500000 </v>
   <v>       0.87500000       0.12500000       0.12500000 </v>
   <v>       0.37500000       0.62500000       0.12500000 </v>
   <v>       0.87500000       0.62500000       0.12500000 </v>
   <v>       0.37500000       0.12500000       0.62500000 </v>
   <v>       0.87500000       0.12500000       0.62500000 </v>
   <v>       0.37500000       0.62500000       0.62500000 </v>
   <v>       0.87500000       0.62500000       0.62500000 </v>
   <v>       0.25000000       0.25000000       0.25000000 </v>
   <v>       0.75000000       0.25000000       0.25000000 </v>
   <v>       0.25000000       0.75000000       0.25000000 </v>
   <v>       0.75000000       0.75000000       0.25000000 </v>
   <v>       0.25000000       0.25000000       0.75000000 </v>
   <v>       0.75000000       0.25000000       0.75000000 </v>
   <v>       0.25000000       0.75000000       0.75000000 </v>
   <v>       0.75000000       0.75000000       0.75000000 </v>
  </varray>
 </structure>
 <calculation>
  <scstep>
   <time name="dav">   13.18   13.19</time>
   <time name="total">   13.30   13.40</time>
   <energy>
    <i name="alphaZ">    929.39381495 </i>
    <i name="ewald"> -11175.04925341 </i>
    <i name="hartreedc">   -556.07095814 </i>
    <i name="XCdc">    917.28810179 </i>
    <i name="pawpsdc">   2421.21235816 </i>
    <i name="pawaedc">  -2494.84305711 </i>
    <i name="eentropy">     -0.00930628 </i>
    <i name="bandstr">   1048.58127327 </i>
    <i name="atom">   9416.14232778 </i>
    <i name="e_fr_energy">    506.64530101 </i>
    <i name="e_wo_entrp">    506.65460729 </i>
    <i name="e_0_energy">    506.64995415 </i>
   </energy>
  </scstep>
  <scstep>
   <time name="dav">   16.70   16.70</time>
   <time name="total">   16.70   16.71</time>
   <energy>
    <i name="e_fr_energy">   -561.96744615 </i>
    <i name="e_wo_entrp">   -561.96744615 </i>
    <i name="e_0_energy">   -561.96744615 </i>
   </energy>
  </scstep>
  <scstep>
   <time name="dav">   18.02   18.03</time>
   <time name="total">   18.03   18.03</time>
   <energy>
    <i name="e_fr_energy">   -602.39303941 </i>
    <i name="e_wo_entrp">   -602.39303941 </i>
    <i name="e_0_energy">   -602.39303941 </i>
   </energy>
  </scstep>
  <scstep>
   <time name="dav">   16.65   16.65</time>
   <time name="total">   16.66   16.66</time>
   <energy>
    <i name="e_fr_energy">   -602.81654482 </i>
    <i name="e_wo_entrp">   -602.81654482 </i>
    <i name="e_0_energy">   -602.81654482 </i>
   </energy>
  </scstep>
  <scstep>
   <time name="dav">   16.12   16.13</time>
   <time name="total">   16.66   16.66</time>
   <energy>
    <i name="e_fr_energy">   -602.82551638 </i>
    <i name="e_wo_entrp">   -602.82551638 </i>
    <i name="e_0_energy">   -602.82551638 </i>
   </energy>
  </scstep>
  <scstep>
   <time name="dav">   15.71   15.72</time>
   <time name="total">   16.37   16.37</time>
   <energy>
    <i name="e_fr_energy">   -587.11539110 </i>
    <i name="e_wo_entrp">   -587.11539110 </i>
    <i name="e_0_energy">   -587.11539110 </i>
   </energy>
  </scstep>
  <scstep>
   <time name="dav">   16.62   16.62</time>
   <time name="total">   17.24   17.24</time>
   <energy>
    <i name="e_fr_energy">   -581.81204574 </i>
    <i name="e_wo_entrp">   -581.81204574 </i>
    <i name="e_0_energy">   -581.81204574 </i>
   </energy>
  </scstep>
  <scstep>
   <time name="dav">   15.64   15.64</time>
   <time name="total">   16.36   16.36</time>
   <energy>
    <i name="e_fr_energy">   -581.87408215 </i>
    <i name="e_wo_entrp">   -581.87408215 </i>
    <i name="e_0_energy">   -581.87408215 </i>
   </energy>
  </scstep>
  <scstep>
   <time name="dav">   17.39   17.39</time>
   <time name="total">   18.01   18.02</time>
   <energy>
    <i name="e_fr_energy">   -581.87618991 </i>
    <i name="e_wo_entrp">   -581.87618991 </i>
    <i name="e_0_energy">   -581.87618991 </i>
   </energy>
  </scstep>
  <scstep>
   <time name="dav">   15.24   15.24</time>
   <time name="total">   15.86   15.86</time>
   <energy>
    <i name="e_fr_energy">   -581.87663882 </i>
    <i name="e_wo_entrp">   -581.87663882 </i>
    <i name="e_0_energy">   -581.87663882 </i>
   </energy>
  </scstep>
  <scstep>
   <time name="dav">   17.31   17.31</time>
   <time name="total">   17.94   17.94</time>
   <energy>
    <i name="e_fr_energy">   -581.87664414 </i>
    <i name="e_wo_entrp">   -581.87664414 </i>
    <i name="e_0_energy">   -581.87664414 </i>
   </energy>
  </scstep>
  <scstep>
   <time name="dav">   16.70   16.70</time>
   <time name="total">   17.33   17.33</time>
   <energy>
    <i name="e_fr_energy">   -581.87664410 </i>
    <i name="e_wo_entrp">   -581.87664410 </i>
    <i name="e_0_energy">   -581.87664410 </i>
   </energy>
  </scstep>
  <scstep>
   <time name="dav">   13.90   13.90</time>
   <time name="total">   14.53   14.53</time>
   <energy>
    <i name="e_fr_energy">   -581.87664416 </i>
    <i name="e_wo_entrp">   -581.87664416 </i>
    <i name="e_0_energy">   -581.87664416 </i>
   </energy>
  </scstep>
  <scstep>
   <time name="dav">   12.66   12.66</time>
   <time name="total">   13.32   13.32</time>
   <energy>
    <i name="e_fr_energy">   -581.87664419 </i>
    <i name="e_wo_entrp">   -581.87664419 </i>
    <i name="e_0_energy">   -581.87664419 </i>
   </energy>
  </scstep>
  <scstep>
   <time name="dav">   11.84   11.84</time>
   <time name="total">   11.94   11.94</time>
   <energy>
    <i name="alphaZ">    929.39381495 </i>
    <i name="ewald"> -11175.04925341 </i>
    <i name="hartreedc">   -838.97347184 </i>
    <i name="XCdc">    944.00859479 </i>
    <i name="pawpsdc">   4261.35634084 </i>
    <i name="pawaedc">  -4342.54865992 </i>
    <i name="eentropy">     -0.00000000 </i>
    <i name="bandstr">    223.79366261 </i>
    <i name="atom">   9416.14232778 </i>
    <i name="e_fr_energy">   -581.87664419 </i>
    <i name="e_wo_entrp">   -581.87664419 </i>
    <i name="e_0_energy">   -581.87664419 </i>
   </energy>
  </scstep>
  <structure>
   <crystal>
    <varray name="basis" >
     <v>       7.10783528       0.00000000       0.00000000 </v>
     <v>       0.00000000       7.10783528       0.00000000 </v>
     <v>       0.00000000       0.00000000       7.10783528 </v>
    </varray>
    <i name="volume">    359.09723776 </i>
    <varray name="rec_basis" >
     <v>       0.14068981       0.00000000       0.00000000 </v>
     <v>       0.00000000       0.14068981       0.00000000 </v>
     <v>       0.00000000       0.00000000       0.14068981 </v>
    </varray>
   </crystal>
   <varray name="positions" >
    <v>       0.12500000       0.37500000       0.12500000 </v>
    <v>       0.62500000       0.37500000       0.12500000 </v>
    <v>       0.12500000       0.87500000       0.12500000 </v>
    <v>       0.62500000       0.87500000       0.12500000 </v>
    <v>       0.12500000       0.37500000       0.62500000 </v>
    <v>       0.62500000       0.37500000       0.62500000 </v>
    <v>       0.12500000       0.87500000       0.62500000 </v>
    <v>       0.62500000       0.87500000       0.62500000 </v>
    <v>       0.00000000       0.00000000       0.25000000 </v>
    <v>       0.50000000       0.00000000       0.25000000 </v>
    <v>       0.00000000       0.50000000       0.25000000 </v>
    <v>       0.50000000       0.50000000       0.25000000 </v>
    <v>       0.00000000       0.00000000       0.75000000 </v>
    <v>       0.50000000       0.00000000       0.75000000 </v>
    <v>       0.00000000       0.50000000       0.75000000 </v>
    <v>       0.50000000       0.50000000       0.75000000 </v>
    <v>       0.12500000       0.12500000       0.37500000 </v>
    <v>       0.62500000       0.12500000       0.37500000 </v>
    <v>       0.12500000       0.62500000       0.37500000 </v>
    <v>       0.62500000       0.62500000       0.37500000 </v>
    <v>       0.12500000       0.12500000       0.87500000 </v>
    <v>       0.62500000       0.12500000       0.87500000 </v>
    <v>       0.12500000       0.62500000       0.87500000 </v>
    <v>       0.62500000       0.62500000       0.87500000 </v>
    <v>       0.00000000       0.25000000       0.00000000 </v>
    <v>       0.50000000       0.25000000       0.00000000 </v>
    <v>       0.00000000       0.75000000       0.00000000 </v>
    <v>       0.50000000       0.75000000       0.00000000 </v>
    <v>       0.00000000       0.25000000       0.50000000 </v>
    <v>       0.50000000       0.25000000       0.50000000 </v>
    <v>       0.00000000       0.75000000       0.50000000 </v>
    <v>       0.50000000       0.75000000       0.50000000 </v>
    <v>       0.37500000       0.37500000       0.37500000 </v>
    <v>       0.87500000       0.37500000       0.37500000 </v>
    <v>       0.37500000       0.87500000       0.37500000 </v>
    <v>       0.87500000       0.87500000       0.37500000 </v>
    <v>       0.37500000       0.37500000       0.87500000 </v>
    <v>       0.87500000       0.37500000       0.87500000 </v>
    <v>       0.37500000       0.87500000       0.87500000 </v>
    <v>       0.87500000       0.87500000       0.87500000 </v>
    <v>       0.25000000       0.00000000       0.00000000 </v>
    <v>       0.75000000       0.00000000       0.00000000 </v>
    <v>       0.25000000       0.50000000       0.00000000 </v>
    <v>       0.75000000       0.50000000       0.00000000 </v>
    <v>       0.25000000       0.00000000       0.50000000 </v>
    <v>       0.75000000       0.00000000       0.50000000 </v>
    <v>       0.25000000       0.50000000       0.50000000 </v>
    <v>       0.75000000       0.50000000       0.50000000 </v>
    <v>       0.37500000       0.12500000       0.12500000 </v>
    <v>       0.87500000       0.12500000       0.12500000 </v>
    <v>       0.37500000       0.62500000       0.12500000 </v>
    <v>       0.87500000       0.62500000       0.12500000 </v>
    <v>       0.37500000       0.12500000       0.62500000 </v>
    <v>       0.87500000       0.12500000       0.62500000 </v>
    <v>       0.37500000       0.62500000       0.62500000 </v>
    <v>       0.87500000       0.62500000       0.62500000 </v>
    <v>       0.25000000       0.25000000       0.25000000 </v>
    <v>       0.75000000       0.25000000       0.25000000 </v>
    <v>       0.25000000       0.75000000       0.25000000 </v>
    <v>       0.75000000       0.75000000       0.25000000 </v>
    <v>       0.25000000       0.25000000       0.75000000 </v>
    <v>       0.75000000       0.25000000       0.75000000 </v>
    <v>       0.25000000       0.75000000       0.75000000 </v>
    <v>       0.75000000       0.75000000       0.75000000 </v>
   </varray>
  </structure>
  <varray name="forces" >
   <v>      -0.00000000      -0.00000000      -0.00000000 </v>
   <v>       0.00000000       0.00000000       0.00000000 </v>
   <v>       0.00000000       0.00000000       0.00000000 </v>
   <v>       0.00000000      -0.00000000      -0.00000000 </v>
   <v>      -0.00000000      -0.00000000       0.00000000 </v>
   <v>      -0.00000000      -0.00000000      -0.00000000 </v>
   <v>       0.00000000      -0.00000000      -0.00000000 </v>
   <v>      -0.00000000      -0.00000000      -0.00000000 </v>
   <v>      -0.00000000      -0.00000000      -0.00000000 </v>
   <v>      -0.00000000       0.00000000      -0.00000000 </v>
   <v>      -0.00000000      -0.00000000      -0.00000000 </v>
   <v>      -0.00000000       0.00000000      -0.00000000 </v>
   <v>      -0.00000000       0.00000000       0.00000000 </v>
   <v>       0.00000000      -0.00000000      -0.00000000 </v>
   <v>       0.00000000       0.00000000       0.00000000 </v>
   <v>      -0.00000000      -0.00000000       0.00000000 </v>
   <v>      -0.00000000      -0.00000000       0.00000000 </v>
   <v>       0.00000000      -0.00000000      -0.00000000 </v>
   <v>      -0.00000000      -0.00000000       0.00000000 </v>
   <v>       0.00000000      -0.00000000       0.00000000 </v>
   <v>       0.00000000       0.00000000      -0.00000000 </v>
   <v>      -0.00000000      -0.00000000       0.00000000 </v>
   <v>       0.00000000       0.00000000       0.00000000 </v>
   <v>       0.00000000      -0.00000000      -0.00000000 </v>
   <v>       0.00000000       0.00000000       0.00000000 </v>
   <v>      -0.00000000      -0.00000000      -0.00000000 </v>
   <v>      -0.00000000      -0.00000000      -0.00000000 </v>
   <v>       0.00000000       0.00000000       0.00000000 </v>
   <v>      -0.00000000      -0.00000000      -0.00000000 </v>
   <v>       0.00000000       0.00000000       0.00000000 </v>
   <v>       0.00000000       0.00000000       0.00000000 </v>
   <v>      -0.00000000      -0.00000000      -0.00000000 </v>
   <v>      -0.00000000       0.00000000      -0.00000000 </v>
   <v>      -0.00000000      -0.00000000      -0.00000000 </v>
   <v>       0.00000000      -0.00000000       0.00000000 </v>
   <v>      -0.00000000      -0.00000000       0.00000000 </v>
   <v>       0.00000000      -0.00000000      -0.00000000 </v>
   <v>      -0.00000000       0.00000000       0.00000000 </v>
   <v>       0.00000000      -0.00000000       0.00000000 </v>
   <v>       0.00000000      -0.00000000      -0.00000000 </v>
   <v>       0.00000000      -0.00000000      -0.00000000 </v>
   <v>       0.00000000       0.00000000       0.00000000 </v>
   <v>       0.00000000       0.00000000       0.00000000 </v>
   <v>      -0.00000000      -0.00000000      -0.00000000 </v>
   <v>       0.00000000       0.00000000       0.00000000 </v>
   <v>      -0.00000000       0.00000000      -0.00000000 </v>
   <v>      -0.00000000      -0.00000000      -0.00000000 </v>
   <v>       0.00000000       0.00000000       0.00000000 </v>
   <v>       0.00000000       0.00000000       0.00000000 </v>
   <v>      -0.00000000      -0.00000000       0.00000000 </v>
   <v>      -0.00000000      -0.00000000       0.00000000 </v>
   <v>       0.00000000       0.00000000       0.00000000 </v>
   <v>      -0.00000000      -0.00000000      -0.00000000 </v>
   <v>       0.00000000      -0.00000000       0.00000000 </v>
   <v>      -0.00000000      -0.00000000      -0.00000000 </v>
   <v>      -0.00000000      -0.00000000      -0.00000000 </v>
   <v>      -0.00000000      -0.00000000      -0.00000000 </v>
   <v>      -0.00000000       0.00000000      -0.00000000 </v>
   <v>      -0.00000000       0.00000000      -0.00000000 </v>
   <v>      -0.00000000       0.00000000      -0.00000000 </v>
   <v>      -0.00000000       0.00000000       0.00000000 </v>
   <v>       0.00000000      -0.00000000      -0.00000000 </v>
   <v>       0.00000000       0.00000000      -0.00000000 </v>
   <v>      -0.00000000       0.00000000       0.00000000 </v>
  </varray>
  <varray name="stress" >
   <v>      31.29996382       0.00000000      -0.00000000 </v>
   <v>       0.00000000      31.29996382       0.00000000 </v>
   <v>       0.00000000       0.00000000      31.29996382 </v>
  </varray>
  <energy>
   <i name="e_fr_energy">   -581.87664419 </i>
   <i name="e_wo_entrp">   -581.87664419 </i>
   <i name="e_0_energy">     -0.00000000 </i>
  </energy>
  <kpoints>
   <generation param="Gamma">
    <v type="int" name="divisions">       6        6        6 </v>
    <v name="usershift">      0.00000000       0.00000000       0.00000000 </v>
    <v name="genvec1">      0.16666667       0.00000000       0.00000000 </v>
    <v name="genvec2">      0.00000000       0.16666667       0.00000000 </v>
    <v name="genvec3">      0.00000000       0.00000000       0.16666667 </v>
    <v name="shift">      0.00000000       0.00000000       0.00000000 </v>
   </generation>
   <varray name="kpointlist" >
    <v>       0.00000000       0.00000000       0.00000000 </v>
    <v>       0.16666667       0.00000000       0.00000000 </v>
    <v>       0.33333333       0.00000000       0.00000000 </v>
    <v>       0.50000000       0.00000000       0.00000000 </v>
    <v>       0.00000000       0.16666667       0.00000000 </v>
    <v>       0.16666667       0.16666667       0.00000000 </v>
    <v>       0.33333333       0.16666667       0.00000000 </v>
    <v>       0.50000000       0.16666667       0.00000000 </v>
    <v>       0.00000000       0.33333333       0.00000000 </v>
    <v>       0.16666667       0.33333333       0.00000000 </v>
    <v>       0.33333333       0.33333333       0.00000000 </v>
    <v>       0.50000000       0.33333333       0.00000000 </v>
    <v>       0.00000000       0.50000000       0.00000000 </v>
    <v>       0.16666667       0.50000000       0.00000000 </v>
    <v>       0.33333333       0.50000000       0.00000000 </v>
    <v>       0.50000000       0.50000000       0.00000000 </v>
    <v>       0.00000000       0.16666667       0.16666667 </v>
    <v>       0.16666667       0.16666667       0.16666667 </v>
    <v>       0.33333333       0.16666667       0.16666667 </v>
    <v>       0.50000000       0.16666667       0.16666667 </v>
    <v>       0.00000000       0.33333333       0.16666667 </v>
    <v>       0.16666667       0.33333333       0.16666667 </v>
    <v>       0.33333333       0.33333333       0.16666667 </v>
    <v>       0.50000000       0.33333333       0.16666667 </v>
    <v>       0.00000000       0.50000000       0.16666667 </v>
    <v>       0.16666667       0.50000000       0.16666667 </v>
    <v>       0.33333333       0.50000000       0.16666667 </v>
    <v>       0.50000000       0.50000000       0.16666667 </v>
    <v>       0.00000000      -0.33333333       0.16666667 </v>
    <v>       0.16666667      -0.33333333       0.16666667 </v>
    <v>       0.33333333      -0.33333333       0.16666667 </v>
    <v>       0.50000000      -0.33333333       0.16666667 </v>
    <v>       0.00000000      -0.16666667       0.16666667 </v>
    <v>       0.16666667      -0.16666667       0.16666667 </v>
    <v>       0.33333333      -0.16666667       0.16666667 </v>
    <v>       0.50000000      -0.16666667       0.16666667 </v>
    <v>       0.00000000       0.33333333       0.33333333 </v>
    <v>       0.16666667       0.33333333       0.33333333 </v>
    <v>       0.33333333       0.33333333       0.33333333 </v>
    <v>       0.50000000       0.33333333       0.33333333 </v>
    <v>       0.00000000       0.50000000       0.33333333 </v>
    <v>       0.16666667       0.50000000       0.33333333 </v>
    <v>       0.33333333       0.50000000       0.33333333 </v>
    <v>       0.50000000       0.50000000       0.33333333 </v>
    <v>       0.00000000      -0.33333333       0.33333333 </v>
    <v>       0.16666667      -0.33333333       0.33333333 </v>
    <v>       0.33333333      -0.33333333       0.33333333 </v>
    <v>       0.50000000      -0.33333333       0.33333333 </v>
    <v>       0.00000000       0.50000000       0.50000000 </v>
    <v>       0.16666667       0.50000000       0.50000000 </v>
    <v>       0.33333333       0.50000000       0.50000000 </v>
    <v>       0.50000000       0.50000000       0.50000000 </v>
   </varray>
   <varray name="weights" >
    <v>       0.00462963 </v>
    <v>       0.00925926 </v>
    <v>       0.00925926 </v>
    <v>       0.00462963 </v>
    <v>       0.01851852 </v>
    <v>       0.03703704 </v>
    <v>       0.03703704 </v>
    <v>       0.01851852 </v>
    <v>       0.01851852 </v>
    <v>       0.03703704 </v>
    <v>       0.03703704 </v>
    <v>       0.01851852 </v>
    <v>       0.00925926 </v>
    <v>       0.01851852 </v>
    <v>       0.01851852 </v>
    <v>       0.00925926 </v>
    <v>       0.00925926 </v>
    <v>       0.01851852 </v>
    <v>       0.01851852 </v>
    <v>       0.00925926 </v>
    <v>       0.01851852 </v>
    <v>       0.03703704 </v>
    <v>       0.03703704 </v>
    <v>       0.01851852 </v>
    <v>       0.01851852 </v>
    <v>       0.03703704 </v>
    <v>       0.03703704 </v>
    <v>       0.01851852 </v>
    <v>       0.01851852 </v>
    <v>       0.03703704 </v>
    <v>       0.03703704 </v>
    <v>       0.01851852 </v>
    <v>       0.00925926 </v>
    <v>       0.01851852 </v>
    <v>       0.01851852 </v>
    <v>       0.00925926 </v>
    <v>       0.00925926 </v>
    <v>       0.01851852 </v>
    <v>       0.01851852 </v>
    <v>       0.00925926 </v>
    <v>       0.01851852 </v>
    <v>       0.03703704 </v>
    <v>       0.03703704 </v>
    <v>       0.01851852 </v>
    <v>       0.00925926 </v>
    <v>       0.01851852 </v>
    <v>       0.01851852 </v>
    <v>       0.00925926 </v>
    <v>       0.00462963 </v>
    <v>       0.00925926 </v>
    <v>       0.00925926 </v>
    <v>       0.00462963 </v>
   </varray>
  </kpoints>
  <scstep>
   <time name="total">   43.04   43.05</time>
   <energy>
    <i name="e_fr_energy">   -367.41476269 </i>
    <i name="e_wo_entrp">   -367.41476269 </i>
    <i name="e_0_energy">   -367.41476269 </i>
   </energy>
  </scstep>
  <scstep>
   <time name="total">   31.58   31.58</time>
   <energy>
    <i name="e_fr_energy">   -311.52114195 </i>
    <i name="e_wo_entrp">   -311.52114195 </i>
    <i name="e_0_energy">   -311.52114195 </i>
   </energy>
  </scstep>
  <scstep>
   <time name="total">   31.85   31.85</time>
   <energy>
    <i name="e_fr_energy">   -311.07920030 </i>
    <i name="e_wo_entrp">   -311.07920030 </i>
    <i name="e_0_energy">   -311.07920030 </i>
   </energy>
  </scstep>
  <scstep>
   <time name="total">   32.10   32.11</time>
   <energy>
    <i name="e_fr_energy">   -311.78864197 </i>
    <i name="e_wo_entrp">   -311.78864197 </i>
    <i name="e_0_energy">   -311.78864197 </i>
   </energy>
  </scstep>
  <scstep>
   <time name="total">   33.70   33.70</time>
   <energy>
    <i name="e_fr_energy">   -312.01354364 </i>
    <i name="e_wo_entrp">   -312.01354364 </i>
    <i name="e_0_energy">   -312.01354364 </i>
   </energy>
  </scstep>
  <scstep>
   <time name="total">   32.90   32.90</time>
   <energy>
    <i name="e_fr_energy">   -311.97409051 </i>
    <i name="e_wo_entrp">   -311.97409051 </i>
    <i name="e_0_energy">   -311.97409051 </i>
   </energy>
  </scstep>
  <scstep>
   <time name="total">   33.91   33.92</time>
   <energy>
    <i name="e_fr_energy">   -311.95327931 </i>
    <i name="e_wo_entrp">   -311.95327931 </i>
    <i name="e_0_energy">   -311.95327931 </i>
   </energy>
  </scstep>
  <scstep>
   <time name="total">   33.04   33.05</time>
   <energy>
    <i name="e_fr_energy">   -311.95107880 </i>
    <i name="e_wo_entrp">   -311.95107880 </i>
    <i name="e_0_energy">   -311.95107880 </i>
   </energy>
  </scstep>
  <scstep>
   <time name="total">   33.49   33.49</time>
   <energy>
    <i name="e_fr_energy">   -311.95054919 </i>
    <i name="e_wo_entrp">   -311.95054919 </i>
    <i name="e_0_energy">   -311.95054919 </i>
   </energy>
  </scstep>
  <scstep>
   <time name="total">   33.72   33.73</time>
   <energy>
    <i name="e_fr_energy">   -311.95074294 </i>
    <i name="e_wo_entrp">   -311.95074294 </i>
    <i name="e_0_energy">   -311.95074294 </i>
   </energy>
  </scstep>
  <scstep>
   <time name="total">   34.98   34.98</time>
   <energy>
    <i name="e_fr_energy">   -311.95085601 </i>
    <i name="e_wo_entrp">   -311.95085601 </i>
    <i name="e_0_energy">   -311.95085601 </i>
   </energy>
  </scstep>
  <scstep>
   <time name="total">   34.44   34.44</time>
   <energy>
    <i name="e_fr_energy">   -311.95100330 </i>
    <i name="e_wo_entrp">   -311.95100330 </i>
    <i name="e_0_energy">   -311.95100330 </i>
   </energy>
  </scstep>
  <kpoints>
   <generation param="Gamma">
    <v type="int" name="divisions">       6        6        6 </v>
    <v name="usershift">      0.00000000       0.00000000       0.00000000 </v>
    <v name="genvec1">      0.16666667       0.00000000       0.00000000 </v>
    <v name="genvec2">      0.00000000       0.16666667       0.00000000 </v>
    <v name="genvec3">      0.00000000       0.00000000       0.16666667 </v>
    <v name="shift">      0.00000000       0.00000000       0.00000000 </v>
   </generation>
   <varray name="kpointlist" >
    <v>       0.00000000       0.00000000       0.00000000 </v>
    <v>       0.16666667       0.00000000       0.00000000 </v>
    <v>       0.33333333       0.00000000       0.00000000 </v>
    <v>       0.50000000       0.00000000       0.00000000 </v>
    <v>       0.16666667       0.16666667       0.00000000 </v>
    <v>       0.33333333       0.16666667       0.00000000 </v>
    <v>       0.50000000       0.16666667       0.00000000 </v>
    <v>       0.33333333       0.33333333       0.00000000 </v>
    <v>       0.50000000       0.33333333       0.00000000 </v>
    <v>       0.50000000       0.50000000       0.00000000 </v>
    <v>       0.16666667       0.16666667       0.16666667 </v>
    <v>       0.33333333       0.16666667       0.16666667 </v>
    <v>       0.50000000       0.16666667       0.16666667 </v>
    <v>       0.33333333       0.33333333       0.16666667 </v>
    <v>       0.50000000       0.33333333       0.16666667 </v>
    <v>       0.50000000       0.50000000       0.16666667 </v>
    <v>       0.33333333       0.33333333       0.33333333 </v>
    <v>       0.50000000       0.33333333       0.33333333 </v>
    <v>       0.50000000       0.50000000       0.33333333 </v>
    <v>       0.50000000       0.50000000       0.50000000 </v>
   </varray>
   <varray name="weights" >
    <v>       0.00462963 </v>
    <v>       0.02777778 </v>
    <v>       0.02777778 </v>
    <v>       0.01388889 </v>
    <v>       0.05555556 </v>
    <v>       0.11111111 </v>
    <v>       0.05555556 </v>
    <v>       0.05555556 </v>
    <v>       0.05555556 </v>
    <v>       0.01388889 </v>
    <v>       0.03703704 </v>
    <v>       0.11111111 </v>
    <v>       0.05555556 </v>
    <v>       0.11111111 </v>
    <v>       0.11111111 </v>
    <v>       0.02777778 </v>
    <v>       0.03703704 </v>
    <v>       0.05555556 </v>
    <v>       0.02777778 </v>
    <v>       0.00462963 </v>
   </varray>
  </kpoints>
  <dynmat>
   <varray name="hessian" >
    <v>      -3.78972444      -0.00000000      -0.00000000       0.01411651      -0.00000000      -0.00000000       0.00787699      -0.00000000      -0.00000000       0.01017492      -0.00000000       0.00000000       0.00787699      -0.00000000       0.00000000       0.01017492       0.00000000      -0.00000000      -0.04796660       0.00000000      -0.00000000       0.00450099      -0.00000000       0.00000000      -0.01324319      -0.00791645       0.00254169       0.00725784      -0.00926098      -0.01844645       0.78517659      -0.19855028      -0.19855028      -0.00555306      -0.00791645      -0.00791645       0.02896487      -0.01844645      -0.01844645      -0.00280986      -0.00255836      -0.00255836      -0.01324319       0.00254169      -0.00791645       0.00725784      -0.01844645      -0.00926098      -0.11760389       0.06142058      -0.06142058      -0.00505685       0.00328885      -0.00328885      -0.11760389       0.06142058       0.06142058      -0.00505685       0.00328885       0.00328885      -0.11760389      -0.06142058      -0.06142058      -0.00505685      -0.00328885      -0.00328885      -0.11760389      -0.06142058       0.06142058      -0.00505685      -0.00328885       0.00328885       0.78517659       0.19855028       0.19855028      -0.00555306       0.00791645       0.00791645      -0.01324319       0.00791645      -0.00254169       0.00725784       0.00926098       0.01844645      -0.01324319      -0.00254169       0.00791645       0.00725784       0.01844645       0.00926098       0.02896487       0.01844645       0.01844645      -0.00280986       0.00255836       0.00255836       0.13023325      -0.06142058       0.13551126       0.13023325      -0.06142058      -0.13551126       0.00706441      -0.00328885      -0.00617258       0.00706441      -0.00328885       0.00617258       0.13023325       0.06142058      -0.13551126       0.13023325       0.06142058       0.13551126       0.00706441       0.00328885       0.00617258       0.00706441       0.00328885      -0.00617258      -0.01324319       0.00791645       0.00254169       0.00725784       0.00926098      -0.01844645       0.78517659       0.19855028      -0.19855028      -0.00555306       0.00791645      -0.00791645       0.02896487       0.01844645      -0.01844645      -0.00280986       0.00255836      -0.00255836      -0.01324319      -0.00254169      -0.00791645       0.00725784       0.01844645      -0.00926098       0.13023325      -0.13551126       0.06142058       0.13023325       0.13551126       0.06142058       0.13023325       0.13551126      -0.06142058       0.13023325      -0.13551126      -0.06142058       0.00706441       0.00617258       0.00328885       0.00706441      -0.00617258       0.00328885       0.00706441      -0.00617258      -0.00328885       0.00706441       0.00617258      -0.00328885       0.78517659      -0.19855028       0.19855028      -0.00555306      -0.00791645       0.00791645      -0.01324319      -0.00791645      -0.00254169       0.00725784      -0.00926098       0.01844645      -0.01324319       0.00254169       0.00791645       0.00725784      -0.01844645       0.00926098       0.02896487      -0.01844645       0.01844645      -0.00280986      -0.00255836       0.00255836 </v>
    <v>      -0.00000000      -3.78972444      -0.00000000      -0.00000000       0.00787699      -0.00000000      -0.00000000       0.01411651      -0.00000000      -0.00000000       0.01017492       0.00000000      -0.00000000       0.00787699       0.00000000       0.00000000      -0.04796660      -0.00000000       0.00000000       0.01017492      -0.00000000      -0.00000000       0.00450099       0.00000000      -0.00791645      -0.00555306       0.00791645      -0.00926098       0.00725784       0.01844645      -0.19855028       0.78517659       0.19855028      -0.00791645      -0.01324319      -0.00254169      -0.01844645       0.00725784       0.00926098      -0.00255836      -0.00280986       0.00255836       0.00254169      -0.01324319       0.00791645      -0.01844645       0.02896487       0.01844645      -0.06142058       0.13023325      -0.13551126      -0.00328885       0.00706441       0.00617258      -0.06142058       0.13023325       0.13551126      -0.00328885       0.00706441      -0.00617258       0.06142058       0.13023325       0.13551126       0.00328885       0.00706441      -0.00617258       0.06142058       0.13023325      -0.13551126       0.00328885       0.00706441       0.00617258       0.19855028       0.78517659       0.19855028       0.00791645      -0.01324319      -0.00254169       0.00791645      -0.00555306       0.00791645       0.00926098       0.00725784       0.01844645      -0.00254169      -0.01324319       0.00791645       0.01844645       0.02896487       0.01844645       0.01844645       0.00725784       0.00926098       0.00255836      -0.00280986       0.00255836       0.06142058      -0.11760389       0.06142058       0.06142058      -0.11760389      -0.06142058       0.00328885      -0.00505685       0.00328885       0.00328885      -0.00505685      -0.00328885      -0.06142058      -0.11760389       0.06142058      -0.06142058      -0.11760389      -0.06142058      -0.00328885      -0.00505685       0.00328885      -0.00328885      -0.00505685      -0.00328885       0.00791645      -0.00555306      -0.00791645       0.00926098       0.00725784      -0.01844645       0.19855028       0.78517659      -0.19855028       0.00791645      -0.01324319       0.00254169       0.01844645       0.00725784      -0.00926098       0.00255836      -0.00280986      -0.00255836      -0.00254169      -0.01324319      -0.00791645       0.01844645       0.02896487      -0.01844645      -0.13551126       0.13023325      -0.06142058       0.13551126       0.13023325       0.06142058       0.13551126       0.13023325      -0.06142058      -0.13551126       0.13023325       0.06142058       0.00617258       0.00706441      -0.00328885      -0.00617258       0.00706441       0.00328885      -0.00617258       0.00706441      -0.00328885       0.00617258       0.00706441       0.00328885      -0.19855028       0.78517659      -0.19855028      -0.00791645      -0.01324319       0.00254169      -0.00791645      -0.00555306      -0.00791645      -0.00926098       0.00725784      -0.01844645       0.00254169      -0.01324319      -0.00791645      -0.01844645       0.02896487      -0.01844645      -0.01844645       0.00725784      -0.00926098      -0.00255836      -0.00280986      -0.00255836 </v>
    <v>      -0.00000000      -0.00000000      -3.78972444      -0.00000000      -0.00000000       0.00787699      -0.00000000      -0.00000000       0.00787699       0.00000000       0.00000000      -0.04796660       0.00000000       0.00000000       0.01411651      -0.00000000      -0.00000000       0.01017492      -0.00000000      -0.00000000       0.01017492       0.00000000       0.00000000       0.00450099       0.00254169       0.00791645      -0.01324319      -0.01844645       0.01844645       0.02896487      -0.19855028       0.19855028       0.78517659      -0.00791645      -0.00254169      -0.01324319      -0.01844645       0.00926098       0.00725784      -0.00255836       0.00255836      -0.00280986      -0.00791645       0.00791645      -0.00555306      -0.00926098       0.01844645       0.00725784       0.06142058      -0.13551126       0.13023325       0.00328885       0.00617258       0.00706441      -0.06142058       0.13551126       0.13023325      -0.00328885      -0.00617258       0.00706441       0.06142058       0.13551126       0.13023325       0.00328885      -0.00617258       0.00706441      -0.06142058      -0.13551126       0.13023325      -0.00328885       0.00617258       0.00706441       0.19855028       0.19855028       0.78517659       0.00791645      -0.00254169      -0.01324319      -0.00254169       0.00791645      -0.01324319       0.01844645       0.01844645       0.02896487       0.00791645       0.00791645      -0.00555306       0.00926098       0.01844645       0.00725784       0.01844645       0.00926098       0.00725784       0.00255836       0.00255836      -0.00280986       0.13551126      -0.06142058       0.13023325      -0.13551126       0.06142058       0.13023325      -0.00617258      -0.00328885       0.00706441       0.00617258       0.00328885       0.00706441      -0.13551126      -0.06142058       0.13023325       0.13551126       0.06142058       0.13023325       0.00617258      -0.00328885       0.00706441      -0.00617258       0.00328885       0.00706441       0.00254169      -0.00791645      -0.01324319      -0.01844645      -0.01844645       0.02896487      -0.19855028      -0.19855028       0.78517659      -0.00791645       0.00254169      -0.01324319      -0.01844645      -0.00926098       0.00725784      -0.00255836      -0.00255836      -0.00280986      -0.00791645      -0.00791645      -0.00555306      -0.00926098      -0.01844645       0.00725784      -0.06142058       0.06142058      -0.11760389      -0.06142058      -0.06142058      -0.11760389       0.06142058       0.06142058      -0.11760389       0.06142058      -0.06142058      -0.11760389      -0.00328885       0.00328885      -0.00505685      -0.00328885      -0.00328885      -0.00505685       0.00328885       0.00328885      -0.00505685       0.00328885      -0.00328885      -0.00505685       0.19855028      -0.19855028       0.78517659       0.00791645       0.00254169      -0.01324319      -0.00254169      -0.00791645      -0.01324319       0.01844645      -0.01844645       0.02896487       0.00791645      -0.00791645      -0.00555306       0.00926098      -0.01844645       0.00725784       0.01844645      -0.00926098       0.00725784       0.00255836      -0.00255836      -0.00280986 </v>
    <v>       0.01411651      -0.00000000      -0.00000000      -3.78972444      -0.00000000      -0.00000000       0.01017492      -0.00000000       0.00000000       0.00787699      -0.00000000      -0.00000000       0.01017492       0.00000000      -0.00000000       0.00787699      -0.00000000       0.00000000       0.00450099      -0.00000000       0.00000000      -0.04796660       0.00000000      -0.00000000       0.00725784      -0.00926098      -0.01844645      -0.01324319      -0.00791645       0.00254169      -0.00555306      -0.00791645      -0.00791645       0.78517659      -0.19855028      -0.19855028      -0.00280986      -0.00255836      -0.00255836       0.02896487      -0.01844645      -0.01844645       0.00725784      -0.01844645      -0.00926098      -0.01324319       0.00254169      -0.00791645      -0.00505685       0.00328885      -0.00328885      -0.11760389       0.06142058      -0.06142058      -0.00505685       0.00328885       0.00328885      -0.11760389       0.06142058       0.06142058      -0.00505685      -0.00328885      -0.00328885      -0.11760389      -0.06142058      -0.06142058      -0.00505685      -0.00328885       0.00328885      -0.11760389      -0.06142058       0.06142058      -0.00555306       0.00791645       0.00791645       0.78517659       0.19855028       0.19855028       0.00725784       0.00926098       0.01844645      -0.01324319       0.00791645      -0.00254169       0.00725784       0.01844645       0.00926098      -0.01324319      -0.00254169       0.00791645      -0.00280986       0.00255836       0.00255836       0.02896487       0.01844645       0.01844645       0.13023325      -0.06142058      -0.13551126       0.13023325      -0.06142058       0.13551126       0.00706441      -0.00328885       0.00617258       0.00706441      -0.00328885      -0.00617258       0.13023325       0.06142058       0.13551126       0.13023325       0.06142058      -0.13551126       0.00706441       0.00328885      -0.00617258       0.00706441       0.00328885       0.00617258       0.00725784       0.00926098      -0.01844645      -0.01324319       0.00791645       0.00254169      -0.00555306       0.00791645      -0.00791645       0.78517659       0.19855028      -0.19855028      -0.00280986       0.00255836      -0.00255836       0.02896487       0.01844645      -0.01844645       0.00725784       0.01844645      -0.00926098      -0.01324319      -0.00254169      -0.00791645       0.13023325       0.13551126       0.06142058       0.13023325      -0.13551126       0.06142058       0.13023325      -0.13551126      -0.06142058       0.13023325       0.13551126      -0.06142058       0.00706441      -0.00617258       0.00328885       0.00706441       0.00617258       0.00328885       0.00706441       0.00617258      -0.00328885       0.00706441      -0.00617258      -0.00328885      -0.00555306      -0.00791645       0.00791645       0.78517659      -0.19855028       0.19855028       0.00725784      -0.00926098       0.01844645      -0.01324319      -0.00791645      -0.00254169       0.00725784      -0.01844645       0.00926098      -0.01324319       0.00254169       0.00791645      -0.00280986      -0.00255836       0.00255836       0.02896487      -0.01844645       0.01844645 </v>
    <v>      -0.00000000       0.00787699      -0.00000000      -0.00000000      -3.78972444      -0.00000000      -0.00000000       0.01017492       0.00000000      -0.00000000       0.01411651      -0.00000000       0.00000000      -0.04796660      -0.00000000      -0.00000000       0.00787699       0.00000000      -0.00000000       0.00450099       0.00000000       0.00000000       0.01017492      -0.00000000      -0.00926098       0.00725784       0.01844645      -0.00791645      -0.00555306       0.00791645      -0.00791645      -0.01324319      -0.00254169      -0.19855028       0.78517659       0.19855028      -0.00255836      -0.00280986       0.00255836      -0.01844645       0.00725784       0.00926098      -0.01844645       0.02896487       0.01844645       0.00254169      -0.01324319       0.00791645      -0.00328885       0.00706441       0.00617258      -0.06142058       0.13023325      -0.13551126      -0.00328885       0.00706441      -0.00617258      -0.06142058       0.13023325       0.13551126       0.00328885       0.00706441      -0.00617258       0.06142058       0.13023325       0.13551126       0.00328885       0.00706441       0.00617258       0.06142058       0.13023325      -0.13551126       0.00791645      -0.01324319      -0.00254169       0.19855028       0.78517659       0.19855028       0.00926098       0.00725784       0.01844645       0.00791645      -0.00555306       0.00791645       0.01844645       0.02896487       0.01844645      -0.00254169      -0.01324319       0.00791645       0.00255836      -0.00280986       0.00255836       0.01844645       0.00725784       0.00926098       0.06142058      -0.11760389      -0.06142058       0.06142058      -0.11760389       0.06142058       0.00328885      -0.00505685      -0.00328885       0.00328885      -0.00505685       0.00328885      -0.06142058      -0.11760389      -0.06142058      -0.06142058      -0.11760389       0.06142058      -0.00328885      -0.00505685      -0.00328885      -0.00328885      -0.00505685       0.00328885       0.00926098       0.00725784      -0.01844645       0.00791645      -0.00555306      -0.00791645       0.00791645      -0.01324319       0.00254169       0.19855028       0.78517659      -0.19855028       0.00255836      -0.00280986      -0.00255836       0.01844645       0.00725784      -0.00926098       0.01844645       0.02896487      -0.01844645      -0.00254169      -0.01324319      -0.00791645       0.13551126       0.13023325       0.06142058      -0.13551126       0.13023325      -0.06142058      -0.13551126       0.13023325       0.06142058       0.13551126       0.13023325      -0.06142058      -0.00617258       0.00706441       0.00328885       0.00617258       0.00706441      -0.00328885       0.00617258       0.00706441       0.00328885      -0.00617258       0.00706441      -0.00328885      -0.00791645      -0.01324319       0.00254169      -0.19855028       0.78517659      -0.19855028      -0.00926098       0.00725784      -0.01844645      -0.00791645      -0.00555306      -0.00791645      -0.01844645       0.02896487      -0.01844645       0.00254169      -0.01324319      -0.00791645      -0.00255836      -0.00280986      -0.00255836      -0.01844645       0.00725784      -0.00926098 </v>
    <v>      -0.00000000      -0.00000000       0.00787699      -0.00000000      -0.00000000      -3.78972444       0.00000000       0.00000000      -0.04796660      -0.00000000      -0.00000000       0.00787699      -0.00000000      -0.00000000       0.01017492       0.00000000       0.00000000       0.01411651       0.00000000       0.00000000       0.00450099      -0.00000000      -0.00000000       0.01017492      -0.01844645       0.01844645       0.02896487       0.00254169       0.00791645      -0.01324319      -0.00791645      -0.00254169      -0.01324319      -0.19855028       0.19855028       0.78517659      -0.00255836       0.00255836      -0.00280986      -0.01844645       0.00926098       0.00725784      -0.00926098       0.01844645       0.00725784      -0.00791645       0.00791645      -0.00555306       0.00328885       0.00617258       0.00706441       0.06142058      -0.13551126       0.13023325      -0.00328885      -0.00617258       0.00706441      -0.06142058       0.13551126       0.13023325       0.00328885      -0.00617258       0.00706441       0.06142058       0.13551126       0.13023325      -0.00328885       0.00617258       0.00706441      -0.06142058      -0.13551126       0.13023325       0.00791645      -0.00254169      -0.01324319       0.19855028       0.19855028       0.78517659       0.01844645       0.01844645       0.02896487      -0.00254169       0.00791645      -0.01324319       0.00926098       0.01844645       0.00725784       0.00791645       0.00791645      -0.00555306       0.00255836       0.00255836      -0.00280986       0.01844645       0.00926098       0.00725784      -0.13551126       0.06142058       0.13023325       0.13551126      -0.06142058       0.13023325       0.00617258       0.00328885       0.00706441      -0.00617258      -0.00328885       0.00706441       0.13551126       0.06142058       0.13023325      -0.13551126      -0.06142058       0.13023325      -0.00617258       0.00328885       0.00706441       0.00617258      -0.00328885       0.00706441      -0.01844645      -0.01844645       0.02896487       0.00254169      -0.00791645      -0.01324319      -0.00791645       0.00254169      -0.01324319      -0.19855028      -0.19855028       0.78517659      -0.00255836      -0.00255836      -0.00280986      -0.01844645      -0.00926098       0.00725784      -0.00926098      -0.01844645       0.00725784      -0.00791645      -0.00791645      -0.00555306      -0.06142058      -0.06142058      -0.11760389      -0.06142058       0.06142058      -0.11760389       0.06142058      -0.06142058      -0.11760389       0.06142058       0.06142058      -0.11760389      -0.00328885      -0.00328885      -0.00505685      -0.00328885       0.00328885      -0.00505685       0.00328885      -0.00328885      -0.00505685       0.00328885       0.00328885      -0.00505685       0.00791645       0.00254169      -0.01324319       0.19855028      -0.19855028       0.78517659       0.01844645      -0.01844645       0.02896487      -0.00254169      -0.00791645      -0.01324319       0.00926098      -0.01844645       0.00725784       0.00791645      -0.00791645      -0.00555306       0.00255836      -0.00255836      -0.00280986       0.01844645      -0.00926098       0.00725784 </v>
    <v>       0.00787699      -0.00000000      -0.00000000       0.01017492      -0.00000000       0.00000000      -3.78972444      -0.00000000      -0.00000000       0.01411651      -0.00000000      -0.00000000      -0.04796660       0.00000000      -0.00000000       0.00450099      -0.00000000       0.00000000       0.00787699      -0.00000000       0.00000000       0.01017492       0.00000000      -0.00000000       0.78517659      -0.19855028      -0.19855028      -0.00555306      -0.00791645      -0.00791645      -0.01324319      -0.00791645       0.00254169       0.00725784      -0.00926098      -0.01844645      -0.01324319       0.00254169      -0.00791645       0.00725784      -0.01844645      -0.00926098       0.02896487      -0.01844645      -0.01844645      -0.00280986      -0.00255836      -0.00255836      -0.11760389       0.06142058       0.06142058      -0.00505685       0.00328885       0.00328885      -0.11760389       0.06142058      -0.06142058      -0.00505685       0.00328885      -0.00328885      -0.11760389      -0.06142058       0.06142058      -0.00505685      -0.00328885       0.00328885      -0.11760389      -0.06142058      -0.06142058      -0.00505685      -0.00328885      -0.00328885      -0.01324319       0.00791645      -0.00254169       0.00725784       0.00926098       0.01844645       0.78517659       0.19855028       0.19855028      -0.00555306       0.00791645       0.00791645       0.02896487       0.01844645       0.01844645      -0.00280986       0.00255836       0.00255836      -0.01324319      -0.00254169       0.00791645       0.00725784       0.01844645       0.00926098       0.00706441      -0.00328885      -0.00617258       0.00706441      -0.00328885       0.00617258       0.13023325      -0.06142058       0.13551126       0.13023325      -0.06142058      -0.13551126       0.00706441       0.00328885       0.00617258       0.00706441       0.00328885      -0.00617258       0.13023325       0.06142058      -0.13551126       0.13023325       0.06142058       0.13551126       0.78517659       0.19855028      -0.19855028      -0.00555306       0.00791645      -0.00791645      -0.01324319       0.00791645       0.00254169       0.00725784       0.00926098      -0.01844645      -0.01324319      -0.00254169      -0.00791645       0.00725784       0.01844645      -0.00926098       0.02896487       0.01844645      -0.01844645      -0.00280986       0.00255836      -0.00255836       0.13023325       0.13551126      -0.06142058       0.13023325      -0.13551126      -0.06142058       0.13023325      -0.13551126       0.06142058       0.13023325       0.13551126       0.06142058       0.00706441      -0.00617258      -0.00328885       0.00706441       0.00617258      -0.00328885       0.00706441       0.00617258       0.00328885       0.00706441      -0.00617258       0.00328885      -0.01324319      -0.00791645      -0.00254169       0.00725784      -0.00926098       0.01844645       0.78517659      -0.19855028       0.19855028      -0.00555306      -0.00791645       0.00791645       0.02896487      -0.01844645       0.01844645      -0.00280986      -0.00255836       0.00255836      -0.01324319       0.00254169       0.00791645       0.00725784      -0.01844645       0.00926098 </v>
    <v>      -0.00000000       0.01411651      -0.00000000      -0.00000000       0.01017492       0.00000000      -0.00000000      -3.78972444      -0.00000000      -0.00000000       0.00787699      -0.00000000       0.00000000       0.01017492      -0.00000000      -0.00000000       0.00450099       0.00000000      -0.00000000       0.00787699       0.00000000       0.00000000      -0.04796660      -0.00000000      -0.19855028       0.78517659       0.19855028      -0.00791645      -0.01324319      -0.00254169      -0.00791645      -0.00555306       0.00791645      -0.00926098       0.00725784       0.01844645       0.00254169      -0.01324319       0.00791645      -0.01844645       0.02896487       0.01844645      -0.01844645       0.00725784       0.00926098      -0.00255836      -0.00280986       0.00255836      -0.06142058       0.13023325       0.13551126      -0.00328885       0.00706441      -0.00617258      -0.06142058       0.13023325      -0.13551126      -0.00328885       0.00706441       0.00617258       0.06142058       0.13023325      -0.13551126       0.00328885       0.00706441       0.00617258       0.06142058       0.13023325       0.13551126       0.00328885       0.00706441      -0.00617258       0.00791645      -0.00555306       0.00791645       0.00926098       0.00725784       0.01844645       0.19855028       0.78517659       0.19855028       0.00791645      -0.01324319      -0.00254169       0.01844645       0.00725784       0.00926098       0.00255836      -0.00280986       0.00255836      -0.00254169      -0.01324319       0.00791645       0.01844645       0.02896487       0.01844645       0.00328885      -0.00505685       0.00328885       0.00328885      -0.00505685      -0.00328885       0.06142058      -0.11760389       0.06142058       0.06142058      -0.11760389      -0.06142058      -0.00328885      -0.00505685       0.00328885      -0.00328885      -0.00505685      -0.00328885      -0.06142058      -0.11760389       0.06142058      -0.06142058      -0.11760389      -0.06142058       0.19855028       0.78517659      -0.19855028       0.00791645      -0.01324319       0.00254169       0.00791645      -0.00555306      -0.00791645       0.00926098       0.00725784      -0.01844645      -0.00254169      -0.01324319      -0.00791645       0.01844645       0.02896487      -0.01844645       0.01844645       0.00725784      -0.00926098       0.00255836      -0.00280986      -0.00255836       0.13551126       0.13023325      -0.06142058      -0.13551126       0.13023325       0.06142058      -0.13551126       0.13023325      -0.06142058       0.13551126       0.13023325       0.06142058      -0.00617258       0.00706441      -0.00328885       0.00617258       0.00706441       0.00328885       0.00617258       0.00706441      -0.00328885      -0.00617258       0.00706441       0.00328885      -0.00791645      -0.00555306      -0.00791645      -0.00926098       0.00725784      -0.01844645      -0.19855028       0.78517659      -0.19855028      -0.00791645      -0.01324319       0.00254169      -0.01844645       0.00725784      -0.00926098      -0.00255836      -0.00280986      -0.00255836       0.00254169      -0.01324319      -0.00791645      -0.01844645       0.02896487      -0.01844645 </v>
    <v>      -0.00000000      -0.00000000       0.00787699       0.00000000       0.00000000      -0.04796660      -0.00000000      -0.00000000      -3.78972444      -0.00000000      -0.00000000       0.00787699      -0.00000000      -0.00000000       0.01017492       0.00000000       0.00000000       0.00450099       0.00000000       0.00000000       0.01411651      -0.00000000      -0.00000000       0.01017492      -0.19855028       0.19855028       0.78517659      -0.00791645      -0.00254169      -0.01324319       0.00254169       0.00791645      -0.01324319      -0.01844645       0.01844645       0.02896487      -0.00791645       0.00791645      -0.00555306      -0.00926098       0.01844645       0.00725784      -0.01844645       0.00926098       0.00725784      -0.00255836       0.00255836      -0.00280986      -0.06142058       0.13551126       0.13023325      -0.00328885      -0.00617258       0.00706441       0.06142058      -0.13551126       0.13023325       0.00328885       0.00617258       0.00706441      -0.06142058      -0.13551126       0.13023325      -0.00328885       0.00617258       0.00706441       0.06142058       0.13551126       0.13023325       0.00328885      -0.00617258       0.00706441      -0.00254169       0.00791645      -0.01324319       0.01844645       0.01844645       0.02896487       0.19855028       0.19855028       0.78517659       0.00791645      -0.00254169      -0.01324319       0.01844645       0.00926098       0.00725784       0.00255836       0.00255836      -0.00280986       0.00791645       0.00791645      -0.00555306       0.00926098       0.01844645       0.00725784      -0.00617258      -0.00328885       0.00706441       0.00617258       0.00328885       0.00706441       0.13551126      -0.06142058       0.13023325      -0.13551126       0.06142058       0.13023325       0.00617258      -0.00328885       0.00706441      -0.00617258       0.00328885       0.00706441      -0.13551126      -0.06142058       0.13023325       0.13551126       0.06142058       0.13023325      -0.19855028      -0.19855028       0.78517659      -0.00791645       0.00254169      -0.01324319       0.00254169      -0.00791645      -0.01324319      -0.01844645      -0.01844645       0.02896487      -0.00791645      -0.00791645      -0.00555306      -0.00926098      -0.01844645       0.00725784      -0.01844645      -0.00926098       0.00725784      -0.00255836      -0.00255836      -0.00280986       0.06142058       0.06142058      -0.11760389       0.06142058      -0.06142058      -0.11760389      -0.06142058       0.06142058      -0.11760389      -0.06142058      -0.06142058      -0.11760389       0.00328885       0.00328885      -0.00505685       0.00328885      -0.00328885      -0.00505685      -0.00328885       0.00328885      -0.00505685      -0.00328885      -0.00328885      -0.00505685      -0.00254169      -0.00791645      -0.01324319       0.01844645      -0.01844645       0.02896487       0.19855028      -0.19855028       0.78517659       0.00791645       0.00254169      -0.01324319       0.01844645      -0.00926098       0.00725784       0.00255836      -0.00255836      -0.00280986       0.00791645      -0.00791645      -0.00555306       0.00926098      -0.01844645       0.00725784 </v>
[...]
      </set>
     </set>
    </set>
   </array>
  </eigenvalues>
  <separator name="orbital magnetization" >
   <v name="MAGDIPOLOUT">      0.00000000      0.00000000      0.00000000</v>
  </separator>
  <dos>
   <i name="efermi">     10.27751742 </i>
   <total>
    <array>
     <dimension dim="1">gridpoints</dimension>
     <dimension dim="2">spin</dimension>
     <field>energy</field>
     <field>total</field>
     <field>integrated</field>
     <set>
      <set comment="spin 1">
       <r>   -13.3812     0.0000     0.0000 </r>
       <r>   -13.2587     0.0000     0.0000 </r>
       <r>   -13.1361     0.0000     0.0000 </r>
       <r>   -13.0136     0.0000     0.0000 </r>
       <r>   -12.8910     0.0000     0.0000 </r>
       <r>   -12.7685     0.0000     0.0000 </r>
       <r>   -12.6459     0.0000     0.0000 </r>
       <r>   -12.5234     0.0000     0.0000 </r>
       <r>   -12.4009     0.0000     0.0000 </r>
       <r>   -12.2783     0.0000     0.0000 </r>
       <r>   -12.1558     0.0000     0.0000 </r>
       <r>   -12.0332     0.0000     0.0000 </r>
       <r>   -11.9107     0.0000     0.0000 </r>
       <r>   -11.7881     0.0027     0.0003 </r>
       <r>   -11.6656     0.2271     0.0282 </r>
       <r>   -11.5430     1.2015     0.1754 </r>
       <r>   -11.4205     1.3656     0.3427 </r>
       <r>   -11.2980     2.7958     0.6853 </r>
       <r>   -11.1754     1.4686     0.8653 </r>
       <r>   -11.0529     3.4829     1.2921 </r>
       <r>   -10.9303     2.8039     1.6357 </r>
       <r>   -10.8078     3.7451     2.0947 </r>
       <r>   -10.6852     2.2732     2.3732 </r>
       <r>   -10.5627     4.5168     2.9267 </r>
       <r>   -10.4401     4.2496     3.4475 </r>
       <r>   -10.3176     4.9405     4.0529 </r>
       <r>   -10.1951     2.3157     4.3367 </r>
       <r>   -10.0725     4.4393     4.8807 </r>
       <r>    -9.9500     6.3581     5.6599 </r>
       <r>    -9.8274     5.2827     6.3072 </r>
       <r>    -9.7049     4.4725     6.8553 </r>
       <r>    -9.5823     3.8223     7.3237 </r>
       <r>    -9.4598     6.7796     8.1545 </r>
       <r>    -9.3372     4.9475     8.7608 </r>
       <r>    -9.2147     5.5965     9.4466 </r>
       <r>    -9.0922     6.2196    10.2088 </r>
       <r>    -8.9696     7.5277    11.1313 </r>
       <r>    -8.8471     5.7010    11.8299 </r>
       <r>    -8.7245     5.7916    12.5396 </r>
       <r>    -8.6020     3.2570    12.9388 </r>
       <r>    -8.4794     9.2515    14.0725 </r>
       <r>    -8.3569     6.9375    14.9226 </r>
       <r>    -8.2343     9.5234    16.0897 </r>
       <r>    -8.1118     5.6855    16.7864 </r>
       <r>    -7.9893     6.1724    17.5428 </r>
       <r>    -7.8667     6.5656    18.3474 </r>
       <r>    -7.7442     8.6307    19.4050 </r>
       <r>    -7.6216     5.1514    20.0363 </r>
       <r>    -7.4991    11.1628    21.4042 </r>
       <r>    -7.3765     8.4899    22.4446 </r>
       <r>    -7.2540     7.1644    23.3226 </r>
       <r>    -7.1314     5.6891    24.0197 </r>
       <r>    -7.0089    13.0326    25.6168 </r>
       <r>    -6.8864     9.1059    26.7327 </r>
       <r>    -6.7638     5.0682    27.3538 </r>
       <r>    -6.6413     8.1210    28.3490 </r>
       <r>    -6.5187     9.8413    29.5550 </r>
       <r>    -6.3962    10.2376    30.8095 </r>
       <r>    -6.2736    10.5968    32.1081 </r>
       <r>    -6.1511    12.7546    33.6711 </r>
       <r>    -6.0285    10.8515    35.0009 </r>
       <r>    -5.9060     9.7234    36.1924 </r>
       <r>    -5.7835     9.4657    37.3524 </r>
       <r>    -5.6609    10.0991    38.5900 </r>
       <r>    -5.5384    14.4239    40.3576 </r>
       <r>    -5.4158    12.8476    41.9320 </r>
       <r>    -5.2933    10.4648    43.2144 </r>
       <r>    -5.1707    10.1780    44.4616 </r>
       <r>    -5.0482    10.9584    45.8045 </r>
       <r>    -4.9256    12.5432    47.3416 </r>
       <r>    -4.8031    10.6969    48.6525 </r>
       <r>    -4.6806     6.4927    49.4481 </r>
       <r>    -4.5580    11.6960    50.8814 </r>
       <r>    -4.4355     7.9551    51.8562 </r>
       <r>    -4.3129     4.9576    52.4638 </r>
       <r>    -4.1904    10.7332    53.7791 </r>
       <r>    -4.0678    11.6188    55.2029 </r>
       <r>    -3.9453     5.5828    55.8870 </r>
       <r>    -3.8227     5.3069    56.5373 </r>
       <r>    -3.7002    12.9989    58.1303 </r>
       <r>    -3.5777     6.7145    58.9531 </r>
       <r>    -3.4551    12.1372    60.4405 </r>
       <r>    -3.3326     2.8264    60.7868 </r>
       <r>    -3.2100     7.4411    61.6987 </r>
       <r>    -3.0875     8.6897    62.7636 </r>
       <r>    -2.9649     5.1762    63.3979 </r>
       <r>    -2.8424     8.5397    64.4444 </r>
       <r>    -2.7198    13.7223    66.1260 </r>
       <r>    -2.5973    12.4347    67.6498 </r>
       <r>    -2.4748     8.4463    68.6848 </r>
       <r>    -2.3522     6.3810    69.4668 </r>
       <r>    -2.2297     9.8180    70.6699 </r>
       <r>    -2.1071    14.1648    72.4057 </r>
       <r>    -1.9846     7.5293    73.3284 </r>
       <r>    -1.8620    10.4710    74.6116 </r>
       <r>    -1.7395    13.2517    76.2355 </r>
       <r>    -1.6169    18.7646    78.5350 </r>
       <r>    -1.4944    21.8633    81.2142 </r>
       <r>    -1.3719    26.6257    84.4770 </r>
       <r>    -1.2493    19.9380    86.9203 </r>
       <r>    -1.1268    10.9820    88.2661 </r>
       <r>    -1.0042    12.0959    89.7484 </r>
       <r>    -0.8817     6.3372    90.5250 </r>
       <r>    -0.7591     9.9320    91.7421 </r>
       <r>    -0.6366    11.0044    93.0906 </r>
       <r>    -0.5140    12.2367    94.5901 </r>
       <r>    -0.3915     5.2050    95.2280 </r>
       <r>    -0.2690    10.8993    96.5636 </r>
       <r>    -0.1464    16.4623    98.5810 </r>
       <r>    -0.0239    14.3002   100.3334 </r>
       <r>     0.0987     8.5347   101.3793 </r>
       <r>     0.2212     3.5838   101.8185 </r>
       <r>     0.3438     1.4667   101.9982 </r>
       <r>     0.4663    11.1948   103.3701 </r>
       <r>     0.5889    18.4336   105.6290 </r>
       <r>     0.7114     7.3479   106.5295 </r>
       <r>     0.8339     7.3015   107.4242 </r>
       <r>     0.9565    13.5502   109.0847 </r>
       <r>     1.0790    18.7230   111.3791 </r>
       <r>     1.2016    24.5872   114.3921 </r>
       <r>     1.3241    19.6051   116.7946 </r>
       <r>     1.4467     9.7965   117.9951 </r>
       <r>     1.5692    11.4217   119.3948 </r>
       <r>     1.6918    14.1995   121.1349 </r>
       <r>     1.8143    11.5144   122.5459 </r>
       <r>     1.9368    28.4758   126.0354 </r>
       <r>     2.0594    22.1331   128.7477 </r>
       <r>     2.1819     8.0091   129.7292 </r>
       <r>     2.3045    12.5103   131.2622 </r>
       <r>     2.4270    16.3492   133.2657 </r>
       <r>     2.5496    21.0447   135.8447 </r>
       <r>     2.6721    21.9790   138.5381 </r>
       <r>     2.7947    18.3839   140.7909 </r>
       <r>     2.9172    13.1990   142.4084 </r>
       <r>     3.0397    19.0253   144.7398 </r>
       <r>     3.1623    21.6897   147.3977 </r>
       <r>     3.2848    17.2176   149.5077 </r>
       <r>     3.4074    20.7950   152.0560 </r>
       <r>     3.5299    30.3743   155.7782 </r>
       <r>     3.6525    27.4105   159.1372 </r>
       <r>     3.7750    24.5337   162.1436 </r>
       <r>     3.8976    12.2961   163.6505 </r>
       <r>     4.0201    25.6434   166.7929 </r>
       <r>     4.1426    24.0915   169.7452 </r>
       <r>     4.2652    32.6300   173.7438 </r>
       <r>     4.3877    31.3795   177.5892 </r>
       <r>     4.5103    17.5741   179.7428 </r>
       <r>     4.6328    20.9863   182.3146 </r>
       <r>     4.7554    24.2703   185.2888 </r>
       <r>     4.8779    20.3083   187.7774 </r>
       <r>     5.0004    18.2882   190.0185 </r>
       <r>     5.1230    25.2194   193.1090 </r>
       <r>     5.2455    29.9647   196.7810 </r>
       <r>     5.3681    22.6114   199.5519 </r>
       <r>     5.4906    19.7470   201.9718 </r>
       <r>     5.6132    23.8261   204.8916 </r>
       <r>     5.7357    14.8393   206.7101 </r>
       <r>     5.8583    28.2955   210.1775 </r>
       <r>     5.9808    19.1746   212.5272 </r>
       <r>     6.1033    12.9876   214.1188 </r>
       <r>     6.2259    26.7850   217.4012 </r>
       <r>     6.3484    24.6820   220.4258 </r>
       <r>     6.4710    19.3590   222.7981 </r>
       <r>     6.5935    25.5364   225.9275 </r>
       <r>     6.7161    16.3274   227.9283 </r>
       <r>     6.8386    13.1413   229.5387 </r>
       <r>     6.9612    15.9878   231.4979 </r>
       <r>     7.0837    23.0295   234.3201 </r>
       <r>     7.2062    31.2187   238.1457 </r>
       <r>     7.3288    11.3647   239.5384 </r>
       <r>     7.4513     6.8886   240.3826 </r>
       <r>     7.5739     9.7257   241.5744 </r>
       <r>     7.6964    14.8242   243.3910 </r>
       <r>     7.8190     8.4232   244.4232 </r>
       <r>     7.9415    14.2374   246.1680 </r>
       <r>     8.0641     9.9138   247.3828 </r>
       <r>     8.1866     6.6296   248.1953 </r>
       <r>     8.3091     7.6384   249.1313 </r>
       <r>     8.4317     5.5801   249.8151 </r>
       <r>     8.5542     7.6467   250.7522 </r>
       <r>     8.6768     8.0208   251.7351 </r>
       <r>     8.7993     5.4453   252.4024 </r>
       <r>     8.9219     2.6986   252.7331 </r>
       <r>     9.0444     7.1038   253.6036 </r>
       <r>     9.1670     4.9767   254.2134 </r>
       <r>     9.2895     2.9779   254.5784 </r>
       <r>     9.4120     2.1865   254.8463 </r>
       <r>     9.5346     3.1447   255.2317 </r>
       <r>     9.6571     3.8181   255.6996 </r>
       <r>     9.7797     1.1280   255.8378 </r>
       <r>     9.9022     1.0160   255.9623 </r>
       <r>    10.0248     0.3035   255.9995 </r>
       <r>    10.1473     0.0042   256.0000 </r>
       <r>    10.2699     0.0000   256.0000 </r>
       <r>    10.3924     0.0000   256.0000 </r>
       <r>    10.5149     0.0000   256.0000 </r>
       <r>    10.6375     0.0000   256.0000 </r>
       <r>    10.7600     0.0000   256.0000 </r>
       <r>    10.8826     0.0000   256.0000 </r>
       <r>    11.0051     0.0000   256.0000 </r>
       <r>    11.1277     0.0000   256.0000 </r>
       <r>    11.2502     0.0000   256.0000 </r>
       <r>    11.3728     0.0000   256.0000 </r>
       <r>    11.4953     0.0000   256.0000 </r>
       <r>    11.6178     0.0000   256.0000 </r>
       <r>    11.7404     0.0000   256.0000 </r>
       <r>    11.8629     0.0000   256.0000 </r>
       <r>    11.9855     0.0000   256.0000 </r>
       <r>    12.1080     0.0000   256.0000 </r>
       <r>    12.2306     0.0000   256.0000 </r>
       <r>    12.3531     0.0000   256.0000 </r>
       <r>    12.4757     0.0000   256.0000 </r>
       <r>    12.5982     0.0000   256.0000 </r>
       <r>    12.7207     0.0000   256.0000 </r>
       <r>    12.8433     0.0000   256.0000 </r>
       <r>    12.9658     0.0000   256.0000 </r>
       <r>    13.0884     0.0000   256.0000 </r>
       <r>    13.2109     0.0000   256.0000 </r>
       <r>    13.3335     0.0000   256.0000 </r>
       <r>    13.4560     0.0000   256.0000 </r>
       <r>    13.5786     0.0000   256.0000 </r>
       <r>    13.7011     0.0000   256.0000 </r>
       <r>    13.8236     0.0000   256.0000 </r>
       <r>    13.9462     0.0007   256.0001 </r>
       <r>    14.0687     0.3327   256.0409 </r>
       <r>    14.1913     1.1006   256.1757 </r>
       <r>    14.3138     0.8934   256.2852 </r>
       <r>    14.4364     4.9120   256.8872 </r>
       <r>    14.5589     4.5331   257.4427 </r>
       <r>    14.6815     7.5697   258.3703 </r>
       <r>    14.8040     4.6708   258.9427 </r>
       <r>    14.9265     3.6758   259.3931 </r>
       <r>    15.0491     3.0551   259.7675 </r>
       <r>    15.1716    17.8217   261.9514 </r>
       <r>    15.2942    14.1692   263.6878 </r>
       <r>    15.4167     9.9316   264.9049 </r>
       <r>    15.5393     8.4597   265.9416 </r>
       <r>    15.6618    14.6092   267.7318 </r>
       <r>    15.7844    12.1739   269.2237 </r>
       <r>    15.9069    12.1401   270.7114 </r>
       <r>    16.0294    13.9120   272.4162 </r>
       <r>    16.1520    19.7339   274.8345 </r>
       <r>    16.2745    16.4589   276.8514 </r>
       <r>    16.3971    21.0454   279.4304 </r>
       <r>    16.5196    12.9036   281.0117 </r>
       <r>    16.6422    17.3584   283.1389 </r>
       <r>    16.7647    18.4704   285.4023 </r>
       <r>    16.8873    24.0116   288.3448 </r>
       <r>    17.0098    20.4267   290.8480 </r>
       <r>    17.1323    12.9043   292.4293 </r>
       <r>    17.2549    26.6705   295.6977 </r>
       <r>    17.3774    23.7021   298.6022 </r>
       <r>    17.5000     9.6556   299.7855 </r>
       <r>    17.6225    18.6124   302.0663 </r>
       <r>    17.7451    26.3329   305.2933 </r>
       <r>    17.8676    49.3241   311.3376 </r>
       <r>    17.9902    38.6863   316.0784 </r>
       <r>    18.1127    26.3870   319.3120 </r>
       <r>    18.2352    22.7734   322.1028 </r>
       <r>    18.3578    23.6890   325.0057 </r>
       <r>    18.4803    25.1763   328.0909 </r>
       <r>    18.6029    35.8975   332.4900 </r>
       <r>    18.7254    36.0984   336.9136 </r>
       <r>    18.8480    32.4965   340.8959 </r>
       <r>    18.9705    32.0219   344.8200 </r>
       <r>    19.0931    33.4926   348.9243 </r>
       <r>    19.2156    26.0888   352.1214 </r>
       <r>    19.3381    31.8767   356.0277 </r>
       <r>    19.4607    27.6419   359.4150 </r>
       <r>    19.5832    18.3159   361.6595 </r>
       <r>    19.7058    23.8024   364.5764 </r>
       <r>    19.8283    25.9694   367.7588 </r>
       <r>    19.9509    28.0075   371.1910 </r>
       <r>    20.0734    20.0868   373.6525 </r>
       <r>    20.1960    28.6508   377.1635 </r>
       <r>    20.3185    20.2360   379.6433 </r>
       <r>    20.4410     9.6162   380.8217 </r>
       <r>    20.5636     2.6629   381.1480 </r>
       <r>    20.6861     4.2947   381.6743 </r>
       <r>    20.8087     7.2180   382.5588 </r>
       <r>    20.9312     4.3362   383.0902 </r>
       <r>    21.0538     1.4277   383.2652 </r>
       <r>    21.1763     2.3974   383.5590 </r>
       <r>    21.2989     0.5763   383.6296 </r>
       <r>    21.4214     0.3125   383.6679 </r>
       <r>    21.5439     0.8817   383.7759 </r>
       <r>    21.6665     0.2891   383.8113 </r>
       <r>    21.7890     1.4820   383.9930 </r>
       <r>    21.9116     0.0575   384.0000 </r>
       <r>    22.0341     0.0000   384.0000 </r>
       <r>    22.1567     0.0000   384.0000 </r>
       <r>    22.2792     0.0000   384.0000 </r>
       <r>    22.4018     0.0000   384.0000 </r>
       <r>    22.5243     0.0000   384.0000 </r>
       <r>    22.6468     0.0000   384.0000 </r>
       <r>    22.7694     0.0000   384.0000 </r>
       <r>    22.8919     0.0000   384.0000 </r>
       <r>    23.0145     0.0000   384.0000 </r>
       <r>    23.1370     0.0000   384.0000 </r>
       <r>    23.2596     0.0000   384.0000 </r>
       <r>    23.3821     0.0000   384.0000 </r>
      </set>
     </set>
    </array>
   </total>
  </dos>
 </calculation>
 <structure name="finalpos" >
  <crystal>
   <varray name="basis" >
    <v>       7.10783528       0.00000000       0.00000000 </v>
    <v>       0.00000000       7.10783528       0.00000000 </v>
    <v>       0.00000000       0.00000000       7.10783528 </v>
   </varray>
   <i name="volume">    359.09723776 </i>
   <varray name="rec_basis" >
    <v>       0.14068981       0.00000000       0.00000000 </v>
    <v>       0.00000000       0.14068981       0.00000000 </v>
    <v>       0.00000000       0.00000000       0.14068981 </v>
   </varray>
  </crystal>
  <varray name="positions" >
   <v>       0.12500000       0.37500000       0.12500000 </v>
   <v>       0.62500000       0.37500000       0.12500000 </v>
   <v>       0.12500000       0.87500000       0.12500000 </v>
   <v>       0.62500000       0.87500000       0.12500000 </v>
   <v>       0.12500000       0.37500000       0.62500000 </v>
   <v>       0.62500000       0.37500000       0.62500000 </v>
   <v>       0.12500000       0.87500000       0.62500000 </v>
   <v>       0.62500000       0.87500000       0.62500000 </v>
   <v>       0.00000000       0.00000000       0.25000000 </v>
   <v>       0.50000000       0.00000000       0.25000000 </v>
   <v>       0.00000000       0.50000000       0.25000000 </v>
   <v>       0.50000000       0.50000000       0.25000000 </v>
   <v>       0.00000000       0.00000000       0.75000000 </v>
   <v>       0.50000000       0.00000000       0.75000000 </v>
   <v>       0.00000000       0.50000000       0.75000000 </v>
   <v>       0.50000000       0.50000000       0.75000000 </v>
   <v>       0.12500000       0.12500000       0.37500000 </v>
   <v>       0.62500000       0.12500000       0.37500000 </v>
   <v>       0.12500000       0.62500000       0.37500000 </v>
   <v>       0.62500000       0.62500000       0.37500000 </v>
   <v>       0.12500000       0.12500000       0.87500000 </v>
   <v>       0.62500000       0.12500000       0.87500000 </v>
   <v>       0.12500000       0.62500000       0.87500000 </v>
   <v>       0.62500000       0.62500000       0.87500000 </v>
   <v>       0.00000000       0.25000000       0.00000000 </v>
   <v>       0.50000000       0.25000000       0.00000000 </v>
   <v>       0.00000000       0.75000000       0.00000000 </v>
   <v>       0.50000000       0.75000000       0.00000000 </v>
   <v>       0.00000000       0.25000000       0.50000000 </v>
   <v>       0.50000000       0.25000000       0.50000000 </v>
   <v>       0.00000000       0.75000000       0.50000000 </v>
   <v>       0.50000000       0.75000000       0.50000000 </v>
   <v>       0.37500000       0.37500000       0.37500000 </v>
   <v>       0.87500000       0.37500000       0.37500000 </v>
   <v>       0.37500000       0.87500000       0.37500000 </v>
   <v>       0.87500000       0.87500000       0.37500000 </v>
   <v>       0.37500000       0.37500000       0.87500000 </v>
   <v>       0.87500000       0.37500000       0.87500000 </v>
   <v>       0.37500000       0.87500000       0.87500000 </v>
   <v>       0.87500000       0.87500000       0.87500000 </v>
   <v>       0.25000000       0.00000000       0.00000000 </v>
   <v>       0.75000000       0.00000000       0.00000000 </v>
   <v>       0.25000000       0.50000000       0.00000000 </v>
   <v>       0.75000000       0.50000000       0.00000000 </v>
   <v>       0.25000000       0.00000000       0.50000000 </v>
   <v>       0.75000000       0.00000000       0.50000000 </v>
   <v>       0.25000000       0.50000000       0.50000000 </v>
   <v>       0.75000000       0.50000000       0.50000000 </v>
   <v>       0.37500000       0.12500000       0.12500000 </v>
   <v>       0.87500000       0.12500000       0.12500000 </v>
   <v>       0.37500000       0.62500000       0.12500000 </v>
   <v>       0.87500000       0.62500000       0.12500000 </v>
   <v>       0.37500000       0.12500000       0.62500000 </v>
   <v>       0.87500000       0.12500000       0.62500000 </v>
   <v>       0.37500000       0.62500000       0.62500000 </v>
   <v>       0.87500000       0.62500000       0.62500000 </v>
   <v>       0.25000000       0.25000000       0.25000000 </v>
   <v>       0.75000000       0.25000000       0.25000000 </v>
   <v>       0.25000000       0.75000000       0.25000000 </v>
   <v>       0.75000000       0.75000000       0.25000000 </v>
   <v>       0.25000000       0.25000000       0.75000000 </v>
   <v>       0.75000000       0.25000000       0.75000000 </v>
   <v>       0.25000000       0.75000000       0.75000000 </v>
   <v>       0.75000000       0.75000000       0.75000000 </v>
  </varray>
 </structure>
</modeling>
