   8   8   0   0
  0.5440012E+01  0.3517466E-09  0.3517466E-09  0.3517466E-09  0.2000000E-16
  1.000000000000000E-004
  CAR 
 unknown system                          
     24.13683601    -13.38151758  301     10.39573901      1.00000000
    -13.382  0.0000E+00  0.0000E+00
    -13.256  0.0000E+00  0.0000E+00
    -13.131  0.0000E+00  0.0000E+00
    -13.006  0.0000E+00  0.0000E+00
    -12.881  0.0000E+00  0.0000E+00
    -12.756  0.0000E+00  0.0000E+00
    -12.631  0.0000E+00  0.0000E+00
    -12.506  0.0000E+00  0.0000E+00
    -12.381  0.0000E+00  0.0000E+00
    -12.256  0.0000E+00  0.0000E+00
    -12.131  0.0000E+00  0.0000E+00
    -12.006  0.0000E+00  0.0000E+00
    -11.881  0.0000E+00  0.0000E+00
    -11.756  0.0000E+00  0.0000E+00
    -11.631  0.3335E-01  0.5055E-03
    -11.506  0.1486E+00  0.1479E-01
    -11.381  0.2328E+00  0.3859E-01
    -11.255  0.2632E+00  0.6932E-01
    -11.130  0.3087E+00  0.1051E+00
    -11.005  0.3481E+00  0.1466E+00
    -10.880  0.3758E+00  0.1918E+00
    -10.755  0.4053E+00  0.2406E+00
    -10.630  0.4421E+00  0.2935E+00
    -10.505  0.4649E+00  0.3505E+00
    -10.380  0.4873E+00  0.4100E+00
    -10.255  0.5118E+00  0.4724E+00
    -10.130  0.5389E+00  0.5381E+00
    -10.005  0.5655E+00  0.6072E+00
     -9.880  0.5836E+00  0.6790E+00
     -9.755  0.6027E+00  0.7532E+00
     -9.630  0.6235E+00  0.8299E+00
     -9.505  0.6451E+00  0.9092E+00
     -9.380  0.6681E+00  0.9913E+00
     -9.254  0.6893E+00  0.1076E+01
     -9.129  0.7060E+00  0.1164E+01
     -9.004  0.7225E+00  0.1253E+01
     -8.879  0.7414E+00  0.1344E+01
     -8.754  0.7609E+00  0.1438E+01
     -8.629  0.7811E+00  0.1535E+01
     -8.504  0.8021E+00  0.1634E+01
     -8.379  0.8189E+00  0.1735E+01
     -8.254  0.8354E+00  0.1839E+01
     -8.129  0.8526E+00  0.1944E+01
     -8.004  0.8707E+00  0.2052E+01
     -7.879  0.8889E+00  0.2162E+01
     -7.754  0.9079E+00  0.2274E+01
     -7.629  0.9682E+00  0.2392E+01
     -7.504  0.9938E+00  0.2515E+01
     -7.379  0.1040E+01  0.2643E+01
     -7.254  0.1043E+01  0.2773E+01
     -7.128  0.1020E+01  0.2902E+01
     -7.003  0.9889E+00  0.3028E+01
     -6.878  0.1015E+01  0.3154E+01
     -6.753  0.1027E+01  0.3281E+01
     -6.628  0.1031E+01  0.3410E+01
     -6.503  0.1047E+01  0.3539E+01
     -6.378  0.1098E+01  0.3673E+01
     -6.253  0.1144E+01  0.3815E+01
     -6.128  0.1230E+01  0.3963E+01
     -6.003  0.1274E+01  0.4120E+01
     -5.878  0.1294E+01  0.4280E+01
     -5.753  0.1426E+01  0.4449E+01
     -5.628  0.1570E+01  0.4637E+01
     -5.503  0.1485E+01  0.4831E+01
     -5.378  0.1440E+01  0.5014E+01
     -5.253  0.1365E+01  0.5192E+01
     -5.127  0.1364E+01  0.5365E+01
     -5.002  0.1323E+01  0.5531E+01
     -4.877  0.1371E+01  0.5700E+01
     -4.752  0.1271E+01  0.5869E+01
     -4.627  0.1180E+01  0.6022E+01
     -4.502  0.1162E+01  0.6168E+01
     -4.377  0.1131E+01  0.6312E+01
     -4.252  0.1132E+01  0.6452E+01
     -4.127  0.1089E+01  0.6594E+01
     -4.002  0.1096E+01  0.6727E+01
     -3.877  0.1063E+01  0.6859E+01
     -3.752  0.9790E+00  0.6987E+01
     -3.627  0.9386E+00  0.7108E+01
     -3.502  0.9132E+00  0.7223E+01
     -3.377  0.9475E+00  0.7340E+01
     -3.252  0.1082E+01  0.7470E+01
     -3.127  0.1027E+01  0.7601E+01
     -3.001  0.1092E+01  0.7735E+01
     -2.876  0.1024E+01  0.7866E+01
     -2.751  0.1009E+01  0.7993E+01
     -2.626  0.1229E+01  0.8131E+01
     -2.501  0.1029E+01  0.8270E+01
     -2.376  0.9895E+00  0.8395E+01
     -2.251  0.9781E+00  0.8517E+01
     -2.126  0.1034E+01  0.8642E+01
     -2.001  0.1166E+01  0.8781E+01
     -1.876  0.1296E+01  0.8934E+01
     -1.751  0.1487E+01  0.9108E+01
     -1.626  0.1718E+01  0.9308E+01
     -1.501  0.2189E+01  0.9549E+01
     -1.376  0.2658E+01  0.9856E+01
     -1.251  0.2727E+01  0.1019E+02
     -1.126  0.2152E+01  0.1052E+02
     -1.000  0.1772E+01  0.1077E+02
     -0.875  0.1618E+01  0.1098E+02
     -0.750  0.1507E+01  0.1117E+02
     -0.625  0.1425E+01  0.1136E+02
     -0.500  0.1358E+01  0.1153E+02
     -0.375  0.1319E+01  0.1170E+02
     -0.250  0.1291E+01  0.1186E+02
     -0.125  0.1260E+01  0.1202E+02
      0.000  0.1242E+01  0.1218E+02
      0.125  0.1255E+01  0.1233E+02
      0.250  0.1120E+01  0.1249E+02
      0.375  0.1108E+01  0.1263E+02
      0.500  0.1117E+01  0.1276E+02
      0.625  0.1061E+01  0.1290E+02
      0.750  0.9692E+00  0.1302E+02
      0.875  0.1285E+01  0.1317E+02
      1.001  0.1616E+01  0.1335E+02
      1.126  0.1886E+01  0.1357E+02
      1.251  0.2177E+01  0.1383E+02
      1.376  0.2156E+01  0.1410E+02
      1.501  0.2083E+01  0.1436E+02
      1.626  0.2064E+01  0.1463E+02
      1.751  0.2159E+01  0.1489E+02
      1.876  0.2148E+01  0.1516E+02
      2.001  0.1909E+01  0.1542E+02
      2.126  0.1452E+01  0.1563E+02
      2.251  0.1397E+01  0.1580E+02
      2.376  0.1712E+01  0.1599E+02
      2.501  0.2031E+01  0.1623E+02
      2.626  0.2172E+01  0.1649E+02
      2.751  0.2217E+01  0.1677E+02
      2.876  0.2266E+01  0.1705E+02
      3.001  0.2280E+01  0.1734E+02
      3.127  0.2320E+01  0.1762E+02
      3.252  0.2625E+01  0.1793E+02
      3.377  0.2850E+01  0.1827E+02
      3.502  0.2785E+01  0.1864E+02
      3.627  0.2586E+01  0.1898E+02
      3.752  0.2301E+01  0.1929E+02
      3.877  0.2601E+01  0.1959E+02
      4.002  0.2724E+01  0.1994E+02
      4.127  0.2712E+01  0.2027E+02
      4.252  0.3248E+01  0.2064E+02
      4.377  0.3699E+01  0.2108E+02
      4.502  0.3445E+01  0.2154E+02
      4.627  0.3134E+01  0.2195E+02
      4.752  0.2555E+01  0.2231E+02
      4.877  0.2505E+01  0.2262E+02
      5.002  0.2851E+01  0.2295E+02
      5.128  0.2698E+01  0.2330E+02
      5.253  0.2680E+01  0.2363E+02
      5.378  0.2900E+01  0.2398E+02
      5.503  0.2847E+01  0.2433E+02
      5.628  0.2839E+01  0.2469E+02
      5.753  0.2919E+01  0.2505E+02
      5.878  0.3026E+01  0.2542E+02
      6.003  0.2729E+01  0.2578E+02
      6.128  0.2384E+01  0.2610E+02
      6.253  0.2274E+01  0.2639E+02
      6.378  0.2262E+01  0.2668E+02
      6.503  0.2336E+01  0.2697E+02
      6.628  0.2670E+01  0.2729E+02
      6.753  0.2650E+01  0.2763E+02
      6.878  0.2642E+01  0.2796E+02
      7.003  0.2580E+01  0.2829E+02
      7.129  0.2344E+01  0.2859E+02
      7.254  0.2212E+01  0.2888E+02
      7.379  0.2481E+01  0.2917E+02
      7.504  0.2519E+01  0.2954E+02
      7.629  0.1776E+01  0.2979E+02
      7.754  0.1613E+01  0.3000E+02
      7.879  0.1495E+01  0.3019E+02
      8.004  0.1349E+01  0.3037E+02
      8.129  0.1283E+01  0.3054E+02
      8.254  0.1216E+01  0.3069E+02
      8.379  0.1149E+01  0.3084E+02
      8.504  0.1042E+01  0.3098E+02
      8.629  0.9360E+00  0.3110E+02
      8.754  0.8555E+00  0.3121E+02
      8.879  0.8191E+00  0.3132E+02
      9.004  0.7806E+00  0.3142E+02
      9.129  0.7110E+00  0.3151E+02
      9.255  0.6399E+00  0.3160E+02
      9.380  0.5661E+00  0.3167E+02
      9.505  0.5184E+00  0.3174E+02
      9.630  0.4861E+00  0.3180E+02
      9.755  0.3737E+00  0.3186E+02
      9.880  0.3615E+00  0.3190E+02
     10.005  0.3633E+00  0.3195E+02
     10.130  0.1685E+00  0.3198E+02
     10.255  0.1483E+00  0.3199E+02
     10.380  0.3428E-03  0.3200E+02
     10.505  0.0000E+00  0.3200E+02
     10.630  0.0000E+00  0.3200E+02
     10.755  0.0000E+00  0.3200E+02
     10.880  0.0000E+00  0.3200E+02
     11.005  0.0000E+00  0.3200E+02
     11.130  0.0000E+00  0.3200E+02
     11.256  0.0000E+00  0.3200E+02
     11.381  0.0000E+00  0.3200E+02
     11.506  0.0000E+00  0.3200E+02
     11.631  0.0000E+00  0.3200E+02
     11.756  0.0000E+00  0.3200E+02
     11.881  0.0000E+00  0.3200E+02
     12.006  0.0000E+00  0.3200E+02
     12.131  0.0000E+00  0.3200E+02
     12.256  0.0000E+00  0.3200E+02
     12.381  0.0000E+00  0.3200E+02
     12.506  0.0000E+00  0.3200E+02
     12.631  0.0000E+00  0.3200E+02
     12.756  0.0000E+00  0.3200E+02
     12.881  0.0000E+00  0.3200E+02
     13.006  0.0000E+00  0.3200E+02
     13.131  0.0000E+00  0.3200E+02
     13.257  0.0000E+00  0.3200E+02
     13.382  0.0000E+00  0.3200E+02
     13.507  0.0000E+00  0.3200E+02
     13.632  0.0000E+00  0.3200E+02
     13.757  0.0000E+00  0.3200E+02
     13.882  0.0000E+00  0.3200E+02
     14.007  0.0000E+00  0.3200E+02
     14.132  0.0000E+00  0.3200E+02
     14.257  0.0000E+00  0.3200E+02
     14.382  0.0000E+00  0.3200E+02
     14.507  0.0000E+00  0.3200E+02
     14.632  0.1050E-01  0.3200E+02
     14.757  0.1309E+00  0.3201E+02
     14.882  0.3233E+00  0.3204E+02
     15.007  0.5358E+00  0.3209E+02
     15.132  0.5983E+00  0.3216E+02
     15.257  0.6189E+00  0.3224E+02
     15.383  0.8067E+00  0.3233E+02
     15.508  0.8805E+00  0.3243E+02
     15.633  0.1025E+01  0.3255E+02
     15.758  0.1424E+01  0.3273E+02
     15.883  0.1402E+01  0.3291E+02
     16.008  0.1414E+01  0.3308E+02
     16.133  0.1497E+01  0.3327E+02
     16.258  0.1490E+01  0.3345E+02
     16.383  0.1632E+01  0.3365E+02
     16.508  0.1771E+01  0.3386E+02
     16.633  0.1956E+01  0.3409E+02
     16.758  0.2186E+01  0.3434E+02
     16.883  0.2232E+01  0.3462E+02
     17.008  0.2022E+01  0.3489E+02
     17.133  0.2009E+01  0.3514E+02
     17.258  0.2051E+01  0.3539E+02
     17.384  0.2141E+01  0.3565E+02
     17.509  0.2285E+01  0.3593E+02
     17.634  0.2433E+01  0.3622E+02
     17.759  0.2569E+01  0.3654E+02
     17.884  0.2698E+01  0.3687E+02
     18.009  0.2721E+01  0.3721E+02
     18.134  0.2846E+01  0.3755E+02
     18.259  0.3066E+01  0.3792E+02
     18.384  0.3375E+01  0.3833E+02
     18.509  0.3769E+01  0.3877E+02
     18.634  0.4276E+01  0.3927E+02
     18.759  0.4236E+01  0.3981E+02
     18.884  0.4121E+01  0.4035E+02
     19.009  0.3068E+01  0.4079E+02
     19.134  0.2728E+01  0.4115E+02
     19.259  0.2922E+01  0.4148E+02
     19.385  0.3457E+01  0.4190E+02
     19.510  0.3439E+01  0.4233E+02
     19.635  0.3370E+01  0.4275E+02
     19.760  0.3812E+01  0.4320E+02
     19.885  0.3645E+01  0.4367E+02
     20.010  0.3268E+01  0.4410E+02
     20.135  0.2792E+01  0.4448E+02
     20.260  0.2584E+01  0.4481E+02
     20.385  0.2535E+01  0.4513E+02
     20.510  0.2659E+01  0.4545E+02
     20.635  0.2702E+01  0.4579E+02
     20.760  0.2660E+01  0.4613E+02
     20.885  0.2721E+01  0.4647E+02
     21.010  0.2644E+01  0.4681E+02
     21.135  0.2577E+01  0.4714E+02
     21.260  0.1974E+01  0.4742E+02
     21.385  0.1477E+01  0.4764E+02
     21.511  0.9581E+00  0.4779E+02
     21.636  0.4927E+00  0.4787E+02
     21.761  0.2896E+00  0.4792E+02
     21.886  0.1944E+00  0.4795E+02
     22.011  0.1458E+00  0.4797E+02
     22.136  0.9938E-01  0.4799E+02
     22.261  0.5534E-01  0.4800E+02
     22.386  0.1383E-01  0.4800E+02
     22.511  0.0000E+00  0.4800E+02
     22.636  0.0000E+00  0.4800E+02
     22.761  0.0000E+00  0.4800E+02
     22.886  0.0000E+00  0.4800E+02
     23.011  0.0000E+00  0.4800E+02
     23.136  0.0000E+00  0.4800E+02
     23.261  0.0000E+00  0.4800E+02
     23.386  0.0000E+00  0.4800E+02
     23.512  0.0000E+00  0.4800E+02
     23.637  0.0000E+00  0.4800E+02
     23.762  0.0000E+00  0.4800E+02
     23.887  0.0000E+00  0.4800E+02
     24.012  0.0000E+00  0.4800E+02
     24.137  0.0000E+00  0.4800E+02
