       N       E                     dE             d eps       ncg     rms          rms(c)
DAV:   1     0.561960062535E+02    0.56196E+02   -0.14499E+04  4040   0.106E+03
DAV:   2    -0.715427182456E+02   -0.12774E+03   -0.12156E+03  5552   0.223E+02
DAV:   3    -0.754445320096E+02   -0.39018E+01   -0.38854E+01  5120   0.365E+01
DAV:   4    -0.754813069290E+02   -0.36775E-01   -0.36744E-01  5160   0.389E+00
DAV:   5    -0.754819338493E+02   -0.62692E-03   -0.62607E-03  5136   0.463E-01    0.100E+01
DAV:   6    -0.733292913286E+02    0.21526E+01   -0.14120E+00  4552   0.686E+00    0.544E+00
DAV:   7    -0.726033124097E+02    0.72598E+00   -0.15753E+00  4616   0.744E+00    0.708E-01
DAV:   8    -0.726112329651E+02   -0.79206E-02   -0.29927E-02  5080   0.102E+00    0.830E-02
DAV:   9    -0.726114352789E+02   -0.20231E-03   -0.42361E-04  4808   0.140E-01    0.288E-02
DAV:  10    -0.726114867774E+02   -0.51498E-04   -0.42362E-05  5096   0.502E-02    0.268E-03
DAV:  11    -0.726114874324E+02   -0.65503E-06   -0.99669E-07  3680   0.709E-03
   1 F= -.72611487E+02 E0= -.72611487E+02  d E =0.000000E+00
