 vasp.5.4.4.18Apr17-6-g9f103f2a35 (build Mar 12 2022 03:36:41) complex          
  
 executed on IFC19.0.3.199_CrayMP date 2022.12.01  10:39:01
 running on   16 total cores
 distrk:  each k-point on   16 cores,    1 groups
 distr:  one band on NCORES_PER_BAND=   4 cores,    4 groups


--------------------------------------------------------------------------------------------------------


 INCAR:
 POTCAR:   PAW_PBE C 08Apr2002                    
 POTCAR:   PAW_PBE C 08Apr2002                    
   VRHFIN =C: s2p2                                                              
   LEXCH  = PE                                                                  
   EATOM  =   147.1560 eV,   10.8157 Ry                                         
                                                                                
   TITEL  = PAW_PBE C 08Apr2002                                                 
   LULTRA =        F    use ultrasoft PP ?                                      
   IUNSCR =        0    unscreen: 0-lin 1-nonlin 2-no                           
   RPACOR =     .000    partial core radius                                     
   POMASS =   12.011; ZVAL   =    4.000    mass and valenz                      
   RCORE  =    1.500    outmost cutoff radius                                   
   RWIGS  =    1.630; RWIGS  =     .863    wigner-seitz radius (au A)           
   ENMAX  =  400.000; ENMIN  =  300.000 eV                                      
   ICORE  =        2    local potential                                         
   LCOR   =        T    correct aug charges                                     
   LPAW   =        T    paw PP                                                  
   EAUG   =  644.873                                                            
   DEXC   =     .000                                                            
   RMAX   =    2.266    core radius for proj-oper                               
   RAUG   =    1.300    factor for augmentation sphere                          
   RDEP   =    1.501    radius for radial grids                                 
   RDEPT  =    1.300    core radius for aug-charge                              
   QCUT   =   -5.516; QGAM   =   11.032    optimization parameters              
                                                                                
   Description                                                                  
     l     E      TYP  RCUT    TYP  RCUT                                        
     0   .000     23  1.200                                                     
     0   .000     23  1.200                                                     
     1   .000     23  1.500                                                     
     1  2.500     23  1.500                                                     
     2   .000      7  1.500                                                     
  local pseudopotential read in
  atomic valenz-charges read in
  non local Contribution for L=           0  read in
    real space projection operators read in
  non local Contribution for L=           0  read in
    real space projection operators read in
  non local Contribution for L=           1  read in
    real space projection operators read in
  non local Contribution for L=           1  read in
    real space projection operators read in
    PAW grid and wavefunctions read in
 
   number of l-projection  operators is LMAX  =           4
   number of lm-projection operators is LMMAX =           8
 
 PAW_PBE C 08Apr2002                    :
 energy of atom  1       EATOM= -147.1560
 kinetic energy error for atom=    0.0288 (will be added to EATOM!!)
 
 
 POSCAR: C8                                      
  positions in direct lattice
  No initial velocities read in
 exchange correlation table for  LEXCH =        8
   RHO(1)=    0.500       N(1)  =     2000
   RHO(2)=  100.500       N(2)  =     4000
 


--------------------------------------------------------------------------------------------------------


 ion  position               nearest neighbor table
   1  0.250  0.750  0.250-   2 1.52   4 1.52   6 1.52   8 1.52
   2  0.000  0.000  0.500-   1 1.52   3 1.52   5 1.52   7 1.52
   3  0.250  0.250  0.750-   2 1.52   4 1.52   6 1.52   8 1.52
   4  0.000  0.500  0.000-   1 1.52   3 1.52   5 1.52   7 1.52
   5  0.750  0.750  0.750-   2 1.52   4 1.52   6 1.52   8 1.52
   6  0.500  0.000  0.000-   1 1.52   3 1.52   5 1.52   7 1.52
   7  0.750  0.250  0.250-   2 1.52   4 1.52   6 1.52   8 1.52
   8  0.500  0.500  0.500-   1 1.52   3 1.52   5 1.52   7 1.52
 
  LATTYP: Found a simple cubic cell.
 ALAT       =     3.5174662453
  
  Lattice vectors:
  
 A1 = (   3.5174662453,   0.0000000000,   0.0000000000)
 A2 = (   0.0000000000,   3.5174662453,   0.0000000000)
 A3 = (   0.0000000000,   0.0000000000,   3.5174662453)


Analysis of symmetry for initial positions (statically):
=====================================================================
 Subroutine PRICEL returns following result:
 
  LATTYP: Found a face centered cubic cell.
 ALAT       =     3.5174662453
  
  Lattice vectors:
  
 A1 = (   1.7587331226,   1.7587331226,  -0.0000000000)
 A2 = (   1.7587331226,   0.0000000000,  -1.7587331226)
 A3 = (   0.0000000000,   1.7587331226,  -1.7587331226)
 
   4 primitive cells build up your supercell.
 

 Routine SETGRP: Setting up the symmetry group for a 
 simple cubic supercell.


 Subroutine GETGRP returns: Found 48 space group operations
 (whereof 24 operations were pure point group operations)
 out of a pool of 48 trial point group operations.


The static configuration has the point symmetry T_d .
 The point group associated with its full space group is O_h .


Analysis of symmetry for dynamics (positions and initial velocities):
=====================================================================
 Subroutine PRICEL returns following result:
 
  LATTYP: Found a face centered cubic cell.
 ALAT       =     3.5174662453
  
  Lattice vectors:
  
 A1 = (   1.7587331226,   1.7587331226,  -0.0000000000)
 A2 = (   1.7587331226,   0.0000000000,  -1.7587331226)
 A3 = (   0.0000000000,   1.7587331226,  -1.7587331226)
 
   4 primitive cells build up your supercell.
 

 Routine SETGRP: Setting up the symmetry group for a 
 simple cubic supercell.


 Subroutine GETGRP returns: Found 48 space group operations
 (whereof 24 operations were pure point group operations)
 out of a pool of 48 trial point group operations.


The dynamic configuration has the point symmetry T_d .
 The point group associated with its full space group is O_h .


 Subroutine INISYM returns: Found 48 space group operations
 (whereof 24 operations are pure point group operations),
 and found     4 'primitive' translations

 
 
 KPOINTS: kpt_density=1000                        

Automatic generation of k-mesh.
Space group operators:
 irot       det(A)        alpha          n_x          n_y          n_z        tau_x        tau_y        tau_z
    1     1.000000     0.000001     1.000000     0.000000     0.000000     0.000000     0.000000     0.000000
    2     1.000000   120.000000    -0.577350    -0.577350    -0.577350     0.000000     0.000000     0.000000
    3     1.000000   120.000000     0.577350     0.577350     0.577350     0.000000     0.000000     0.000000
    4    -1.000000    90.000000     0.000000     0.000000    -1.000000     0.000000     0.000000     0.000000
    5    -1.000000   180.000000     0.000000     0.707107     0.707107     0.000000     0.000000     0.000000
    6    -1.000000    90.000000     0.000000     1.000000     0.000000     0.000000     0.000000     0.000000
    7     1.000000   180.000000     0.000000     0.000000     1.000000     0.000000     0.000000     0.000000
    8     1.000000   120.000000    -0.577350     0.577350     0.577350     0.000000     0.000000     0.000000
    9     1.000000   120.000000    -0.577350     0.577350    -0.577350     0.000000     0.000000     0.000000
   10    -1.000000    90.000000     0.000000     0.000000     1.000000     0.000000     0.000000     0.000000
   11    -1.000000    90.000000    -1.000000     0.000000     0.000000     0.000000     0.000000     0.000000
   12    -1.000000   180.000000     0.707107     0.000000     0.707107     0.000000     0.000000     0.000000
   13     1.000000   120.000000     0.577350    -0.577350     0.577350     0.000000     0.000000     0.000000
   14     1.000000   120.000000    -0.577350    -0.577350     0.577350     0.000000     0.000000     0.000000
   15     1.000000   180.000000     1.000000     0.000000     0.000000     0.000000     0.000000     0.000000
   16    -1.000000    90.000000     0.000000    -1.000000     0.000000     0.000000     0.000000     0.000000
   17    -1.000000   180.000000     0.707107     0.707107     0.000000     0.000000     0.000000     0.000000
   18    -1.000000    90.000000     1.000000     0.000000     0.000000     0.000000     0.000000     0.000000
   19     1.000000   120.000000     0.577350    -0.577350    -0.577350     0.000000     0.000000     0.000000
   20     1.000000   180.000000     0.000000     1.000000     0.000000     0.000000     0.000000     0.000000
   21     1.000000   120.000000     0.577350     0.577350    -0.577350     0.000000     0.000000     0.000000
   22    -1.000000   180.000000     0.000000    -0.707107     0.707107     0.000000     0.000000     0.000000
   23    -1.000000   180.000000     0.707107    -0.707107     0.000000     0.000000     0.000000     0.000000
   24    -1.000000   180.000000     0.707107     0.000000    -0.707107     0.000000     0.000000     0.000000
   25    -1.000000     0.000001     1.000000     0.000000     0.000000     0.750000     0.750000    -0.750000
   26    -1.000000   120.000000    -0.577350    -0.577350    -0.577350     0.750000     0.750000    -0.750000
   27    -1.000000   120.000000     0.577350     0.577350     0.577350     0.750000     0.750000    -0.750000
   28     1.000000    90.000000     0.000000     0.000000    -1.000000     0.750000     0.750000    -0.750000
   29     1.000000   180.000000     0.000000     0.707107     0.707107     0.750000     0.750000    -0.750000
   30     1.000000    90.000000     0.000000     1.000000     0.000000     0.750000     0.750000    -0.750000
   31    -1.000000   180.000000     0.000000     0.000000     1.000000     0.750000     0.750000    -0.750000
   32    -1.000000   120.000000    -0.577350     0.577350     0.577350     0.750000     0.750000    -0.750000
   33    -1.000000   120.000000    -0.577350     0.577350    -0.577350     0.750000     0.750000    -0.750000
   34     1.000000    90.000000     0.000000     0.000000     1.000000     0.750000     0.750000    -0.750000
   35     1.000000    90.000000    -1.000000     0.000000     0.000000     0.750000     0.750000    -0.750000
   36     1.000000   180.000000     0.707107     0.000000     0.707107     0.750000     0.750000    -0.750000
   37    -1.000000   120.000000     0.577350    -0.577350     0.577350     0.750000     0.750000    -0.750000
   38    -1.000000   120.000000    -0.577350    -0.577350     0.577350     0.750000     0.750000    -0.750000
   39    -1.000000   180.000000     1.000000     0.000000     0.000000     0.750000     0.750000    -0.750000
   40     1.000000    90.000000     0.000000    -1.000000     0.000000     0.750000     0.750000    -0.750000
   41     1.000000   180.000000     0.707107     0.707107     0.000000     0.750000     0.750000    -0.750000
   42     1.000000    90.000000     1.000000     0.000000     0.000000     0.750000     0.750000    -0.750000
   43    -1.000000   120.000000     0.577350    -0.577350    -0.577350     0.750000     0.750000    -0.750000
   44    -1.000000   180.000000     0.000000     1.000000     0.000000     0.750000     0.750000    -0.750000
   45    -1.000000   120.000000     0.577350     0.577350    -0.577350     0.750000     0.750000    -0.750000
   46     1.000000   180.000000     0.000000    -0.707107     0.707107     0.750000     0.750000    -0.750000
   47     1.000000   180.000000     0.707107    -0.707107     0.000000     0.750000     0.750000    -0.750000
   48     1.000000   180.000000     0.707107     0.000000    -0.707107     0.750000     0.750000    -0.750000
 
 Subroutine IBZKPT returns following result:
 ===========================================
 
 Found     84 irreducible k-points:
 
 Following reciprocal coordinates:
            Coordinates               Weight
  0.000000  0.000000  0.000000      1.000000
  0.083333  0.000000  0.000000      6.000000
  0.166667  0.000000  0.000000      6.000000
  0.250000  0.000000  0.000000      6.000000
  0.333333  0.000000  0.000000      6.000000
  0.416667  0.000000  0.000000      6.000000
  0.500000  0.000000  0.000000      3.000000
  0.083333  0.083333  0.000000     12.000000
  0.166667  0.083333  0.000000     24.000000
  0.250000  0.083333  0.000000     24.000000
  0.333333  0.083333  0.000000     24.000000
  0.416667  0.083333  0.000000     24.000000
  0.500000  0.083333  0.000000     12.000000
  0.166667  0.166667  0.000000     12.000000
  0.250000  0.166667  0.000000     24.000000
  0.333333  0.166667  0.000000     24.000000
  0.416667  0.166667  0.000000     24.000000
  0.500000  0.166667  0.000000     12.000000
  0.250000  0.250000  0.000000     12.000000
  0.333333  0.250000  0.000000     24.000000
  0.416667  0.250000  0.000000     24.000000
  0.500000  0.250000  0.000000     12.000000
  0.333333  0.333333  0.000000     12.000000
  0.416667  0.333333  0.000000     24.000000
  0.500000  0.333333  0.000000     12.000000
  0.416667  0.416667  0.000000     12.000000
  0.500000  0.416667  0.000000     12.000000
  0.500000  0.500000  0.000000      3.000000
  0.083333  0.083333  0.083333      8.000000
  0.166667  0.083333  0.083333     24.000000
  0.250000  0.083333  0.083333     24.000000
  0.333333  0.083333  0.083333     24.000000
  0.416667  0.083333  0.083333     24.000000
  0.500000  0.083333  0.083333     12.000000
  0.166667  0.166667  0.083333     24.000000
  0.250000  0.166667  0.083333     48.000000
  0.333333  0.166667  0.083333     48.000000
  0.416667  0.166667  0.083333     48.000000
  0.500000  0.166667  0.083333     24.000000
  0.250000  0.250000  0.083333     24.000000
  0.333333  0.250000  0.083333     48.000000
  0.416667  0.250000  0.083333     48.000000
  0.500000  0.250000  0.083333     24.000000
  0.333333  0.333333  0.083333     24.000000
  0.416667  0.333333  0.083333     48.000000
  0.500000  0.333333  0.083333     24.000000
  0.416667  0.416667  0.083333     24.000000
  0.500000  0.416667  0.083333     24.000000
  0.500000  0.500000  0.083333      6.000000
  0.166667  0.166667  0.166667      8.000000
  0.250000  0.166667  0.166667     24.000000
  0.333333  0.166667  0.166667     24.000000
  0.416667  0.166667  0.166667     24.000000
  0.500000  0.166667  0.166667     12.000000
  0.250000  0.250000  0.166667     24.000000
  0.333333  0.250000  0.166667     48.000000
  0.416667  0.250000  0.166667     48.000000
  0.500000  0.250000  0.166667     24.000000
  0.333333  0.333333  0.166667     24.000000
  0.416667  0.333333  0.166667     48.000000
  0.500000  0.333333  0.166667     24.000000
  0.416667  0.416667  0.166667     24.000000
  0.500000  0.416667  0.166667     24.000000
  0.500000  0.500000  0.166667      6.000000
  0.250000  0.250000  0.250000      8.000000
  0.333333  0.250000  0.250000     24.000000
  0.416667  0.250000  0.250000     24.000000
  0.500000  0.250000  0.250000     12.000000
  0.333333  0.333333  0.250000     24.000000
  0.416667  0.333333  0.250000     48.000000
  0.500000  0.333333  0.250000     24.000000
  0.416667  0.416667  0.250000     24.000000
  0.500000  0.416667  0.250000     24.000000
  0.500000  0.500000  0.250000      6.000000
  0.333333  0.333333  0.333333      8.000000
  0.416667  0.333333  0.333333     24.000000
  0.500000  0.333333  0.333333     12.000000
  0.416667  0.416667  0.333333     24.000000
  0.500000  0.416667  0.333333     24.000000
  0.500000  0.500000  0.333333      6.000000
  0.416667  0.416667  0.416667      8.000000
  0.500000  0.416667  0.416667     12.000000
  0.500000  0.500000  0.416667      6.000000
  0.500000  0.500000  0.500000      1.000000
 
 Following cartesian coordinates:
            Coordinates               Weight
  0.000000  0.000000  0.000000      1.000000
  0.023799  0.000000  0.000000      6.000000
  0.047599  0.000000  0.000000      6.000000
  0.071398  0.000000  0.000000      6.000000
  0.095197  0.000000  0.000000      6.000000
  0.118996  0.000000  0.000000      6.000000
  0.142796  0.000000  0.000000      3.000000
  0.023799  0.023799  0.000000     12.000000
  0.047599  0.023799  0.000000     24.000000
  0.071398  0.023799  0.000000     24.000000
  0.095197  0.023799  0.000000     24.000000
  0.118996  0.023799  0.000000     24.000000
  0.142796  0.023799  0.000000     12.000000
  0.047599  0.047599  0.000000     12.000000
  0.071398  0.047599  0.000000     24.000000
  0.095197  0.047599  0.000000     24.000000
  0.118996  0.047599  0.000000     24.000000
  0.142796  0.047599  0.000000     12.000000
  0.071398  0.071398  0.000000     12.000000
  0.095197  0.071398  0.000000     24.000000
  0.118996  0.071398  0.000000     24.000000
  0.142796  0.071398  0.000000     12.000000
  0.095197  0.095197  0.000000     12.000000
  0.118996  0.095197  0.000000     24.000000
  0.142796  0.095197  0.000000     12.000000
  0.118996  0.118996  0.000000     12.000000
  0.142796  0.118996  0.000000     12.000000
  0.142796  0.142796  0.000000      3.000000
  0.023799  0.023799  0.023799      8.000000
  0.047599  0.023799  0.023799     24.000000
  0.071398  0.023799  0.023799     24.000000
  0.095197  0.023799  0.023799     24.000000
  0.118996  0.023799  0.023799     24.000000
  0.142796  0.023799  0.023799     12.000000
  0.047599  0.047599  0.023799     24.000000
  0.071398  0.047599  0.023799     48.000000
  0.095197  0.047599  0.023799     48.000000
  0.118996  0.047599  0.023799     48.000000
  0.142796  0.047599  0.023799     24.000000
  0.071398  0.071398  0.023799     24.000000
  0.095197  0.071398  0.023799     48.000000
  0.118996  0.071398  0.023799     48.000000
  0.142796  0.071398  0.023799     24.000000
  0.095197  0.095197  0.023799     24.000000
  0.118996  0.095197  0.023799     48.000000
  0.142796  0.095197  0.023799     24.000000
  0.118996  0.118996  0.023799     24.000000
  0.142796  0.118996  0.023799     24.000000
  0.142796  0.142796  0.023799      6.000000
  0.047599  0.047599  0.047599      8.000000
  0.071398  0.047599  0.047599     24.000000
  0.095197  0.047599  0.047599     24.000000
  0.118996  0.047599  0.047599     24.000000
  0.142796  0.047599  0.047599     12.000000
  0.071398  0.071398  0.047599     24.000000
  0.095197  0.071398  0.047599     48.000000
  0.118996  0.071398  0.047599     48.000000
  0.142796  0.071398  0.047599     24.000000
  0.095197  0.095197  0.047599     24.000000
  0.118996  0.095197  0.047599     48.000000
  0.142796  0.095197  0.047599     24.000000
  0.118996  0.118996  0.047599     24.000000
  0.142796  0.118996  0.047599     24.000000
  0.142796  0.142796  0.047599      6.000000
  0.071398  0.071398  0.071398      8.000000
  0.095197  0.071398  0.071398     24.000000
  0.118996  0.071398  0.071398     24.000000
  0.142796  0.071398  0.071398     12.000000
  0.095197  0.095197  0.071398     24.000000
  0.118996  0.095197  0.071398     48.000000
  0.142796  0.095197  0.071398     24.000000
  0.118996  0.118996  0.071398     24.000000
  0.142796  0.118996  0.071398     24.000000
  0.142796  0.142796  0.071398      6.000000
  0.095197  0.095197  0.095197      8.000000
  0.118996  0.095197  0.095197     24.000000
  0.142796  0.095197  0.095197     12.000000
  0.118996  0.118996  0.095197     24.000000
  0.142796  0.118996  0.095197     24.000000
  0.142796  0.142796  0.095197      6.000000
  0.118996  0.118996  0.118996      8.000000
  0.142796  0.118996  0.118996     12.000000
  0.142796  0.142796  0.118996      6.000000
  0.142796  0.142796  0.142796      1.000000
 
 TETIRR: Found    854 inequivalent tetrahedra from    10368


--------------------------------------------------------------------------------------------------------




 Dimension of arrays:
   k-points           NKPTS =     84   k-points in BZ     NKDIM =     84   number of bands    NBANDS=     24
   number of dos      NEDOS =    301   number of ions     NIONS =      8
   non local maximal  LDIM  =      4   non local SUM 2l+1 LMDIM =      8
   total plane-waves  NPLWV =  13824
   max r-space proj   IRMAX =      1   max aug-charges    IRDMAX=   3948
   dimension x,y,z NGX =    24 NGY =   24 NGZ =   24
   dimension x,y,z NGXF=    48 NGYF=   48 NGZF=   48
   support grid    NGXF=    48 NGYF=   48 NGZF=   48
   ions per type =               8
   NGX,Y,Z   is equivalent  to a cutoff of  11.34, 11.34, 11.34 a.u.
   NGXF,Y,Z  is equivalent  to a cutoff of  22.69, 22.69, 22.69 a.u.

 SYSTEM =  unknown system                          
 POSCAR =  C8                                      

 Startparameter for this run:
   NWRITE =      2    write-flag & timer
   PREC   = accura    normal or accurate (medium, high low for compatibility)
   ISTART =      0    job   : 0-new  1-cont  2-samecut
   ICHARG =      2    charge: 1-file 2-atom 10-const
   ISPIN  =      1    spin polarized calculation?
   LNONCOLLINEAR =      F non collinear calculations
   LSORBIT =      F    spin-orbit coupling
   INIWAV =      1    electr: 0-lowe 1-rand  2-diag
   LASPH  =      F    aspherical Exc in radial PAW
   METAGGA=      F    non-selfconsistent MetaGGA calc.

 Electronic Relaxation 1
   ENCUT  =  400.0 eV  29.40 Ry    5.42 a.u.   5.74  5.74  5.74*2*pi/ulx,y,z
   ENINI  =  400.0     initial cutoff
   ENAUG  =  644.9 eV  augmentation charge cutoff
   NELM   =     60;   NELMIN=  2; NELMDL= -5     # of ELM steps 
   EDIFF  = 0.1E-05   stopping-criterion for ELM
   LREAL  =      F    real-space projection
   NLSPLINE    = F    spline interpolate recip. space projectors
   LCOMPAT=      F    compatible to vasp.4.4
   GGA_COMPAT  = T    GGA compatible to vasp.4.4-vasp.4.6
   LMAXPAW     = -100 max onsite density
   LMAXMIX     =    2 max onsite mixed and CHGCAR
   VOSKOWN=      0    Vosko Wilk Nusair interpolation
   ROPT   =    0.00000
 Ionic relaxation
   EDIFFG = 0.1E-04   stopping-criterion for IOM
   NSW    =      0    number of steps for IOM
   NBLOCK =      1;   KBLOCK =      1    inner block; outer block 
   IBRION =     -1    ionic relax: 0-MD 1-quasi-New 2-CG
   NFREE  =      0    steps in history (QN), initial steepest desc. (CG)
   ISIF   =      2    stress and relaxation
   IWAVPR =     10    prediction:  0-non 1-charg 2-wave 3-comb
   ISYM   =      2    0-nonsym 1-usesym 2-fastsym
   LCORR  =      T    Harris-Foulkes like correction to forces

   POTIM  = 0.0200    time-step for ionic-motion
   TEIN   =    0.0    initial temperature
   TEBEG  =    0.0;   TEEND  =   0.0 temperature during run
   SMASS  =  -3.00    Nose mass-parameter (am)
   estimated Nose-frequenzy (Omega)   =  0.10E-29 period in steps =****** mass=  -0.283E-27a.u.
   SCALEE = 1.0000    scale energy and forces
   NPACO  =    256;   APACO  = 16.0  distance and # of slots for P.C.
   PSTRESS=    0.0 pullay stress

  Mass of Ions in am
   POMASS =  12.01
  Ionic Valenz
   ZVAL   =   4.00
  Atomic Wigner-Seitz radii
   RWIGS  =  -1.00
  virtual crystal weights 
   VCA    =   1.00
   NELECT =      32.0000    total number of electrons
   NUPDOWN=      -1.0000    fix difference up-down

 DOS related values:
   EMIN   =  10.00;   EMAX   =-10.00  energy-range for DOS
   EFERMI =   0.00
   ISMEAR =    -5;   SIGMA  =   0.06  broadening in eV -4-tet -1-fermi 0-gaus

 Electronic relaxation 2 (details)
   IALGO  =     38    algorithm
   LDIAG  =      T    sub-space diagonalisation (order eigenvalues)
   LSUBROT=      F    optimize rotation matrix (better conditioning)
   TURBO    =      0    0=normal 1=particle mesh
   IRESTART =      0    0=no restart 2=restart with 2 vectors
   NREBOOT  =      0    no. of reboots
   NMIN     =      0    reboot dimension
   EREF     =   0.00    reference energy to select bands
   IMIX   =      4    mixing-type and parameters
     AMIX     =   0.40;   BMIX     =  1.00
     AMIX_MAG =   1.60;   BMIX_MAG =  1.00
     AMIN     =   0.10
     WC   =   100.;   INIMIX=   1;  MIXPRE=   1;  MAXMIX= -45

 Intra band minimization:
   WEIMIN = 0.0000     energy-eigenvalue tresh-hold
   EBREAK =  0.10E-07  absolut break condition
   DEPER  =   0.30     relativ break condition  

   TIME   =   0.40     timestep for ELM

  volume/ion in A,a.u.               =       5.44        36.71
  Fermi-wavevector in a.u.,A,eV,Ry     =   1.477616  2.792289 29.706263  2.183349
  Thomas-Fermi vector in A             =   2.591998
 
 Write flags
   LWAVE        =      F    write WAVECAR
   LDOWNSAMPLE  =      F    k-point downsampling of WAVECAR
   LCHARG       =      F    write CHGCAR
   LVTOT        =      F    write LOCPOT, total local potential
   LVHAR        =      F    write LOCPOT, Hartree potential only
   LELF         =      F    write electronic localiz. function (ELF)
   LORBIT       =      0    0 simple, 1 ext, 2 COOP (PROOUT), +10 PAW based schemes


 Dipole corrections
   LMONO  =      F    monopole corrections only (constant potential shift)
   LDIPOL =      F    correct potential (dipole corrections)
   IDIPOL =      0    1-x, 2-y, 3-z, 4-all directions 
   EPSILON=  1.0000000 bulk dielectric constant

 Exchange correlation treatment:
   GGA     =    --    GGA type
   LEXCH   =     8    internal setting for exchange type
   VOSKOWN=      0    Vosko Wilk Nusair interpolation
   LHFCALC =     F    Hartree Fock is set to
   LHFONE  =     F    Hartree Fock one center treatment
   AEXX    =    0.0000 exact exchange contribution

 Linear response parameters
   LEPSILON=     F    determine dielectric tensor
   LRPA    =     F    only Hartree local field effects (RPA)
   LNABLA  =     F    use nabla operator in PAW spheres
   LVEL    =     F    velocity operator in full k-point grid
   LINTERFAST=   F  fast interpolation
   KINTER  =     0    interpolate to denser k-point grid
   CSHIFT  =0.1000    complex shift for real part using Kramers Kronig
   OMEGAMAX=  -1.0    maximum frequency
   DEG_THRESHOLD= 0.2000000E-02 threshold for treating states as degnerate
   RTIME   =   -0.100 relaxation time in fs
  (WPLASMAI=    0.000 imaginary part of plasma frequency in eV, 0.658/RTIME)
   DFIELD  = 0.0000000 0.0000000 0.0000000 field for delta impulse in time
 
 Orbital magnetization related:
   ORBITALMAG=     F  switch on orbital magnetization
   LCHIMAG   =     F  perturbation theory with respect to B field
   DQ        =  0.001000  dq finite difference perturbation B field
   LLRAUG    =     F  two centre corrections for induced B field



--------------------------------------------------------------------------------------------------------


 Static calculation
 charge density and potential will be updated during run
 non-spin polarized calculation
 Variant of blocked Davidson
 Davidson routine will perform the subspace rotation
 perform sub-space diagonalisation
    after iterative eigenvector-optimisation
 modified Broyden-mixing scheme, WC =      100.0
 initial mixing is a Kerker type mixing with AMIX =  0.4000 and BMIX =      1.0000
 Hartree-type preconditioning will be used
 using additional bands            8
 reciprocal scheme for non local part
 calculate Harris-corrections to forces 
   (improved forces if not selfconsistent)
 use gradient corrections 
 use of overlap-Matrix (Vanderbilt PP)
 Fermi weights with tetrahedron method with Bloechl corrections


--------------------------------------------------------------------------------------------------------


  energy-cutoff  :      400.00
  volume of cell :       43.52
      direct lattice vectors                 reciprocal lattice vectors
     3.517466245  0.000000000  0.000000000     0.284295550  0.000000000  0.000000000
     0.000000000  3.517466245  0.000000000     0.000000000  0.284295550  0.000000000
     0.000000000  0.000000000  3.517466245     0.000000000  0.000000000  0.284295550

  length of vectors
     3.517466245  3.517466245  3.517466245     0.284295550  0.284295550  0.284295550


 
 k-points in units of 2pi/SCALE and weight: kpt_density=1000                        
   0.00000000  0.00000000  0.00000000       0.001
   0.02379928  0.00000000  0.00000000       0.003
   0.04759857  0.00000000  0.00000000       0.003
   0.07139785  0.00000000  0.00000000       0.003
   0.09519713  0.00000000  0.00000000       0.003
   0.11899642  0.00000000  0.00000000       0.003
   0.14279570  0.00000000  0.00000000       0.002
   0.02379928  0.02379928  0.00000000       0.007
   0.04759857  0.02379928  0.00000000       0.014
   0.07139785  0.02379928  0.00000000       0.014
   0.09519713  0.02379928  0.00000000       0.014
   0.11899642  0.02379928  0.00000000       0.014
   0.14279570  0.02379928  0.00000000       0.007
   0.04759857  0.04759857  0.00000000       0.007
   0.07139785  0.04759857  0.00000000       0.014
   0.09519713  0.04759857  0.00000000       0.014
   0.11899642  0.04759857  0.00000000       0.014
   0.14279570  0.04759857  0.00000000       0.007
   0.07139785  0.07139785  0.00000000       0.007
   0.09519713  0.07139785  0.00000000       0.014
   0.11899642  0.07139785  0.00000000       0.014
   0.14279570  0.07139785  0.00000000       0.007
   0.09519713  0.09519713  0.00000000       0.007
   0.11899642  0.09519713  0.00000000       0.014
   0.14279570  0.09519713  0.00000000       0.007
   0.11899642  0.11899642  0.00000000       0.007
   0.14279570  0.11899642  0.00000000       0.007
   0.14279570  0.14279570  0.00000000       0.002
   0.02379928  0.02379928  0.02379928       0.005
   0.04759857  0.02379928  0.02379928       0.014
   0.07139785  0.02379928  0.02379928       0.014
   0.09519713  0.02379928  0.02379928       0.014
   0.11899642  0.02379928  0.02379928       0.014
   0.14279570  0.02379928  0.02379928       0.007
   0.04759857  0.04759857  0.02379928       0.014
   0.07139785  0.04759857  0.02379928       0.028
   0.09519713  0.04759857  0.02379928       0.028
   0.11899642  0.04759857  0.02379928       0.028
   0.14279570  0.04759857  0.02379928       0.014
   0.07139785  0.07139785  0.02379928       0.014
   0.09519713  0.07139785  0.02379928       0.028
   0.11899642  0.07139785  0.02379928       0.028
   0.14279570  0.07139785  0.02379928       0.014
   0.09519713  0.09519713  0.02379928       0.014
   0.11899642  0.09519713  0.02379928       0.028
   0.14279570  0.09519713  0.02379928       0.014
   0.11899642  0.11899642  0.02379928       0.014
   0.14279570  0.11899642  0.02379928       0.014
   0.14279570  0.14279570  0.02379928       0.003
   0.04759857  0.04759857  0.04759857       0.005
   0.07139785  0.04759857  0.04759857       0.014
   0.09519713  0.04759857  0.04759857       0.014
   0.11899642  0.04759857  0.04759857       0.014
   0.14279570  0.04759857  0.04759857       0.007
   0.07139785  0.07139785  0.04759857       0.014
   0.09519713  0.07139785  0.04759857       0.028
   0.11899642  0.07139785  0.04759857       0.028
   0.14279570  0.07139785  0.04759857       0.014
   0.09519713  0.09519713  0.04759857       0.014
   0.11899642  0.09519713  0.04759857       0.028
   0.14279570  0.09519713  0.04759857       0.014
   0.11899642  0.11899642  0.04759857       0.014
   0.14279570  0.11899642  0.04759857       0.014
   0.14279570  0.14279570  0.04759857       0.003
   0.07139785  0.07139785  0.07139785       0.005
   0.09519713  0.07139785  0.07139785       0.014
   0.11899642  0.07139785  0.07139785       0.014
   0.14279570  0.07139785  0.07139785       0.007
   0.09519713  0.09519713  0.07139785       0.014
   0.11899642  0.09519713  0.07139785       0.028
   0.14279570  0.09519713  0.07139785       0.014
   0.11899642  0.11899642  0.07139785       0.014
   0.14279570  0.11899642  0.07139785       0.014
   0.14279570  0.14279570  0.07139785       0.003
   0.09519713  0.09519713  0.09519713       0.005
   0.11899642  0.09519713  0.09519713       0.014
   0.14279570  0.09519713  0.09519713       0.007
   0.11899642  0.11899642  0.09519713       0.014
   0.14279570  0.11899642  0.09519713       0.014
   0.14279570  0.14279570  0.09519713       0.003
   0.11899642  0.11899642  0.11899642       0.005
   0.14279570  0.11899642  0.11899642       0.007
   0.14279570  0.14279570  0.11899642       0.003
   0.14279570  0.14279570  0.14279570       0.001
 
 k-points in reciprocal lattice and weights: kpt_density=1000                        
   0.00000000  0.00000000  0.00000000       0.001
   0.08333333  0.00000000  0.00000000       0.003
   0.16666667  0.00000000  0.00000000       0.003
   0.25000000  0.00000000  0.00000000       0.003
   0.33333333  0.00000000  0.00000000       0.003
   0.41666667  0.00000000  0.00000000       0.003
   0.50000000  0.00000000  0.00000000       0.002
   0.08333333  0.08333333  0.00000000       0.007
   0.16666667  0.08333333  0.00000000       0.014
   0.25000000  0.08333333  0.00000000       0.014
   0.33333333  0.08333333  0.00000000       0.014
   0.41666667  0.08333333  0.00000000       0.014
   0.50000000  0.08333333  0.00000000       0.007
   0.16666667  0.16666667  0.00000000       0.007
   0.25000000  0.16666667  0.00000000       0.014
   0.33333333  0.16666667  0.00000000       0.014
   0.41666667  0.16666667  0.00000000       0.014
   0.50000000  0.16666667  0.00000000       0.007
   0.25000000  0.25000000  0.00000000       0.007
   0.33333333  0.25000000  0.00000000       0.014
   0.41666667  0.25000000  0.00000000       0.014
   0.50000000  0.25000000  0.00000000       0.007
   0.33333333  0.33333333  0.00000000       0.007
   0.41666667  0.33333333  0.00000000       0.014
   0.50000000  0.33333333  0.00000000       0.007
   0.41666667  0.41666667  0.00000000       0.007
   0.50000000  0.41666667  0.00000000       0.007
   0.50000000  0.50000000  0.00000000       0.002
   0.08333333  0.08333333  0.08333333       0.005
   0.16666667  0.08333333  0.08333333       0.014
   0.25000000  0.08333333  0.08333333       0.014
   0.33333333  0.08333333  0.08333333       0.014
   0.41666667  0.08333333  0.08333333       0.014
   0.50000000  0.08333333  0.08333333       0.007
   0.16666667  0.16666667  0.08333333       0.014
   0.25000000  0.16666667  0.08333333       0.028
   0.33333333  0.16666667  0.08333333       0.028
   0.41666667  0.16666667  0.08333333       0.028
   0.50000000  0.16666667  0.08333333       0.014
   0.25000000  0.25000000  0.08333333       0.014
   0.33333333  0.25000000  0.08333333       0.028
   0.41666667  0.25000000  0.08333333       0.028
   0.50000000  0.25000000  0.08333333       0.014
   0.33333333  0.33333333  0.08333333       0.014
   0.41666667  0.33333333  0.08333333       0.028
   0.50000000  0.33333333  0.08333333       0.014
   0.41666667  0.41666667  0.08333333       0.014
   0.50000000  0.41666667  0.08333333       0.014
   0.50000000  0.50000000  0.08333333       0.003
   0.16666667  0.16666667  0.16666667       0.005
   0.25000000  0.16666667  0.16666667       0.014
   0.33333333  0.16666667  0.16666667       0.014
   0.41666667  0.16666667  0.16666667       0.014
   0.50000000  0.16666667  0.16666667       0.007
   0.25000000  0.25000000  0.16666667       0.014
   0.33333333  0.25000000  0.16666667       0.028
   0.41666667  0.25000000  0.16666667       0.028
   0.50000000  0.25000000  0.16666667       0.014
   0.33333333  0.33333333  0.16666667       0.014
   0.41666667  0.33333333  0.16666667       0.028
   0.50000000  0.33333333  0.16666667       0.014
   0.41666667  0.41666667  0.16666667       0.014
   0.50000000  0.41666667  0.16666667       0.014
   0.50000000  0.50000000  0.16666667       0.003
   0.25000000  0.25000000  0.25000000       0.005
   0.33333333  0.25000000  0.25000000       0.014
   0.41666667  0.25000000  0.25000000       0.014
   0.50000000  0.25000000  0.25000000       0.007
   0.33333333  0.33333333  0.25000000       0.014
   0.41666667  0.33333333  0.25000000       0.028
   0.50000000  0.33333333  0.25000000       0.014
   0.41666667  0.41666667  0.25000000       0.014
   0.50000000  0.41666667  0.25000000       0.014
   0.50000000  0.50000000  0.25000000       0.003
   0.33333333  0.33333333  0.33333333       0.005
   0.41666667  0.33333333  0.33333333       0.014
   0.50000000  0.33333333  0.33333333       0.007
   0.41666667  0.41666667  0.33333333       0.014
   0.50000000  0.41666667  0.33333333       0.014
   0.50000000  0.50000000  0.33333333       0.003
   0.41666667  0.41666667  0.41666667       0.005
   0.50000000  0.41666667  0.41666667       0.007
   0.50000000  0.50000000  0.41666667       0.003
   0.50000000  0.50000000  0.50000000       0.001
 
 position of ions in fractional coordinates (direct lattice) 
   0.25000000  0.75000000  0.25000000
   0.00000000  0.00000000  0.50000000
   0.25000000  0.25000000  0.75000000
   0.00000000  0.50000000  0.00000000
   0.75000000  0.75000000  0.75000000
   0.50000000  0.00000000  0.00000000
   0.75000000  0.25000000  0.25000000
   0.50000000  0.50000000  0.50000000
 
 position of ions in cartesian coordinates  (Angst):
   0.87936656  2.63809968  0.87936656
   0.00000000  0.00000000  1.75873312
   0.87936656  0.87936656  2.63809968
   0.00000000  1.75873312  0.00000000
   2.63809968  2.63809968  2.63809968
   1.75873312  0.00000000  0.00000000
   2.63809968  0.87936656  0.87936656
   1.75873312  1.75873312  1.75873312
 


--------------------------------------------------------------------------------------------------------


 k-point  1 :   0.0000 0.0000 0.0000  plane waves:     751
 k-point  2 :   0.0833 0.0000 0.0000  plane waves:     775
 k-point  3 :   0.1667 0.0000 0.0000  plane waves:     779
 k-point  4 :   0.2500 0.0000 0.0000  plane waves:     799
 k-point  5 :   0.3333 0.0000 0.0000  plane waves:     792
 k-point  6 :   0.4167 0.0000 0.0000  plane waves:     808
 k-point  7 :   0.5000 0.0000 0.0000  plane waves:     804
 k-point  8 :   0.0833 0.0833 0.0000  plane waves:     776
 k-point  9 :   0.1667 0.0833 0.0000  plane waves:     785
 k-point 10 :   0.2500 0.0833 0.0000  plane waves:     794
 k-point 11 :   0.3333 0.0833 0.0000  plane waves:     793
 k-point 12 :   0.4167 0.0833 0.0000  plane waves:     798
 k-point 13 :   0.5000 0.0833 0.0000  plane waves:     796
 k-point 14 :   0.1667 0.1667 0.0000  plane waves:     782
 k-point 15 :   0.2500 0.1667 0.0000  plane waves:     789
 k-point 16 :   0.3333 0.1667 0.0000  plane waves:     797
 k-point 17 :   0.4167 0.1667 0.0000  plane waves:     792
 k-point 18 :   0.5000 0.1667 0.0000  plane waves:     794
 k-point 19 :   0.2500 0.2500 0.0000  plane waves:     784
 k-point 20 :   0.3333 0.2500 0.0000  plane waves:     791
 k-point 21 :   0.4167 0.2500 0.0000  plane waves:     797
 k-point 22 :   0.5000 0.2500 0.0000  plane waves:     802
 k-point 23 :   0.3333 0.3333 0.0000  plane waves:     796
 k-point 24 :   0.4167 0.3333 0.0000  plane waves:     792
 k-point 25 :   0.5000 0.3333 0.0000  plane waves:     792
 k-point 26 :   0.4167 0.4167 0.0000  plane waves:     796
 k-point 27 :   0.5000 0.4167 0.0000  plane waves:     786
 k-point 28 :   0.5000 0.5000 0.0000  plane waves:     784
 k-point 29 :   0.0833 0.0833 0.0833  plane waves:     781
 k-point 30 :   0.1667 0.0833 0.0833  plane waves:     789
 k-point 31 :   0.2500 0.0833 0.0833  plane waves:     789
 k-point 32 :   0.3333 0.0833 0.0833  plane waves:     793
 k-point 33 :   0.4167 0.0833 0.0833  plane waves:     800
 k-point 34 :   0.5000 0.0833 0.0833  plane waves:     794
 k-point 35 :   0.1667 0.1667 0.0833  plane waves:     794
 k-point 36 :   0.2500 0.1667 0.0833  plane waves:     793
 k-point 37 :   0.3333 0.1667 0.0833  plane waves:     791
 k-point 38 :   0.4167 0.1667 0.0833  plane waves:     795
 k-point 39 :   0.5000 0.1667 0.0833  plane waves:     792
 k-point 40 :   0.2500 0.2500 0.0833  plane waves:     790
 k-point 41 :   0.3333 0.2500 0.0833  plane waves:     790
 k-point 42 :   0.4167 0.2500 0.0833  plane waves:     787
 k-point 43 :   0.5000 0.2500 0.0833  plane waves:     792
 k-point 44 :   0.3333 0.3333 0.0833  plane waves:     786
 k-point 45 :   0.4167 0.3333 0.0833  plane waves:     790
 k-point 46 :   0.5000 0.3333 0.0833  plane waves:     794
 k-point 47 :   0.4167 0.4167 0.0833  plane waves:     796
 k-point 48 :   0.5000 0.4167 0.0833  plane waves:     792
 k-point 49 :   0.5000 0.5000 0.0833  plane waves:     792
 k-point 50 :   0.1667 0.1667 0.1667  plane waves:     802
 k-point 51 :   0.2500 0.1667 0.1667  plane waves:     790
 k-point 52 :   0.3333 0.1667 0.1667  plane waves:     791
 k-point 53 :   0.4167 0.1667 0.1667  plane waves:     793
 k-point 54 :   0.5000 0.1667 0.1667  plane waves:     782
 k-point 55 :   0.2500 0.2500 0.1667  plane waves:     790
 k-point 56 :   0.3333 0.2500 0.1667  plane waves:     790
 k-point 57 :   0.4167 0.2500 0.1667  plane waves:     787
 k-point 58 :   0.5000 0.2500 0.1667  plane waves:     790
 k-point 59 :   0.3333 0.3333 0.1667  plane waves:     786
 k-point 60 :   0.4167 0.3333 0.1667  plane waves:     790
 k-point 61 :   0.5000 0.3333 0.1667  plane waves:     790
 k-point 62 :   0.4167 0.4167 0.1667  plane waves:     795
 k-point 63 :   0.5000 0.4167 0.1667  plane waves:     790
 k-point 64 :   0.5000 0.5000 0.1667  plane waves:     788
 k-point 65 :   0.2500 0.2500 0.2500  plane waves:     784
 k-point 66 :   0.3333 0.2500 0.2500  plane waves:     791
 k-point 67 :   0.4167 0.2500 0.2500  plane waves:     788
 k-point 68 :   0.5000 0.2500 0.2500  plane waves:     792
 k-point 69 :   0.3333 0.3333 0.2500  plane waves:     787
 k-point 70 :   0.4167 0.3333 0.2500  plane waves:     790
 k-point 71 :   0.5000 0.3333 0.2500  plane waves:     784
 k-point 72 :   0.4167 0.4167 0.2500  plane waves:     787
 k-point 73 :   0.5000 0.4167 0.2500  plane waves:     788
 k-point 74 :   0.5000 0.5000 0.2500  plane waves:     788
 k-point 75 :   0.3333 0.3333 0.3333  plane waves:     789
 k-point 76 :   0.4167 0.3333 0.3333  plane waves:     790
 k-point 77 :   0.5000 0.3333 0.3333  plane waves:     792
 k-point 78 :   0.4167 0.4167 0.3333  plane waves:     785
 k-point 79 :   0.5000 0.4167 0.3333  plane waves:     790
 k-point 80 :   0.5000 0.5000 0.3333  plane waves:     780
 k-point 81 :   0.4167 0.4167 0.4167  plane waves:     789
 k-point 82 :   0.5000 0.4167 0.4167  plane waves:     782
 k-point 83 :   0.5000 0.5000 0.4167  plane waves:     796
 k-point 84 :   0.5000 0.5000 0.5000  plane waves:     840

 maximum and minimum number of plane-waves per node :       218      172

 maximum number of plane-waves:       840
 maximum index in each direction: 
   IXMAX=    5   IYMAX=    5   IZMAX=    5
   IXMIN=   -6   IYMIN=   -6   IZMIN=   -6


 parallel 3D FFT for wavefunctions:
    minimum data exchange during FFTs selected (reduces bandwidth)
 parallel 3D FFT for charge:
    minimum data exchange during FFTs selected (reduces bandwidth)


 total amount of memory used by VASP MPI-rank0    33836. kBytes
=======================================================================

   base      :      30000. kBytes
   nonl-proj :       1166. kBytes
   fftplans  :        345. kBytes
   grid      :        481. kBytes
   one-center:          6. kBytes
   wavefun   :       1838. kBytes
 
     INWAV:  cpu time    0.0004: real time    0.0006
 Broyden mixing: mesh for mixing (old mesh)
   NGX = 11   NGY = 11   NGZ = 11
  (NGX  = 48   NGY  = 48   NGZ  = 48)
  gives a total of   1331 points

 initial charge density was supplied:
 charge density of overlapping atoms calculated
 number of electron      32.0000000 magnetization 
 keeping initial charge density in first step


--------------------------------------------------------------------------------------------------------


 Maximum index for augmentation-charges          293 (set IRDMAX)


--------------------------------------------------------------------------------------------------------


 First call to EWALD:  gamma=   0.504
 Maximum number of real-space cells 3x 3x 3
 Maximum number of reciprocal cells 3x 3x 3

    FEWALD:  cpu time    0.0053: real time    0.0053


--------------------------------------- Iteration      1(   1)  ---------------------------------------


    POTLOK:  cpu time    0.0256: real time    0.0294
    SETDIJ:  cpu time    0.0066: real time    0.0066
     EDDAV:  cpu time    3.8366: real time    3.8491
 BZINTS: Fermi energy: 19.118836; 32.000000 electrons
         Band energy: 131.295790;  BLOECHL correction: -0.155162
       DOS:  cpu time    0.1594: real time    0.1595
    --------------------------------------------
      LOOP:  cpu time    4.0282: real time    4.0445

 eigenvalue-minimisations  :  4040
 total energy-change (2. order) : 0.5619601E+02  (-0.1449870E+04)
 number of electron      32.0000000 magnetization 
 augmentation part       32.0000000 magnetization 

 Free energy of the ion-electron system (eV)
  ---------------------------------------------------
  alpha Z        PSCENC =       119.82351433
  Ewald energy   TEWEN  =     -1411.35681014
  -Hartree energ DENC   =       -66.84239040
  -exchange      EXHF   =         0.00000000
  -V(xc)+E(xc)   XCENC  =       115.46194933
  PAW double counting   =       302.65154477     -311.85538214
  entropy T*S    EENTRO =         0.00000000
  eigenvalues    EBANDS =       131.29578954
  atomic energy  EATOM  =      1177.01779097
  Solvation  Ediel_sol  =         0.00000000
  ---------------------------------------------------
  free energy    TOTEN  =        56.19600625 eV

  energy without entropy =       56.19600625  energy(sigma->0) =       56.19600625


--------------------------------------------------------------------------------------------------------




--------------------------------------- Iteration      1(   2)  ---------------------------------------


     EDDAV:  cpu time    4.6640: real time    4.6644
 BZINTS: Fermi energy:  9.477427; 32.000000 electrons
         Band energy:   3.557065;  BLOECHL correction:  0.000000
       DOS:  cpu time    0.0451: real time    0.0451
    --------------------------------------------
      LOOP:  cpu time    4.7091: real time    4.7096

 eigenvalue-minimisations  :  5552
 total energy-change (2. order) :-0.1277387E+03  (-0.1215631E+03)
 number of electron      32.0000000 magnetization 
 augmentation part       32.0000000 magnetization 

 Free energy of the ion-electron system (eV)
  ---------------------------------------------------
  alpha Z        PSCENC =       119.82351433
  Ewald energy   TEWEN  =     -1411.35681014
  -Hartree energ DENC   =       -66.84239040
  -exchange      EXHF   =         0.00000000
  -V(xc)+E(xc)   XCENC  =       115.46194933
  PAW double counting   =       302.65154477     -311.85538214
  entropy T*S    EENTRO =         0.00000000
  eigenvalues    EBANDS =         3.55706504
  atomic energy  EATOM  =      1177.01779097
  Solvation  Ediel_sol  =         0.00000000
  ---------------------------------------------------
  free energy    TOTEN  =       -71.54271825 eV

  energy without entropy =      -71.54271825  energy(sigma->0) =      -71.54271825


--------------------------------------------------------------------------------------------------------




--------------------------------------- Iteration      1(   3)  ---------------------------------------


     EDDAV:  cpu time    4.4397: real time    4.4427
 BZINTS: Fermi energy:  8.952082; 32.000000 electrons
         Band energy:  -0.344749;  BLOECHL correction:  0.000000
       DOS:  cpu time    0.0365: real time    0.0365
    --------------------------------------------
      LOOP:  cpu time    4.4762: real time    4.4792

 eigenvalue-minimisations  :  5120
 total energy-change (2. order) :-0.3901814E+01  (-0.3885356E+01)
 number of electron      32.0000000 magnetization 
 augmentation part       32.0000000 magnetization 

 Free energy of the ion-electron system (eV)
  ---------------------------------------------------
  alpha Z        PSCENC =       119.82351433
  Ewald energy   TEWEN  =     -1411.35681014
  -Hartree energ DENC   =       -66.84239040
  -exchange      EXHF   =         0.00000000
  -V(xc)+E(xc)   XCENC  =       115.46194933
  PAW double counting   =       302.65154477     -311.85538214
  entropy T*S    EENTRO =         0.00000000
  eigenvalues    EBANDS =        -0.34474873
  atomic energy  EATOM  =      1177.01779097
  Solvation  Ediel_sol  =         0.00000000
  ---------------------------------------------------
  free energy    TOTEN  =       -75.44453201 eV

  energy without entropy =      -75.44453201  energy(sigma->0) =      -75.44453201


--------------------------------------------------------------------------------------------------------




--------------------------------------- Iteration      1(   4)  ---------------------------------------


     EDDAV:  cpu time    4.5294: real time    4.5300
 BZINTS: Fermi energy:  8.889208; 32.000000 electrons
         Band energy:  -0.381524;  BLOECHL correction:  0.000000
       DOS:  cpu time    0.0365: real time    0.0365
    --------------------------------------------
      LOOP:  cpu time    4.5659: real time    4.5665

 eigenvalue-minimisations  :  5160
 total energy-change (2. order) :-0.3677492E-01  (-0.3674445E-01)
 number of electron      32.0000000 magnetization 
 augmentation part       32.0000000 magnetization 

 Free energy of the ion-electron system (eV)
  ---------------------------------------------------
  alpha Z        PSCENC =       119.82351433
  Ewald energy   TEWEN  =     -1411.35681014
  -Hartree energ DENC   =       -66.84239040
  -exchange      EXHF   =         0.00000000
  -V(xc)+E(xc)   XCENC  =       115.46194933
  PAW double counting   =       302.65154477     -311.85538214
  entropy T*S    EENTRO =         0.00000000
  eigenvalues    EBANDS =        -0.38152365
  atomic energy  EATOM  =      1177.01779097
  Solvation  Ediel_sol  =         0.00000000
  ---------------------------------------------------
  free energy    TOTEN  =       -75.48130693 eV

  energy without entropy =      -75.48130693  energy(sigma->0) =      -75.48130693


--------------------------------------------------------------------------------------------------------




--------------------------------------- Iteration      1(   5)  ---------------------------------------


     EDDAV:  cpu time    4.4389: real time    4.4396
 BZINTS: Fermi energy:  8.871909; 32.000000 electrons
         Band energy:  -0.382151;  BLOECHL correction:  0.000000
       DOS:  cpu time    0.0365: real time    0.0365
    CHARGE:  cpu time    0.1170: real time    0.1170
    MIXING:  cpu time    0.0016: real time    0.0016
    --------------------------------------------
      LOOP:  cpu time    4.5940: real time    4.5947

 eigenvalue-minimisations  :  5136
 total energy-change (2. order) :-0.6269204E-03  (-0.6260666E-03)
 number of electron      31.9999996 magnetization 
 augmentation part        0.8235382 magnetization 

 Broyden mixing:
  rms(total) = 0.99962E+00    rms(broyden)= 0.99944E+00
  rms(prec ) = 0.23866E+01
  weight for this iteration     100.00

 Free energy of the ion-electron system (eV)
  ---------------------------------------------------
  alpha Z        PSCENC =       119.82351433
  Ewald energy   TEWEN  =     -1411.35681014
  -Hartree energ DENC   =       -66.84239040
  -exchange      EXHF   =         0.00000000
  -V(xc)+E(xc)   XCENC  =       115.46194933
  PAW double counting   =       302.65154477     -311.85538214
  entropy T*S    EENTRO =         0.00000000
  eigenvalues    EBANDS =        -0.38215057
  atomic energy  EATOM  =      1177.01779097
  Solvation  Ediel_sol  =         0.00000000
  ---------------------------------------------------
  free energy    TOTEN  =       -75.48193385 eV

  energy without entropy =      -75.48193385  energy(sigma->0) =      -75.48193385


--------------------------------------------------------------------------------------------------------




--------------------------------------- Iteration      1(   6)  ---------------------------------------


    POTLOK:  cpu time    0.0200: real time    0.0204
    SETDIJ:  cpu time    0.0058: real time    0.0058
     EDDAV:  cpu time    4.0600: real time    4.0602
 BZINTS: Fermi energy:  9.633977; 32.000000 electrons
         Band energy:  16.626007;  BLOECHL correction:  0.000000
       DOS:  cpu time    0.0363: real time    0.0363
    CHARGE:  cpu time    0.1185: real time    0.1185
    MIXING:  cpu time    0.0018: real time    0.0018
    --------------------------------------------
      LOOP:  cpu time    4.2425: real time    4.2431

 eigenvalue-minimisations  :  4552
 total energy-change (2. order) : 0.2152643E+01  (-0.1412030E+00)
 number of electron      31.9999996 magnetization 
 augmentation part        0.8042039 magnetization 

 Broyden mixing:
  rms(total) = 0.54416E+00    rms(broyden)= 0.54414E+00
  rms(prec ) = 0.12835E+01
  weight for this iteration     100.00

 eigenvalues of (default mixing * dielectric matrix)
  average eigenvalue GAMMA=   2.1514
  2.1514

 Free energy of the ion-electron system (eV)
  ---------------------------------------------------
  alpha Z        PSCENC =       119.82351433
  Ewald energy   TEWEN  =     -1411.35681014
  -Hartree energ DENC   =       -82.57728903
  -exchange      EXHF   =         0.00000000
  -V(xc)+E(xc)   XCENC  =       116.94207461
  PAW double counting   =       402.26262210     -412.06720162
  entropy T*S    EENTRO =         0.00000000
  eigenvalues    EBANDS =        16.62600746
  atomic energy  EATOM  =      1177.01779097
  Solvation  Ediel_sol  =         0.00000000
  ---------------------------------------------------
  free energy    TOTEN  =       -73.32929133 eV

  energy without entropy =      -73.32929133  energy(sigma->0) =      -73.32929133


--------------------------------------------------------------------------------------------------------




--------------------------------------- Iteration      1(   7)  ---------------------------------------


    POTLOK:  cpu time    0.0203: real time    0.6487
    SETDIJ:  cpu time    0.0058: real time    0.1409
     EDDAV:  cpu time    4.1273: real time    4.1275
 BZINTS: Fermi energy: 10.469833; 32.000000 electrons
         Band energy:  36.098780;  BLOECHL correction:  0.000000
       DOS:  cpu time    0.0367: real time    0.0367
    CHARGE:  cpu time    0.1306: real time    0.1306
    MIXING:  cpu time    0.0020: real time    0.0020
    --------------------------------------------
      LOOP:  cpu time    4.3227: real time    5.0864

 eigenvalue-minimisations  :  4616
 total energy-change (2. order) : 0.7259789E+00  (-0.1575268E+00)
 number of electron      31.9999996 magnetization 
 augmentation part        0.7832914 magnetization 

 Broyden mixing:
  rms(total) = 0.70767E-01    rms(broyden)= 0.70436E-01
  rms(prec ) = 0.12348E+00
  weight for this iteration     100.00

 eigenvalues of (default mixing * dielectric matrix)
  average eigenvalue GAMMA=   2.2692
  2.0024  2.5360

 Free energy of the ion-electron system (eV)
  ---------------------------------------------------
  alpha Z        PSCENC =       119.82351433
  Ewald energy   TEWEN  =     -1411.35681014
  -Hartree energ DENC   =      -102.65881311
  -exchange      EXHF   =         0.00000000
  -V(xc)+E(xc)   XCENC  =       118.84905972
  PAW double counting   =       538.82371429     -549.20054814
  entropy T*S    EENTRO =         0.00000000
  eigenvalues    EBANDS =        36.09877966
  atomic energy  EATOM  =      1177.01779097
  Solvation  Ediel_sol  =         0.00000000
  ---------------------------------------------------
  free energy    TOTEN  =       -72.60331241 eV

  energy without entropy =      -72.60331241  energy(sigma->0) =      -72.60331241


--------------------------------------------------------------------------------------------------------




--------------------------------------- Iteration      1(   8)  ---------------------------------------


    POTLOK:  cpu time    0.0206: real time    0.0209
    SETDIJ:  cpu time    0.0057: real time    0.0057
     EDDAV:  cpu time    4.4319: real time    4.4322
 BZINTS: Fermi energy: 10.419930; 32.000000 electrons
         Band energy:  36.459204;  BLOECHL correction:  0.000000
       DOS:  cpu time    0.0367: real time    0.0367
    CHARGE:  cpu time    0.1171: real time    0.1171
    MIXING:  cpu time    0.0020: real time    0.0020
    --------------------------------------------
      LOOP:  cpu time    4.6140: real time    4.6145

 eigenvalue-minimisations  :  5080
 total energy-change (2. order) :-0.7920555E-02  (-0.2992714E-02)
 number of electron      31.9999996 magnetization 
 augmentation part        0.7834599 magnetization 

 Broyden mixing:
  rms(total) = 0.82967E-02    rms(broyden)= 0.81884E-02
  rms(prec ) = 0.14477E-01
  weight for this iteration     100.00

 eigenvalues of (default mixing * dielectric matrix)
  average eigenvalue GAMMA=   2.0975
  1.4449  2.6833  2.1643

 Free energy of the ion-electron system (eV)
  ---------------------------------------------------
  alpha Z        PSCENC =       119.82351433
  Ewald energy   TEWEN  =     -1411.35681014
  -Hartree energ DENC   =      -103.21487550
  -exchange      EXHF   =         0.00000000
  -V(xc)+E(xc)   XCENC  =       118.90629991
  PAW double counting   =       550.70811661     -560.95447274
  entropy T*S    EENTRO =         0.00000000
  eigenvalues    EBANDS =        36.45920359
  atomic energy  EATOM  =      1177.01779097
  Solvation  Ediel_sol  =         0.00000000
  ---------------------------------------------------
  free energy    TOTEN  =       -72.61123297 eV

  energy without entropy =      -72.61123297  energy(sigma->0) =      -72.61123297


--------------------------------------------------------------------------------------------------------




--------------------------------------- Iteration      1(   9)  ---------------------------------------


    POTLOK:  cpu time    0.0207: real time    0.0212
    SETDIJ:  cpu time    0.0057: real time    0.0057
     EDDAV:  cpu time    4.2450: real time    4.2452
 BZINTS: Fermi energy: 10.401645; 32.000000 electrons
         Band energy:  36.348455;  BLOECHL correction:  0.000000
       DOS:  cpu time    0.0363: real time    0.0363
    CHARGE:  cpu time    0.1197: real time    0.1197
    MIXING:  cpu time    0.0020: real time    0.0020
    --------------------------------------------
      LOOP:  cpu time    4.4294: real time    4.4301

 eigenvalue-minimisations  :  4808
 total energy-change (2. order) :-0.2023137E-03  (-0.4236140E-04)
 number of electron      31.9999996 magnetization 
 augmentation part        0.7834330 magnetization 

 Broyden mixing:
  rms(total) = 0.28780E-02    rms(broyden)= 0.28699E-02
  rms(prec ) = 0.50556E-02
  weight for this iteration     100.00

 eigenvalues of (default mixing * dielectric matrix)
  average eigenvalue GAMMA=   2.0429
  0.9744  2.7525  2.4487  1.9959

 Free energy of the ion-electron system (eV)
  ---------------------------------------------------
  alpha Z        PSCENC =       119.82351433
  Ewald energy   TEWEN  =     -1411.35681014
  -Hartree energ DENC   =      -103.11012453
  -exchange      EXHF   =         0.00000000
  -V(xc)+E(xc)   XCENC  =       118.89627378
  PAW double counting   =       550.01785153     -560.24838592
  entropy T*S    EENTRO =         0.00000000
  eigenvalues    EBANDS =        36.34845470
  atomic energy  EATOM  =      1177.01779097
  Solvation  Ediel_sol  =         0.00000000
  ---------------------------------------------------
  free energy    TOTEN  =       -72.61143528 eV

  energy without entropy =      -72.61143528  energy(sigma->0) =      -72.61143528


--------------------------------------------------------------------------------------------------------




--------------------------------------- Iteration      1(  10)  ---------------------------------------


    POTLOK:  cpu time    0.0194: real time    0.0198
    SETDIJ:  cpu time    0.0058: real time    0.0058
     EDDAV:  cpu time    4.3646: real time    4.3648
 BZINTS: Fermi energy: 10.396996; 32.000000 electrons
         Band energy:  36.381941;  BLOECHL correction:  0.000000
       DOS:  cpu time    0.0367: real time    0.0367
    CHARGE:  cpu time    0.1153: real time    0.1153
    MIXING:  cpu time    0.0022: real time    0.0022
    --------------------------------------------
      LOOP:  cpu time    4.5440: real time    4.5446

 eigenvalue-minimisations  :  5096
 total energy-change (2. order) :-0.5149850E-04  (-0.4236218E-05)
 number of electron      31.9999996 magnetization 
 augmentation part        0.7834099 magnetization 

 Broyden mixing:
  rms(total) = 0.26834E-03    rms(broyden)= 0.26336E-03
  rms(prec ) = 0.63685E-03
  weight for this iteration     100.00

 eigenvalues of (default mixing * dielectric matrix)
  average eigenvalue GAMMA=   1.9519
  2.9115  2.5544  2.0596  0.9939  1.2404

 Free energy of the ion-electron system (eV)
  ---------------------------------------------------
  alpha Z        PSCENC =       119.82351433
  Ewald energy   TEWEN  =     -1411.35681014
  -Hartree energ DENC   =      -103.14545606
  -exchange      EXHF   =         0.00000000
  -V(xc)+E(xc)   XCENC  =       118.89921043
  PAW double counting   =       549.38218022     -559.61385703
  entropy T*S    EENTRO =         0.00000000
  eigenvalues    EBANDS =        36.38194050
  atomic energy  EATOM  =      1177.01779097
  Solvation  Ediel_sol  =         0.00000000
  ---------------------------------------------------
  free energy    TOTEN  =       -72.61148678 eV

  energy without entropy =      -72.61148678  energy(sigma->0) =      -72.61148678


--------------------------------------------------------------------------------------------------------




--------------------------------------- Iteration      1(  11)  ---------------------------------------


    POTLOK:  cpu time    0.0205: real time    0.0208
    SETDIJ:  cpu time    0.0056: real time    0.0056
     EDDAV:  cpu time    3.6667: real time    3.6669
 BZINTS: Fermi energy: 10.395739; 32.000000 electrons
         Band energy:  36.394062;  BLOECHL correction:  0.000000
       DOS:  cpu time    0.0362: real time    0.0362
    --------------------------------------------
      LOOP:  cpu time    3.7289: real time    3.7295

 eigenvalue-minimisations  :  3680
 total energy-change (2. order) :-0.6550297E-06  (-0.9966884E-07)
 number of electron      31.9999996 magnetization 
 augmentation part        0.7834099 magnetization 

 Free energy of the ion-electron system (eV)
  ---------------------------------------------------
  alpha Z        PSCENC =       119.82351433
  Ewald energy   TEWEN  =     -1411.35681014
  -Hartree energ DENC   =      -103.15813759
  -exchange      EXHF   =         0.00000000
  -V(xc)+E(xc)   XCENC  =       118.90037880
  PAW double counting   =       549.40060382     -559.63288923
  entropy T*S    EENTRO =         0.00000000
  eigenvalues    EBANDS =        36.39406161
  atomic energy  EATOM  =      1177.01779097
  Solvation  Ediel_sol  =         0.00000000
  ---------------------------------------------------
  free energy    TOTEN  =       -72.61148743 eV

  energy without entropy =      -72.61148743  energy(sigma->0) =      -72.61148743


--------------------------------------------------------------------------------------------------------




 average (electrostatic) potential at core
  the test charge radii are     0.6991
  (the norm of the test charge is              1.0000)
       1 -44.7642       2 -44.7642       3 -44.7642       4 -44.7642       5 -44.7642
       6 -44.7642       7 -44.7642       8 -44.7642
 
 
 
 E-fermi :  10.3957     XC(G=0): -13.4332     alpha+bet :-18.4540


 k-point     1 :       0.0000    0.0000    0.0000
  band No.  band energies     occupation 
      1     -11.6761      2.00000
      2      -2.6948      2.00000
      3      -2.6948      2.00000
      4      -2.6948      2.00000
      5      -2.6948      2.00000
      6      -2.6948      2.00000
      7      -2.6948      2.00000
      8       3.8193      2.00000
      9       3.8193      2.00000
     10       3.8193      2.00000
     11       3.8193      2.00000
     12       3.8193      2.00000
     13       3.8193      2.00000
     14      10.3880      2.00000
     15      10.3880      2.00000
     16      10.3880      2.00000
     17      15.2224      0.00000
     18      15.2224      0.00000
     19      15.2224      0.00000
     20      15.2224      0.00000
     21      15.2224      0.00000
     22      15.2224      0.00000
     23      16.0919      0.00000
     24      16.0919      0.00000

 k-point     2 :       0.0833    0.0000    0.0000
  band No.  band energies     occupation 
      1     -11.6102      2.00000
      2      -4.0385      2.00000
      3      -2.6515      2.00000
      4      -2.6515      2.00000
      5      -2.6515      2.00000
      6      -2.6515      2.00000
      7      -1.2890      2.00000
      8       3.6697      2.00000
      9       3.6697      2.00000
     10       3.6697      2.00000
     11       3.6697      2.00000
     12       3.8823      2.00000
     13       3.8823      2.00000
     14      10.1103      2.00000
     15      10.1103      2.00000
     16      10.2303      2.00000
     17      14.8801      0.00000
     18      15.4922      0.00000
     19      15.4922      0.00000
     20      15.4922      0.00000
     21      15.4922      0.00000
     22      15.7121      0.00000
     23      16.0402      0.00000
     24      16.4287      0.00000

 k-point     3 :       0.1667    0.0000    0.0000
  band No.  band energies     occupation 
      1     -11.4124      2.00000
      2      -5.3014      2.00000
      3      -2.5253      2.00000
      4      -2.5253      2.00000
      5      -2.5253      2.00000
      6      -2.5253      2.00000
      7       0.1578      2.00000
      8       3.2768      2.00000
      9       3.2768      2.00000
     10       3.2768      2.00000
     11       3.2768      2.00000
     12       4.0749      2.00000
     13       4.0749      2.00000
     14       9.4282      2.00000
     15       9.4282      2.00000
     16       9.7738      2.00000
     17      14.6782      0.00000
     18      15.9026      0.00000
     19      16.2591      0.00000
     20      16.2591      0.00000
     21      16.2591      0.00000
     22      16.2591      0.00000
     23      16.3723      0.00000
     24      17.2915      0.00000

 k-point     4 :       0.2500    0.0000    0.0000
  band No.  band energies     occupation 
      1     -11.0835      2.00000
      2      -6.4707      2.00000
      3      -2.3330      2.00000
      4      -2.3330      2.00000
      5      -2.3330      2.00000
      6      -2.3330      2.00000
      7       1.6204      2.00000
      8       2.7532      2.00000
      9       2.7532      2.00000
     10       2.7532      2.00000
     11       2.7532      2.00000
     12       4.3956      2.00000
     13       4.3956      2.00000
     14       8.5747      2.00000
     15       8.5747      2.00000
     16       9.0528      2.00000
     17      14.5982      0.00000
     18      15.6770      0.00000
     19      17.2186      0.00000
     20      17.4030      0.00000
     21      17.4030      0.00000
     22      17.4030      0.00000
     23      17.4030      0.00000
     24      18.4292      0.00000

 k-point     5 :       0.3333    0.0000    0.0000
  band No.  band energies     occupation 
      1     -10.6247      2.00000
      2      -7.5360      2.00000
      3      -2.1087      2.00000
      4      -2.1087      2.00000
      5      -2.1087      2.00000
      6      -2.1087      2.00000
      7       2.2305      2.00000
      8       2.2305      2.00000
      9       2.2305      2.00000
     10       2.2305      2.00000
     11       3.0696      2.00000
     12       4.8398      2.00000
     13       4.8398      2.00000
     14       7.6917      2.00000
     15       7.6917      2.00000
     16       8.1252      2.00000
     17      14.6239      0.00000
     18      15.4212      0.00000
     19      18.2612      0.00000
     20      18.7958      0.00000
     21      18.7958      0.00000
     22      18.7958      0.00000
     23      18.7958      0.00000
     24      19.7080      0.00000

 k-point     6 :       0.4167    0.0000    0.0000
  band No.  band energies     occupation 
      1     -10.0376      2.00000
      2      -8.4893      2.00000
      3      -1.9149      2.00000
      4      -1.9149      2.00000
      5      -1.9149      2.00000
      6      -1.9149      2.00000
      7       1.8332      2.00000
      8       1.8332      2.00000
      9       1.8332      2.00000
     10       1.8332      2.00000
     11       4.4749      2.00000
     12       5.4021      2.00000
     13       5.4021      2.00000
     14       6.8418      2.00000
     15       6.8418      2.00000
     16       7.0281      2.00000
     17      14.7419      0.00000
     18      15.1586      0.00000
     19      19.4975      0.00000
     20      20.2651      0.00000
     21      20.2651      0.00000
     22      20.2651      0.00000
     23      20.2651      0.00000
     24      21.0300      0.00000

 k-point     7 :       0.5000    0.0000    0.0000
  band No.  band energies     occupation 
      1      -9.3248      2.00000
      2      -9.3248      2.00000
      3      -1.8349      2.00000
      4      -1.8349      2.00000
      5      -1.8349      2.00000
      6      -1.8349      2.00000
      7       1.6832      2.00000
      8       1.6832      2.00000
      9       1.6832      2.00000
     10       1.6832      2.00000
     11       5.8025      2.00000
     12       5.8025      2.00000
     13       6.0737      2.00000
     14       6.0737      2.00000
     15       6.0737      2.00000
     16       6.0737      2.00000
     17      14.9233      0.00000
     18      14.9233      0.00000
     19      20.8944      0.00000
     20      20.8944      0.00000
     21      21.2034      0.00000
     22      21.2034      0.00000
     23      21.2034      0.00000
     24      21.2034      0.00000

 k-point     8 :       0.0833    0.0833    0.0000
  band No.  band energies     occupation 
      1     -11.5442      2.00000
      2      -3.9870      2.00000
      3      -3.9870      2.00000
      4      -2.6419      2.00000
      5      -2.5774      2.00000
      6      -1.2586      2.00000
      7      -1.2586      2.00000
      8       3.1629      2.00000
      9       3.7214      2.00000
     10       3.7214      2.00000
     11       3.7517      2.00000
     12       3.7517      2.00000
     13       3.9305      2.00000
     14       9.6554      2.00000
     15       9.8436      2.00000
     16      10.3068      2.00000
     17      15.1583      0.00000
     18      15.1583      0.00000
     19      15.3269      0.00000
     20      15.9768      0.00000
     21      15.9768      0.00000
     22      16.1607      0.00000
     23      16.2276      0.00000
     24      16.5229      0.00000

 k-point     9 :       0.1667    0.0833    0.0000
  band No.  band energies     occupation 
      1     -11.3466      2.00000
      2      -5.2450      2.00000
      3      -3.8352      2.00000
      4      -2.5641      2.00000
      5      -2.4171      2.00000
      6      -1.1760      2.00000
      7       0.1652      2.00000
      8       2.5218      2.00000
      9       3.2934      2.00000
     10       3.4118      2.00000
     11       3.8926      2.00000
     12       3.9058      2.00000
     13       3.9736      2.00000
     14       8.8957      2.00000
     15       9.1816      2.00000
     16      10.0319      2.00000
     17      14.9617      0.00000
     18      15.7002      0.00000
     19      15.9406      0.00000
     20      16.1646      0.00000
     21      16.6271      0.00000
     22      16.7229      0.00000
     23      17.2193      0.00000
     24      17.2875      0.00000

 k-point    10 :       0.2500    0.0833    0.0000
  band No.  band energies     occupation 
      1     -11.0179      2.00000
      2      -6.4112      2.00000
      3      -3.5920      2.00000
      4      -2.4514      2.00000
      5      -2.1759      2.00000
      6      -1.0715      2.00000
      7       1.5839      2.00000
      8       1.8797      2.00000
      9       2.7139      2.00000
     10       2.9820      2.00000
     11       3.6139      2.00000
     12       4.2180      2.00000
     13       4.3420      2.00000
     14       8.0147      2.00000
     15       8.3450      2.00000
     16       9.4257      2.00000
     17      14.8848      0.00000
     18      15.9577      0.00000
     19      16.5561      0.00000
     20      17.1078      0.00000
     21      17.4605      0.00000
     22      17.8339      0.00000
     23      18.4117      0.00000
     24      18.4522      0.00000

 k-point    11 :       0.3333    0.0833    0.0000
  band No.  band energies     occupation 
      1     -10.5595      2.00000
      2      -7.4744      2.00000
      3      -3.2768      2.00000
      4      -2.3677      2.00000
      5      -1.8717      2.00000
      6      -1.0020      2.00000
      7       1.3687      2.00000
      8       2.1016      2.00000
      9       2.6078      2.00000
     10       2.9463      2.00000
     11       3.2066      2.00000
     12       4.6563      2.00000
     13       4.8773      2.00000
     14       7.0968      2.00000
     15       7.4742      2.00000
     16       8.5813      2.00000
     17      14.9126      0.00000
     18      15.7051      0.00000
     19      17.7656      0.00000
     20      18.4886      0.00000
     21      18.5313      0.00000
     22      19.1685      0.00000
     23      19.6336      0.00000
     24      19.6875      0.00000

 k-point    12 :       0.4167    0.0833    0.0000
  band No.  band energies     occupation 
      1      -9.9729      2.00000
      2      -8.4263      2.00000
      3      -2.9261      2.00000
      4      -2.4022      2.00000
      5      -1.5393      2.00000
      6      -1.0443      2.00000
      7       1.1180      2.00000
      8       1.5616      2.00000
      9       2.4250      2.00000
     10       2.7958      2.00000
     11       4.1795      2.00000
     12       5.2118      2.00000
     13       5.6120      2.00000
     14       6.1776      2.00000
     15       6.6371      2.00000
     16       7.5916      2.00000
     17      15.0313      0.00000
     18      15.4470      0.00000
     19      19.1678      0.00000
     20      19.7077      0.00000
     21      20.0853      0.00000
     22      20.4367      0.00000
     23      20.8883      0.00000
     24      21.0239      0.00000

 k-point    13 :       0.5000    0.0833    0.0000
  band No.  band energies     occupation 
      1      -9.2607      2.00000
      2      -9.2607      2.00000
      3      -2.6048      2.00000
      4      -2.6048      2.00000
      5      -1.2376      2.00000
      6      -1.2376      2.00000
      7       1.1986      2.00000
      8       1.1986      2.00000
      9       2.5016      2.00000
     10       2.5016      2.00000
     11       5.2343      2.00000
     12       5.2343      2.00000
     13       5.8768      2.00000
     14       5.8768      2.00000
     15       6.5546      2.00000
     16       6.5546      2.00000
     17      15.2130      0.00000
     18      15.2130      0.00000
     19      20.4621      0.00000
     20      20.4621      0.00000
     21      21.0850      0.00000
     22      21.0850      0.00000
     23      21.5421      0.00000
     24      21.5423      0.00000

 k-point    14 :       0.1667    0.1667    0.0000
  band No.  band energies     occupation 
      1     -11.1493      2.00000
      2      -5.0776      2.00000
      3      -5.0776      2.00000
      4      -2.5658      2.00000
      5      -2.2254      2.00000
      6       0.1707      2.00000
      7       0.1707      2.00000
      8       1.7613      2.00000
      9       3.4524      2.00000
     10       3.4524      2.00000
     11       3.7198      2.00000
     12       3.7198      2.00000
     13       4.2598      2.00000
     14       8.0733      2.00000
     15       8.5585      2.00000
     16      10.0524      2.00000
     17      15.6430      0.00000
     18      15.7545      0.00000
     19      15.7545      0.00000
     20      16.6365      0.00000
     21      17.3450      0.00000
     22      17.3450      0.00000
     23      17.5038      0.00000
     24      17.8702      0.00000

 k-point    15 :       0.2500    0.1667    0.0000
  band No.  band energies     occupation 
      1     -10.8214      2.00000
      2      -6.2337      2.00000
      3      -4.8044      2.00000
      4      -2.5946      2.00000
      5      -1.9493      2.00000
      6       0.1259      2.00000
      7       1.1302      2.00000
      8       1.4531      2.00000
      9       2.8351      2.00000
     10       3.4428      2.00000
     11       3.7455      2.00000
     12       4.2326      2.00000
     13       4.3295      2.00000
     14       7.1743      2.00000
     15       7.7569      2.00000
     16       9.6897      2.00000
     17      15.6837      0.00000
     18      16.1129      0.00000
     19      16.6482      0.00000
     20      16.9324      0.00000
     21      18.1433      0.00000
     22      18.4132      0.00000
     23      18.4151      0.00000
     24      18.5691      0.00000

 k-point    16 :       0.3333    0.1667    0.0000
  band No.  band energies     occupation 
      1     -10.3640      2.00000
      2      -7.2903      2.00000
      3      -4.4364      2.00000
      4      -2.7433      2.00000
      5      -1.5955      2.00000
      6      -0.0347      2.00000
      7       0.7678      2.00000
      8       2.1694      2.00000
      9       2.5994      2.00000
     10       3.2846      2.00000
     11       4.1592      2.00000
     12       4.1652      2.00000
     13       4.9859      2.00000
     14       6.2616      2.00000
     15       6.9105      2.00000
     16       8.9979      2.00000
     17      15.7144      0.00000
     18      16.4532      0.00000
     19      17.0422      0.00000
     20      18.3671      0.00000
     21      19.1264      0.00000
     22      19.4679      0.00000
     23      19.6449      0.00000
     24      19.6504      0.00000

 k-point    17 :       0.4167    0.1667    0.0000
  band No.  band energies     occupation 
      1      -9.7790      2.00000
      2      -8.2377      2.00000
      3      -3.9937      2.00000
      4      -3.0668      2.00000
      5      -1.1830      2.00000
      6      -0.3392      2.00000
      7       0.7532      2.00000
      8       1.5467      2.00000
      9       3.3285      2.00000
     10       3.5895      2.00000
     11       3.8579      2.00000
     12       4.7045      2.00000
     13       5.3668      2.00000
     14       5.9585      2.00000
     15       6.0977      2.00000
     16       8.0835      2.00000
     17      15.8270      0.00000
     18      16.2221      0.00000
     19      18.2839      0.00000
     20      19.9502      0.00000
     21      20.2890      0.00000
     22      20.4408      0.00000
     23      20.5016      0.00000
     24      20.9989      0.00000

 k-point    18 :       0.5000    0.1667    0.0000
  band No.  band energies     occupation 
      1      -9.0690      2.00000
      2      -9.0690      2.00000
      3      -3.5147      2.00000
      4      -3.5147      2.00000
      5      -0.7459      2.00000
      6      -0.7459      2.00000
      7       1.0444      2.00000
      8       1.0444      2.00000
      9       3.5467      2.00000
     10       3.5467      2.00000
     11       4.4873      2.00000
[...]

 k-point    72 :       0.4167    0.4167    0.2500
  band No.  band energies     occupation 
      1      -7.8792      2.00000
      2      -6.4377      2.00000
      3      -6.4377      2.00000
      4      -5.2571      2.00000
      5      -2.5760      2.00000
      6      -1.4363      2.00000
      7      -1.4363      2.00000
      8      -0.0528      2.00000
      9       4.7205      2.00000
     10       5.5146      2.00000
     11       5.5146      2.00000
     12       6.6402      2.00000
     13       6.6419      2.00000
     14       6.8296      2.00000
     15       6.8296      2.00000
     16       7.9547      2.00000
     17      18.0920      0.00000
     18      18.6111      0.00000
     19      18.6111      0.00000
     20      18.9903      0.00000
     21      19.2184      0.00000
     22      19.8176      0.00000
     23      19.8176      0.00000
     24      20.1359      0.00000

 k-point    73 :       0.5000    0.4167    0.2500
  band No.  band energies     occupation 
      1      -7.2067      2.00000
      2      -7.2067      2.00000
      3      -5.8465      2.00000
      4      -5.8465      2.00000
      5      -2.1164      2.00000
      6      -2.1164      2.00000
      7      -0.8081      2.00000
      8      -0.8081      2.00000
      9       5.1351      2.00000
     10       5.1351      2.00000
     11       6.1037      2.00000
     12       6.1037      2.00000
     13       6.8688      2.00000
     14       6.8688      2.00000
     15       7.5260      2.00000
     16       7.5260      2.00000
     17      18.6117      0.00000
     18      18.6117      0.00000
     19      18.8785      0.00000
     20      18.8785      0.00000
     21      19.4418      0.00000
     22      19.4418      0.00000
     23      20.0253      0.00000
     24      20.0253      0.00000

 k-point    74 :       0.5000    0.5000    0.2500
  band No.  band energies     occupation 
      1      -6.5613      2.00000
      2      -6.5613      2.00000
      3      -6.5613      2.00000
      4      -6.5613      2.00000
      5      -1.5387      2.00000
      6      -1.5387      2.00000
      7      -1.5387      2.00000
      8      -1.5387      2.00000
      9       5.6360      2.00000
     10       5.6360      2.00000
     11       5.6360      2.00000
     12       5.6360      2.00000
     13       7.3525      2.00000
     14       7.3525      2.00000
     15       7.3525      2.00000
     16       7.3525      2.00000
     17      18.8002      0.00000
     18      18.8002      0.00000
     19      18.8002      0.00000
     20      18.8002      0.00000
     21      19.7874      0.00000
     22      19.7874      0.00000
     23      19.7874      0.00000
     24      19.7874      0.00000

 k-point    75 :       0.3333    0.3333    0.3333
  band No.  band energies     occupation 
      1      -8.5677      2.00000
      2      -5.7204      2.00000
      3      -5.7204      2.00000
      4      -5.7204      2.00000
      5      -2.0239      2.00000
      6      -2.0239      2.00000
      7      -2.0239      2.00000
      8       0.7149      2.00000
      9       5.2294      2.00000
     10       5.2294      2.00000
     11       5.2294      2.00000
     12       6.2446      2.00000
     13       6.2446      2.00000
     14       6.2446      2.00000
     15       7.9638      2.00000
     16       7.9638      2.00000
     17      17.6383      0.00000
     18      17.6383      0.00000
     19      17.6383      0.00000
     20      18.8660      0.00000
     21      18.8660      0.00000
     22      19.4294      0.00000
     23      21.4172      0.00000
     24      21.4172      0.00000

 k-point    76 :       0.4167    0.3333    0.3333
  band No.  band energies     occupation 
      1      -8.0049      2.00000
      2      -6.5581      2.00000
      3      -5.3680      2.00000
      4      -5.3680      2.00000
      5      -2.7034      2.00000
      6      -2.7034      2.00000
      7      -1.5513      2.00000
      8      -0.1571      2.00000
      9       5.4461      2.00000
     10       5.4461      2.00000
     11       6.3710      2.00000
     12       6.4757      2.00000
     13       6.4757      2.00000
     14       6.6307      2.00000
     15       7.5191      2.00000
     16       7.8371      2.00000
     17      17.9956      0.00000
     18      18.1822      0.00000
     19      18.1822      0.00000
     20      18.6416      0.00000
     21      19.3264      0.00000
     22      19.7101      0.00000
     23      20.4583      0.00000
     24      20.4600      0.00000

 k-point    77 :       0.5000    0.3333    0.3333
  band No.  band energies     occupation 
      1      -7.3301      2.00000
      2      -7.3301      2.00000
      3      -5.1954      2.00000
      4      -5.1954      2.00000
      5      -2.9863      2.00000
      6      -2.9863      2.00000
      7      -0.9188      2.00000
      8      -0.9188      2.00000
      9       5.5189      2.00000
     10       5.5189      2.00000
     11       6.5487      2.00000
     12       6.5487      2.00000
     13       7.0642      2.00000
     14       7.0642      2.00000
     15       7.2792      2.00000
     16       7.2792      2.00000
     17      18.3456      0.00000
     18      18.3456      0.00000
     19      18.7240      0.00000
     20      18.7240      0.00000
     21      19.7224      0.00000
     22      19.7226      0.00000
     23      19.9194      0.00000
     24      19.9199      0.00000

 k-point    78 :       0.4167    0.4167    0.3333
  band No.  band energies     occupation 
      1      -7.4552      2.00000
      2      -6.0830      2.00000
      3      -6.0830      2.00000
      4      -5.3107      2.00000
      5      -3.1059      2.00000
      6      -2.3518      2.00000
      7      -2.3518      2.00000
      8      -1.0235      2.00000
      9       5.8693      2.00000
     10       6.3494      2.00000
     11       6.3494      2.00000
     12       6.8564      2.00000
     13       6.9356      2.00000
     14       6.9356      2.00000
     15       7.3105      2.00000
     16       7.7972      2.00000
     17      18.3626      0.00000
     18      18.4953      0.00000
     19      18.4953      0.00000
     20      18.9272      0.00000
     21      19.1476      0.00000
     22      19.7759      0.00000
     23      19.8662      0.00000
     24      19.8665      0.00000

 k-point    79 :       0.5000    0.4167    0.3333
  band No.  band energies     occupation 
      1      -6.8047      2.00000
      2      -6.8047      2.00000
      3      -5.6046      2.00000
      4      -5.6046      2.00000
      5      -2.9341      2.00000
      6      -2.9341      2.00000
      7      -1.7664      2.00000
      8      -1.7664      2.00000
      9       6.1584      2.00000
     10       6.1584      2.00000
     11       6.9082      2.00000
     12       6.9082      2.00000
     13       7.0324      2.00000
     14       7.0324      2.00000
     15       7.4805      2.00000
     16       7.4805      2.00000
     17      18.7761      0.00000
     18      18.7761      0.00000
     19      18.7806      0.00000
     20      18.7806      0.00000
     21      19.4261      0.00000
     22      19.4261      0.00000
     23      19.5970      0.00000
     24      19.5971      0.00000

 k-point    80 :       0.5000    0.5000    0.3333
  band No.  band energies     occupation 
      1      -6.2044      2.00000
      2      -6.2044      2.00000
      3      -6.2044      2.00000
      4      -6.2044      2.00000
      5      -2.4642      2.00000
      6      -2.4642      2.00000
      7      -2.4642      2.00000
      8      -2.4642      2.00000
      9       6.5870      2.00000
     10       6.5870      2.00000
     11       6.5870      2.00000
     12       6.5870      2.00000
     13       7.4095      2.00000
     14       7.4095      2.00000
     15       7.4095      2.00000
     16       7.4095      2.00000
     17      18.9410      0.00000
     18      18.9410      0.00000
     19      18.9410      0.00000
     20      18.9410      0.00000
     21      19.3941      0.00000
     22      19.3941      0.00000
     23      19.3941      0.00000
     24      19.3941      0.00000

 k-point    81 :       0.4167    0.4167    0.4167
  band No.  band energies     occupation 
      1      -6.9275      2.00000
      2      -5.7212      2.00000
      3      -5.7212      2.00000
      4      -5.7212      2.00000
      5      -3.0555      2.00000
      6      -3.0555      2.00000
      7      -3.0555      2.00000
      8      -1.8788      2.00000
      9       6.8090      2.00000
     10       6.8090      2.00000
     11       6.8090      2.00000
     12       7.1014      2.00000
     13       7.1014      2.00000
     14       7.1014      2.00000
     15       7.5932      2.00000
     16       7.5932      2.00000
     17      18.6379      0.00000
     18      18.6379      0.00000
     19      18.6379      0.00000
     20      19.0131      0.00000
     21      19.0131      0.00000
     22      19.6896      0.00000
     23      19.6896      0.00000
     24      19.7027      0.00000

 k-point    82 :       0.5000    0.4167    0.4167
  band No.  band energies     occupation 
      1      -6.3244      2.00000
      2      -6.3244      2.00000
      3      -5.5421      2.00000
      4      -5.5421      2.00000
      5      -3.3491      2.00000
      6      -3.3491      2.00000
      7      -2.5824      2.00000
      8      -2.5824      2.00000
      9       6.8967      2.00000
     10       6.8967      2.00000
     11       7.2346      2.00000
     12       7.2346      2.00000
     13       7.3548      2.00000
     14       7.3548      2.00000
     15       7.4165      2.00000
     16       7.4165      2.00000
     17      18.8610      0.00000
     18      18.8610      0.00000
     19      18.9016      0.00000
     20      18.9016      0.00000
     21      19.2723      0.00000
     22      19.2723      0.00000
     23      19.3342      0.00000
     24      19.3342      0.00000

 k-point    83 :       0.5000    0.5000    0.4167
  band No.  band energies     occupation 
      1      -5.8393      2.00000
      2      -5.8393      2.00000
      3      -5.8393      2.00000
      4      -5.8393      2.00000
      5      -3.1751      2.00000
      6      -3.1751      2.00000
      7      -3.1751      2.00000
      8      -3.1751      2.00000
      9       7.2347      2.00000
     10       7.2347      2.00000
     11       7.2347      2.00000
     12       7.2347      2.00000
     13       7.4508      2.00000
     14       7.4508      2.00000
     15       7.4508      2.00000
     16       7.4508      2.00000
     17      19.0171      0.00000
     18      19.0171      0.00000
     19      19.0171      0.00000
     20      19.0171      0.00000
     21      19.1163      0.00000
     22      19.1163      0.00000
     23      19.1163      0.00000
     24      19.1163      0.00000

 k-point    84 :       0.5000    0.5000    0.5000
  band No.  band energies     occupation 
      1      -5.6582      2.00000
      2      -5.6582      2.00000
      3      -5.6582      2.00000
      4      -5.6582      2.00000
      5      -3.4732      2.00000
      6      -3.4732      2.00000
      7      -3.4732      2.00000
      8      -3.4732      2.00000
      9       7.4659      2.00000
     10       7.4659      2.00000
     11       7.4659      2.00000
     12       7.4659      2.00000
     13       7.4659      2.00000
     14       7.4659      2.00000
     15       7.4659      2.00000
     16       7.4659      2.00000
     17      19.0118      0.00000
     18      19.0118      0.00000
     19      19.0118      0.00000
     20      19.0118      0.00000
     21      19.0118      0.00000
     22      19.0118      0.00000
     23      19.0118      0.00000
     24      19.0118      0.00000


--------------------------------------------------------------------------------------------------------


 soft charge-density along one line, spin component           1
         0         1         2         3         4         5         6         7         8         9
 total charge-density along one line
 
 pseudopotential strength for first ion, spin component:           1
  9.405  -0.006   0.000   0.000   0.000  -0.000  -0.000  -0.000
 -0.006  -0.002  -0.000  -0.000  -0.000  -0.000  -0.000  -0.000
  0.000  -0.000  -3.624   0.000  -0.000  -0.010   0.000  -0.000
  0.000  -0.000   0.000  -3.624   0.000   0.000  -0.010   0.000
  0.000  -0.000  -0.000   0.000  -3.624  -0.000   0.000  -0.010
 -0.000  -0.000  -0.010   0.000  -0.000  -0.756   0.000  -0.000
 -0.000  -0.000   0.000  -0.010   0.000   0.000  -0.756   0.000
 -0.000  -0.000  -0.000   0.000  -0.010  -0.000   0.000  -0.756
 total augmentation occupancy for first ion, spin component:           1
  1.430  -1.095   0.000   0.000  -0.000   0.000  -0.000  -0.000
 -1.095   1.129   0.000   0.000   0.000  -0.000   0.000  -0.000
 -0.000   0.000   1.125   0.000   0.000   0.193  -0.000   0.000
 -0.000   0.000  -0.000   1.125  -0.000   0.000   0.193   0.000
 -0.000   0.000   0.000  -0.000   1.125  -0.000   0.000   0.193
 -0.000  -0.000   0.193   0.000   0.000   0.039  -0.000  -0.000
 -0.000   0.000  -0.000   0.193   0.000   0.000   0.039   0.000
  0.000   0.000   0.000   0.000   0.193  -0.000  -0.000   0.039


------------------------ aborting loop because EDIFF is reached ----------------------------------------


    CHARGE:  cpu time    0.1518: real time    0.1518
    FORLOC:  cpu time    0.0019: real time    0.0019
    FORNL :  cpu time    0.1820: real time    0.1820
    STRESS:  cpu time    0.4319: real time    0.4322
    FORHAR:  cpu time    0.0052: real time    0.0052
    MIXING:  cpu time    0.0020: real time    0.0020
    OFIELD:  cpu time    0.0001: real time    0.0001

  FORCE on cell =-STRESS in cart. coord.  units (eV):
  Direction    XX          YY          ZZ          XY          YZ          ZX
  --------------------------------------------------------------------------------------
  Alpha Z   119.82351   119.82351   119.82351
  Ewald    -470.45307  -470.45307  -470.45307    -0.00000     0.00000    -0.00000
  Hartree    34.38539    34.38539    34.38539    -0.00000    -0.00000    -0.00000
  E(xc)    -120.87646  -120.87646  -120.87646    -0.00000     0.00000    -0.00000
  Local     -43.76597   -43.76597   -43.76597    -0.00000     0.00000     0.00000
  n-local   -29.77677   -30.55473   -30.18105     0.64553     0.77354     0.36837
  augment    -3.01597    -3.01597    -3.01597    -0.00000    -0.00000     0.00000
  Kinetic   507.38419   523.77209   525.92891    -4.69492    -6.52134    -3.25310
  Fock        0.00000     0.00000     0.00000     0.00000     0.00000     0.00000
  -------------------------------------------------------------------------------------
  Total       4.95498     4.95498     4.95498     0.00000     0.00000    -0.00000
  in kB     182.41606   182.41606   182.41606     0.00000     0.00000    -0.00000
  external pressure =      182.42 kB  Pullay stress =        0.00 kB


 VOLUME and BASIS-vectors are now :
 -----------------------------------------------------------------------------
  energy-cutoff  :      400.00
  volume of cell :       43.52
      direct lattice vectors                 reciprocal lattice vectors
     3.517466245  0.000000000  0.000000000     0.284295550  0.000000000  0.000000000
     0.000000000  3.517466245  0.000000000     0.000000000  0.284295550  0.000000000
     0.000000000  0.000000000  3.517466245     0.000000000  0.000000000  0.284295550

  length of vectors
     3.517466245  3.517466245  3.517466245     0.284295550  0.284295550  0.284295550


 FORCES acting on ions
    electron-ion (+dipol)            ewald-force                    non-local-force                 convergence-correction
 -----------------------------------------------------------------------------------------------
   0.162E-13 -.156E-12 -.185E-14   0.142E-13 0.000E+00 0.000E+00   0.270E-16 -.105E-16 -.125E-16   -.179E-14 0.652E-14 0.126E-13
   -.808E-14 -.230E-14 0.113E-13   0.151E-13 0.619E-14 0.213E-13   -.221E-17 -.540E-17 -.996E-17   -.994E-14 -.548E-14 0.738E-14
   0.808E-14 -.174E-12 0.164E-13   0.000E+00 0.711E-14 0.213E-13   0.605E-17 0.976E-17 0.238E-16   -.187E-14 0.410E-14 0.131E-13
   -.808E-14 0.186E-13 -.103E-13   0.271E-15 0.142E-13 0.420E-13   -.893E-17 0.366E-17 0.805E-17   -.107E-13 -.341E-14 0.746E-14
   0.404E-13 0.199E-12 0.386E-12   0.000E+00 -.142E-13 -.426E-13   -.458E-17 0.213E-17 0.235E-17   -.495E-14 0.581E-14 0.128E-13
   0.808E-14 -.511E-14 -.413E-12   -.705E-14 -.714E-14 -.220E-13   -.296E-16 -.100E-17 0.110E-16   0.733E-14 -.525E-14 0.743E-14
   0.323E-13 -.191E-12 -.379E-14   -.711E-14 -.711E-14 -.213E-13   0.638E-17 0.113E-16 -.188E-16   -.517E-14 0.515E-14 0.125E-13
   0.808E-14 0.371E-12 0.126E-13   -.142E-13 -.803E-16 -.806E-16   0.255E-17 -.123E-16 -.161E-16   0.827E-14 -.340E-14 0.714E-14
 -----------------------------------------------------------------------------------------------
   0.970E-13 0.605E-13 -.239E-14   0.123E-14 -.102E-14 -.142E-14   -.332E-17 -.240E-17 -.120E-16   -.189E-13 0.404E-14 0.804E-13
 
 
 POSITION                                       TOTAL-FORCE (eV/Angst)
 -----------------------------------------------------------------------------------
      0.87937      2.63810      0.87937        -0.000000      0.000000     -0.000000
      0.00000      0.00000      1.75873         0.000000     -0.000000      0.000000
      0.87937      0.87937      2.63810        -0.000000     -0.000000     -0.000000
      0.00000      1.75873      0.00000        -0.000000     -0.000000     -0.000000
      2.63810      2.63810      2.63810         0.000000      0.000000     -0.000000
      1.75873      0.00000      0.00000         0.000000     -0.000000      0.000000
      2.63810      0.87937      0.87937         0.000000      0.000000      0.000000
      1.75873      1.75873      1.75873        -0.000000      0.000000      0.000000
 -----------------------------------------------------------------------------------
    total drift:                                0.000000      0.000000      0.000000


--------------------------------------------------------------------------------------------------------



  FREE ENERGIE OF THE ION-ELECTRON SYSTEM (eV)
  ---------------------------------------------------
  free  energy   TOTEN  =       -72.61148743 eV

  energy  without entropy=      -72.61148743  energy(sigma->0) =      -72.61148743
 


--------------------------------------------------------------------------------------------------------


    POTLOK:  cpu time    0.0259: real time    0.0259


--------------------------------------------------------------------------------------------------------


     LOOP+:  cpu time   49.1100: real time   49.9038
    4ORBIT:  cpu time    0.0000: real time    0.0000
 BZINTS: Fermi energy: 10.395739; 32.000000 electrons
         Band energy:  36.394062;  BLOECHL correction:  0.000000

 total amount of memory used by VASP MPI-rank0    33836. kBytes
=======================================================================

   base      :      30000. kBytes
   nonl-proj :       1166. kBytes
   fftplans  :        345. kBytes
   grid      :        481. kBytes
   one-center:          6. kBytes
   wavefun   :       1838. kBytes
 
  
  
 General timing and accounting informations for this job:
 ========================================================
  
                  Total CPU time used (sec):       51.411
                            User time (sec):       49.398
                          System time (sec):        2.013
                         Elapsed time (sec):       52.360
  
                   Maximum memory used (kb):      189604.
                   Average memory used (kb):           0.
  
                          Minor page faults:        36890
                          Major page faults:           36
                 Voluntary context switches:          785
