<?xml version="1.0" encoding="ISO-8859-1"?>
<modeling>
 <generator>
  <i name="program" type="string">vasp </i>
  <i name="version" type="string">5.4.4.18Apr17-6-g9f103f2a35  </i>
  <i name="subversion" type="string">(build Mar 12 2022 03:36:41) complex            parallel </i>
  <i name="platform" type="string">IFC19.0.3.199_CrayMPICH7.7.19 </i>
  <i name="date" type="string">2022 12 01 </i>
  <i name="time" type="string">10:39:01 </i>
 </generator>
 <incar>
  <i type="int" name="ISTART">     0</i>
  <i type="string" name="PREC">accurate</i>
  <i name="EDIFF">      0.00000100</i>
  <i name="POTIM">      0.02000000</i>
  <i type="int" name="ISMEAR">    -5</i>
  <i name="SIGMA">      0.06000000</i>
  <i type="logical" name="LWAVE"> F  </i>
  <i type="logical" name="LCHARG"> F  </i>
  <v type="int" name="KPOINT_BSE">    -1     0     0     0</v>
 </incar>
 <structure name="primitive_cell" >
  <crystal>
   <varray name="basis" >
    <v>       1.75873312       1.75873312      -0.00000000 </v>
    <v>       1.75873312       0.00000000      -1.75873312 </v>
    <v>       0.00000000       1.75873312      -1.75873312 </v>
   </varray>
   <i name="volume">     10.88002327 </i>
   <varray name="rec_basis" >
    <v>       0.28429555       0.28429555       0.28429555 </v>
    <v>       0.28429555      -0.28429555      -0.28429555 </v>
    <v>      -0.28429555       0.28429555      -0.28429555 </v>
   </varray>
  </crystal>
  <varray name="positions" >
   <v>       0.25000000       0.25000000       0.25000000 </v>
   <v>      -0.50000000      -0.50000000      -0.50000000 </v>
  </varray>
 </structure>
 <varray name="primitive_index" >
  <v type="int" >        1 </v>
  <v type="int" >        2 </v>
 </varray>
 <kpoints>
  <generation param="Gamma">
   <v type="int" name="divisions">      12       12       12 </v>
   <v name="usershift">      0.00000000       0.00000000       0.00000000 </v>
   <v name="genvec1">      0.08333333       0.00000000       0.00000000 </v>
   <v name="genvec2">      0.00000000       0.08333333       0.00000000 </v>
   <v name="genvec3">      0.00000000       0.00000000       0.08333333 </v>
   <v name="shift">      0.00000000       0.00000000       0.00000000 </v>
  </generation>
  <varray name="kpointlist" >
   <v>       0.00000000       0.00000000       0.00000000 </v>
   <v>       0.08333333       0.00000000       0.00000000 </v>
   <v>       0.16666667       0.00000000       0.00000000 </v>
   <v>       0.25000000       0.00000000       0.00000000 </v>
   <v>       0.33333333       0.00000000       0.00000000 </v>
   <v>       0.41666667       0.00000000       0.00000000 </v>
   <v>       0.50000000       0.00000000       0.00000000 </v>
   <v>       0.08333333       0.08333333       0.00000000 </v>
   <v>       0.16666667       0.08333333       0.00000000 </v>
   <v>       0.25000000       0.08333333       0.00000000 </v>
   <v>       0.33333333       0.08333333       0.00000000 </v>
   <v>       0.41666667       0.08333333       0.00000000 </v>
   <v>       0.50000000       0.08333333       0.00000000 </v>
   <v>       0.16666667       0.16666667       0.00000000 </v>
   <v>       0.25000000       0.16666667       0.00000000 </v>
   <v>       0.33333333       0.16666667       0.00000000 </v>
   <v>       0.41666667       0.16666667       0.00000000 </v>
   <v>       0.50000000       0.16666667       0.00000000 </v>
   <v>       0.25000000       0.25000000       0.00000000 </v>
   <v>       0.33333333       0.25000000       0.00000000 </v>
   <v>       0.41666667       0.25000000       0.00000000 </v>
   <v>       0.50000000       0.25000000       0.00000000 </v>
   <v>       0.33333333       0.33333333       0.00000000 </v>
   <v>       0.41666667       0.33333333       0.00000000 </v>
   <v>       0.50000000       0.33333333       0.00000000 </v>
   <v>       0.41666667       0.41666667       0.00000000 </v>
   <v>       0.50000000       0.41666667       0.00000000 </v>
   <v>       0.50000000       0.50000000       0.00000000 </v>
   <v>       0.08333333       0.08333333       0.08333333 </v>
   <v>       0.16666667       0.08333333       0.08333333 </v>
   <v>       0.25000000       0.08333333       0.08333333 </v>
   <v>       0.33333333       0.08333333       0.08333333 </v>
   <v>       0.41666667       0.08333333       0.08333333 </v>
   <v>       0.50000000       0.08333333       0.08333333 </v>
   <v>       0.16666667       0.16666667       0.08333333 </v>
   <v>       0.25000000       0.16666667       0.08333333 </v>
   <v>       0.33333333       0.16666667       0.08333333 </v>
   <v>       0.41666667       0.16666667       0.08333333 </v>
   <v>       0.50000000       0.16666667       0.08333333 </v>
   <v>       0.25000000       0.25000000       0.08333333 </v>
   <v>       0.33333333       0.25000000       0.08333333 </v>
   <v>       0.41666667       0.25000000       0.08333333 </v>
   <v>       0.50000000       0.25000000       0.08333333 </v>
   <v>       0.33333333       0.33333333       0.08333333 </v>
   <v>       0.41666667       0.33333333       0.08333333 </v>
   <v>       0.50000000       0.33333333       0.08333333 </v>
   <v>       0.41666667       0.41666667       0.08333333 </v>
   <v>       0.50000000       0.41666667       0.08333333 </v>
   <v>       0.50000000       0.50000000       0.08333333 </v>
   <v>       0.16666667       0.16666667       0.16666667 </v>
   <v>       0.25000000       0.16666667       0.16666667 </v>
   <v>       0.33333333       0.16666667       0.16666667 </v>
   <v>       0.41666667       0.16666667       0.16666667 </v>
   <v>       0.50000000       0.16666667       0.16666667 </v>
   <v>       0.25000000       0.25000000       0.16666667 </v>
   <v>       0.33333333       0.25000000       0.16666667 </v>
   <v>       0.41666667       0.25000000       0.16666667 </v>
   <v>       0.50000000       0.25000000       0.16666667 </v>
   <v>       0.33333333       0.33333333       0.16666667 </v>
   <v>       0.41666667       0.33333333       0.16666667 </v>
   <v>       0.50000000       0.33333333       0.16666667 </v>
   <v>       0.41666667       0.41666667       0.16666667 </v>
   <v>       0.50000000       0.41666667       0.16666667 </v>
   <v>       0.50000000       0.50000000       0.16666667 </v>
   <v>       0.25000000       0.25000000       0.25000000 </v>
   <v>       0.33333333       0.25000000       0.25000000 </v>
   <v>       0.41666667       0.25000000       0.25000000 </v>
   <v>       0.50000000       0.25000000       0.25000000 </v>
   <v>       0.33333333       0.33333333       0.25000000 </v>
   <v>       0.41666667       0.33333333       0.25000000 </v>
   <v>       0.50000000       0.33333333       0.25000000 </v>
   <v>       0.41666667       0.41666667       0.25000000 </v>
   <v>       0.50000000       0.41666667       0.25000000 </v>
   <v>       0.50000000       0.50000000       0.25000000 </v>
   <v>       0.33333333       0.33333333       0.33333333 </v>
   <v>       0.41666667       0.33333333       0.33333333 </v>
   <v>       0.50000000       0.33333333       0.33333333 </v>
   <v>       0.41666667       0.41666667       0.33333333 </v>
   <v>       0.50000000       0.41666667       0.33333333 </v>
   <v>       0.50000000       0.50000000       0.33333333 </v>
   <v>       0.41666667       0.41666667       0.41666667 </v>
   <v>       0.50000000       0.41666667       0.41666667 </v>
   <v>       0.50000000       0.50000000       0.41666667 </v>
   <v>       0.50000000       0.50000000       0.50000000 </v>
  </varray>
  <varray name="weights" >
   <v>       0.00057870 </v>
   <v>       0.00347222 </v>
   <v>       0.00347222 </v>
   <v>       0.00347222 </v>
   <v>       0.00347222 </v>
   <v>       0.00347222 </v>
   <v>       0.00173611 </v>
   <v>       0.00694444 </v>
   <v>       0.01388889 </v>
   <v>       0.01388889 </v>
   <v>       0.01388889 </v>
   <v>       0.01388889 </v>
   <v>       0.00694444 </v>
   <v>       0.00694444 </v>
   <v>       0.01388889 </v>
   <v>       0.01388889 </v>
   <v>       0.01388889 </v>
   <v>       0.00694444 </v>
   <v>       0.00694444 </v>
   <v>       0.01388889 </v>
   <v>       0.01388889 </v>
   <v>       0.00694444 </v>
   <v>       0.00694444 </v>
   <v>       0.01388889 </v>
   <v>       0.00694444 </v>
   <v>       0.00694444 </v>
   <v>       0.00694444 </v>
   <v>       0.00173611 </v>
   <v>       0.00462963 </v>
   <v>       0.01388889 </v>
   <v>       0.01388889 </v>
   <v>       0.01388889 </v>
   <v>       0.01388889 </v>
   <v>       0.00694444 </v>
   <v>       0.01388889 </v>
   <v>       0.02777778 </v>
   <v>       0.02777778 </v>
   <v>       0.02777778 </v>
   <v>       0.01388889 </v>
   <v>       0.01388889 </v>
   <v>       0.02777778 </v>
   <v>       0.02777778 </v>
   <v>       0.01388889 </v>
   <v>       0.01388889 </v>
   <v>       0.02777778 </v>
   <v>       0.01388889 </v>
   <v>       0.01388889 </v>
   <v>       0.01388889 </v>
   <v>       0.00347222 </v>
   <v>       0.00462963 </v>
   <v>       0.01388889 </v>
   <v>       0.01388889 </v>
   <v>       0.01388889 </v>
   <v>       0.00694444 </v>
   <v>       0.01388889 </v>
   <v>       0.02777778 </v>
   <v>       0.02777778 </v>
   <v>       0.01388889 </v>
   <v>       0.01388889 </v>
   <v>       0.02777778 </v>
   <v>       0.01388889 </v>
   <v>       0.01388889 </v>
   <v>       0.01388889 </v>
   <v>       0.00347222 </v>
   <v>       0.00462963 </v>
   <v>       0.01388889 </v>
   <v>       0.01388889 </v>
   <v>       0.00694444 </v>
   <v>       0.01388889 </v>
   <v>       0.02777778 </v>
   <v>       0.01388889 </v>
   <v>       0.01388889 </v>
   <v>       0.01388889 </v>
   <v>       0.00347222 </v>
   <v>       0.00462963 </v>
   <v>       0.01388889 </v>
   <v>       0.00694444 </v>
   <v>       0.01388889 </v>
   <v>       0.01388889 </v>
   <v>       0.00347222 </v>
   <v>       0.00462963 </v>
   <v>       0.00694444 </v>
   <v>       0.00347222 </v>
   <v>       0.00057870 </v>
  </varray>
  <varray name="tetrahedronlist"  type="int" >
   <v type="int" >       12        1        2        2        8 </v>
   <v type="int" >       12        2        2        8        8 </v>
   <v type="int" >       12        2        8        8       29 </v>
   <v type="int" >       12        2        3        8        9 </v>
   <v type="int" >       12        2        8        8        9 </v>
   <v type="int" >       12        8        8        9       29 </v>
   <v type="int" >       12        3        8        9        9 </v>
   <v type="int" >       24        8        9        9       30 </v>
   <v type="int" >       24        8        9       29       30 </v>
   <v type="int" >       12        3        4        9       10 </v>
   <v type="int" >       12        3        9        9       10 </v>
   <v type="int" >       12        9        9       10       30 </v>
   <v type="int" >       12        4        9       10       10 </v>
   <v type="int" >       12        9       10       10       31 </v>
   <v type="int" >       12        9       10       30       31 </v>
   <v type="int" >       12        4        5       10       11 </v>
   <v type="int" >       12        4       10       10       11 </v>
   <v type="int" >       12       10       10       11       31 </v>
   <v type="int" >       12        5       10       11       11 </v>
   <v type="int" >       12       10       11       11       32 </v>
   <v type="int" >       12       10       11       31       32 </v>
   <v type="int" >       12        5        6       11       12 </v>
   <v type="int" >       12        5       11       11       12 </v>
   <v type="int" >       12       11       11       12       32 </v>
   <v type="int" >       12        6       11       12       12 </v>
   <v type="int" >       12       11       12       12       33 </v>
   <v type="int" >       12       11       12       32       33 </v>
   <v type="int" >       12        6        7       12       13 </v>
   <v type="int" >       12        6       12       12       13 </v>
   <v type="int" >       12       12       12       13       33 </v>
   <v type="int" >       12        7       12       13       13 </v>
   <v type="int" >       12       12       13       13       34 </v>
   <v type="int" >       12       12       13       33       34 </v>
   <v type="int" >       12        8        9       14       29 </v>
   <v type="int" >       12        9       14       29       30 </v>
   <v type="int" >       12       14       29       30       35 </v>
   <v type="int" >       12        9       10       15       30 </v>
   <v type="int" >       12        9       14       15       30 </v>
   <v type="int" >       12       14       15       30       35 </v>
   <v type="int" >       12       10       15       30       31 </v>
   <v type="int" >       12       15       30       31       36 </v>
   <v type="int" >       12       15       30       35       36 </v>
   <v type="int" >       12       10       11       16       31 </v>
   <v type="int" >       12       10       15       16       31 </v>
   <v type="int" >       12       15       16       31       36 </v>
   <v type="int" >       12       11       16       31       32 </v>
   <v type="int" >       12       16       31       32       37 </v>
   <v type="int" >       12       16       31       36       37 </v>
   <v type="int" >       12       11       12       17       32 </v>
   <v type="int" >       12       11       16       17       32 </v>
   <v type="int" >       12       16       17       32       37 </v>
   <v type="int" >       12       12       17       32       33 </v>
   <v type="int" >       12       17       32       33       38 </v>
   <v type="int" >       12       17       32       37       38 </v>
   <v type="int" >       12       12       13       18       33 </v>
   <v type="int" >       12       12       17       18       33 </v>
   <v type="int" >       12       17       18       33       38 </v>
   <v type="int" >       12       13       18       33       34 </v>
   <v type="int" >       12       18       33       34       39 </v>
   <v type="int" >       12       18       33       38       39 </v>
   <v type="int" >       12       12       13       17       34 </v>
   <v type="int" >       12       13       17       18       34 </v>
   <v type="int" >       12       17       18       34       39 </v>
   <v type="int" >       12       12       17       33       34 </v>
   <v type="int" >       12       17       33       34       38 </v>
   <v type="int" >       12       17       34       38       39 </v>
   <v type="int" >       12       11       12       16       33 </v>
   <v type="int" >       12       12       16       17       33 </v>
   <v type="int" >       12       16       17       33       38 </v>
   <v type="int" >       12       11       16       32       33 </v>
   <v type="int" >       12       16       32       33       37 </v>
   <v type="int" >       12       16       33       37       38 </v>
   <v type="int" >       12       10       11       15       32 </v>
   <v type="int" >       12       11       15       16       32 </v>
   <v type="int" >       12       15       16       32       37 </v>
   <v type="int" >       12       10       15       31       32 </v>
   <v type="int" >       12       15       31       32       36 </v>
   <v type="int" >       12       15       32       36       37 </v>
   <v type="int" >       12        9       10       14       31 </v>
   <v type="int" >       12       10       14       15       31 </v>
   <v type="int" >       12       14       15       31       36 </v>
   <v type="int" >       12        9       14       30       31 </v>
   <v type="int" >       12       14       30       31       35 </v>
   <v type="int" >       12       14       31       35       36 </v>
   <v type="int" >       12        9        9       14       30 </v>
   <v type="int" >       12        9       14       30       35 </v>
   <v type="int" >       12        9       29       30       30 </v>
   <v type="int" >       12        9       30       30       35 </v>
   <v type="int" >       12        2        3        8       29 </v>
   <v type="int" >       12        3        8        9       29 </v>
   <v type="int" >       12        3        9       29       30 </v>
   <v type="int" >       12       14       15       19       35 </v>
   <v type="int" >       12       15       19       35       36 </v>
   <v type="int" >       12       19       35       36       40 </v>
   <v type="int" >       12       15       16       20       36 </v>
   <v type="int" >       12       15       19       20       36 </v>
   <v type="int" >       12       19       20       36       40 </v>
   <v type="int" >       12       16       20       36       37 </v>
   <v type="int" >       12       20       36       37       41 </v>
   <v type="int" >       12       20       36       40       41 </v>
   <v type="int" >       12       16       17       21       37 </v>
   <v type="int" >       12       16       20       21       37 </v>
   <v type="int" >       12       20       21       37       41 </v>
   <v type="int" >       12       17       21       37       38 </v>
   <v type="int" >       12       21       37       38       42 </v>
   <v type="int" >       12       21       37       41       42 </v>
   <v type="int" >       12       17       18       22       38 </v>
   <v type="int" >       12       17       21       22       38 </v>
   <v type="int" >       12       21       22       38       42 </v>
   <v type="int" >       12       18       22       38       39 </v>
   <v type="int" >       12       22       38       39       43 </v>
   <v type="int" >       12       22       38       42       43 </v>
   <v type="int" >       12       17       18       21       39 </v>
   <v type="int" >       12       18       21       22       39 </v>
   <v type="int" >       12       21       22       39       43 </v>
   <v type="int" >       12       17       21       38       39 </v>
   <v type="int" >       12       21       38       39       42 </v>
   <v type="int" >       12       21       39       42       43 </v>
   <v type="int" >       12       16       17       20       38 </v>
   <v type="int" >       12       17       20       21       38 </v>
   <v type="int" >       12       20       21       38       42 </v>
   <v type="int" >       12       16       20       37       38 </v>
   <v type="int" >       12       20       37       38       41 </v>
   <v type="int" >       12       20       38       41       42 </v>
   <v type="int" >       12       15       16       19       37 </v>
   <v type="int" >       12       16       19       20       37 </v>
   <v type="int" >       12       19       20       37       41 </v>
   <v type="int" >       12       15       19       36       37 </v>
   <v type="int" >       12       19       36       37       40 </v>
   <v type="int" >       12       19       37       40       41 </v>
   <v type="int" >       12       14       15       15       36 </v>
   <v type="int" >       12       15       15       19       36 </v>
   <v type="int" >       12       15       19       36       40 </v>
   <v type="int" >       12       14       15       35       36 </v>
   <v type="int" >       12       15       35       36       36 </v>
   <v type="int" >       12       15       36       36       40 </v>
   <v type="int" >       12        9       10       14       35 </v>
   <v type="int" >       12       10       14       15       35 </v>
   <v type="int" >       12       10       15       35       36 </v>
   <v type="int" >       12        9       10       30       35 </v>
   <v type="int" >       12       10       30       31       35 </v>
   <v type="int" >       12       10       31       35       36 </v>
   <v type="int" >       12        3        4        9       30 </v>
   <v type="int" >       12        4        9       10       30 </v>
   <v type="int" >       12        4       10       30       31 </v>
   <v type="int" >       12       19       20       23       40 </v>
   <v type="int" >       12       20       23       40       41 </v>
   <v type="int" >       12       23       40       41       44 </v>
   <v type="int" >       12       20       21       24       41 </v>
   <v type="int" >       12       20       23       24       41 </v>
   <v type="int" >       12       23       24       41       44 </v>
   <v type="int" >       12       21       24       41       42 </v>
   <v type="int" >       12       24       41       42       45 </v>
   <v type="int" >       12       24       41       44       45 </v>
   <v type="int" >       12       21       22       25       42 </v>
   <v type="int" >       12       21       24       25       42 </v>
   <v type="int" >       12       24       25       42       45 </v>
   <v type="int" >       12       22       25       42       43 </v>
   <v type="int" >       12       25       42       43       46 </v>
   <v type="int" >       12       25       42       45       46 </v>
   <v type="int" >       12       21       22       24       43 </v>
   <v type="int" >       12       22       24       25       43 </v>
   <v type="int" >       12       24       25       43       46 </v>
   <v type="int" >       12       21       24       42       43 </v>
   <v type="int" >       12       24       42       43       45 </v>
   <v type="int" >       12       24       43       45       46 </v>
   <v type="int" >       12       20       21       23       42 </v>
   <v type="int" >       12       21       23       24       42 </v>
   <v type="int" >       12       23       24       42       45 </v>
   <v type="int" >       12       20       23       41       42 </v>
   <v type="int" >       12       23       41       42       44 </v>
   <v type="int" >       12       23       42       44       45 </v>
   <v type="int" >       12       19       20       20       41 </v>
   <v type="int" >       12       20       20       23       41 </v>
   <v type="int" >       12       20       23       41       44 </v>
   <v type="int" >       12       19       20       40       41 </v>
   <v type="int" >       12       20       40       41       41 </v>
   <v type="int" >       12       20       41       41       44 </v>
   <v type="int" >       12       15       16       19       40 </v>
   <v type="int" >       12       16       19       20       40 </v>
   <v type="int" >       12       16       20       40       41 </v>
   <v type="int" >       12       15       16       36       40 </v>
   <v type="int" >       12       16       36       37       40 </v>
   <v type="int" >       12       16       37       40       41 </v>
   <v type="int" >       12       10       11       15       36 </v>
   <v type="int" >       12       11       15       16       36 </v>
   <v type="int" >       12       11       16       36       37 </v>
   <v type="int" >       12       10       11       31       36 </v>
   <v type="int" >       12       11       31       32       36 </v>
   <v type="int" >       12       11       32       36       37 </v>
   <v type="int" >       12        4        5       10       31 </v>
   <v type="int" >       12        5       10       11       31 </v>
   <v type="int" >       12        5       11       31       32 </v>
   <v type="int" >       12       23       24       26       44 </v>
   <v type="int" >       12       24       26       44       45 </v>
   <v type="int" >       12       26       44       45       47 </v>
   <v type="int" >       12       24       25       27       45 </v>
   <v type="int" >       12       24       26       27       45 </v>
   <v type="int" >       12       26       27       45       47 </v>
   <v type="int" >       12       25       27       45       46 </v>
   <v type="int" >       12       27       45       46       48 </v>
   <v type="int" >       12       27       45       47       48 </v>
   <v type="int" >       12       24       25       26       46 </v>
   <v type="int" >       12       25       26       27       46 </v>
   <v type="int" >       12       26       27       46       48 </v>
   <v type="int" >       12       24       26       45       46 </v>
   <v type="int" >       12       26       45       46       47 </v>
   <v type="int" >       12       26       46       47       48 </v>
   <v type="int" >       12       23       24       24       45 </v>
   <v type="int" >       12       24       24       26       45 </v>
   <v type="int" >       12       24       26       45       47 </v>
   <v type="int" >       12       23       24       44       45 </v>
   <v type="int" >       12       24       44       45       45 </v>
   <v type="int" >       12       24       45       45       47 </v>
   <v type="int" >       12       20       21       23       44 </v>
   <v type="int" >       12       21       23       24       44 </v>
   <v type="int" >       12       21       24       44       45 </v>
   <v type="int" >       12       20       21       41       44 </v>
   <v type="int" >       12       21       41       42       44 </v>
   <v type="int" >       12       21       42       44       45 </v>
   <v type="int" >       12       16       17       20       41 </v>
   <v type="int" >       12       17       20       21       41 </v>
   <v type="int" >       12       17       21       41       42 </v>
   <v type="int" >       12       16       17       37       41 </v>
   <v type="int" >       12       17       37       38       41 </v>
   <v type="int" >       12       17       38       41       42 </v>
   <v type="int" >       12       11       12       16       37 </v>
   <v type="int" >       12       12       16       17       37 </v>
   <v type="int" >       12       12       17       37       38 </v>
   <v type="int" >       12       11       12       32       37 </v>
   <v type="int" >       12       12       32       33       37 </v>
   <v type="int" >       12       12       33       37       38 </v>
   <v type="int" >       12        5        6       11       32 </v>
   <v type="int" >       12        6       11       12       32 </v>
   <v type="int" >       12        6       12       32       33 </v>
   <v type="int" >       12       26       27       28       47 </v>
   <v type="int" >       12       27       28       47       48 </v>
   <v type="int" >       12       28       47       48       49 </v>
   <v type="int" >       12       26       27       27       48 </v>
   <v type="int" >       12       27       27       28       48 </v>
   <v type="int" >       12       27       28       48       49 </v>
   <v type="int" >       12       26       27       47       48 </v>
   <v type="int" >       12       27       47       48       48 </v>
   <v type="int" >       12       27       48       48       49 </v>
   <v type="int" >       12       24       25       26       47 </v>
   <v type="int" >       12       25       26       27       47 </v>
   <v type="int" >       12       25       27       47       48 </v>
   <v type="int" >       12       24       25       45       47 </v>
   <v type="int" >       12       25       45       46       47 </v>
   <v type="int" >       12       25       46       47       48 </v>
   <v type="int" >       12       21       22       24       45 </v>
   <v type="int" >       12       22       24       25       45 </v>
   <v type="int" >       12       22       25       45       46 </v>
   <v type="int" >       12       21       22       42       45 </v>
   <v type="int" >       12       22       42       43       45 </v>
   <v type="int" >       12       22       43       45       46 </v>
   <v type="int" >       12       17       18       21       42 </v>
   <v type="int" >       12       18       21       22       42 </v>
   <v type="int" >       12       18       22       42       43 </v>
   <v type="int" >       12       17       18       38       42 </v>
   <v type="int" >       12       18       38       39       42 </v>
   <v type="int" >       12       18       39       42       43 </v>
   <v type="int" >       12       12       13       17       38 </v>
   <v type="int" >       12       13       17       18       38 </v>
   <v type="int" >       12       13       18       38       39 </v>
   <v type="int" >       12       12       13       33       38 </v>
   <v type="int" >       12       13       33       34       38 </v>
   <v type="int" >       12       13       34       38       39 </v>
   <v type="int" >       12        6        7       12       33 </v>
   <v type="int" >       12        7       12       13       33 </v>
   <v type="int" >       12        7       13       33       34 </v>
   <v type="int" >       12       26       27       28       49 </v>
   <v type="int" >       12       26       27       48       49 </v>
   <v type="int" >       12       26       47       48       49 </v>
   <v type="int" >       12       24       25       27       48 </v>
   <v type="int" >       12       24       26       27       48 </v>
   <v type="int" >       12       24       26       47       48 </v>
   <v type="int" >       12       24       25       46       48 </v>
   <v type="int" >       12       24       45       46       48 </v>
   <v type="int" >       12       24       45       47       48 </v>
   <v type="int" >       12       21       22       25       46 </v>
   <v type="int" >       12       21       24       25       46 </v>
   <v type="int" >       12       21       24       45       46 </v>
   <v type="int" >       12       21       22       43       46 </v>
   <v type="int" >       12       21       42       43       46 </v>
   <v type="int" >       12       21       42       45       46 </v>
   <v type="int" >       12       17       18       22       43 </v>
   <v type="int" >       12       17       21       22       43 </v>
   <v type="int" >       12       17       21       42       43 </v>
   <v type="int" >       12       17       18       39       43 </v>
   <v type="int" >       12       17       38       39       43 </v>
   <v type="int" >       12       17       38       42       43 </v>
   <v type="int" >       12       12       13       18       39 </v>
   <v type="int" >       12       12       17       18       39 </v>
   <v type="int" >       12       12       17       38       39 </v>
   <v type="int" >       12       12       13       34       39 </v>
   <v type="int" >       12       12       33       34       39 </v>
   <v type="int" >       12       12       33       38       39 </v>
   <v type="int" >       12        6        7       13       34 </v>
   <v type="int" >       12        6       12       13       34 </v>
   <v type="int" >       12        6       12       33       34 </v>
   <v type="int" >       12       23       24       26       47 </v>
   <v type="int" >       12       23       24       45       47 </v>
   <v type="int" >       12       23       44       45       47 </v>
   <v type="int" >       12       20       21       24       45 </v>
   <v type="int" >       12       20       23       24       45 </v>
   <v type="int" >       12       20       23       44       45 </v>
   <v type="int" >       12       20       21       42       45 </v>
   <v type="int" >       12       20       41       42       45 </v>
   <v type="int" >       12       20       41       44       45 </v>
   <v type="int" >       12       16       17       21       42 </v>
   <v type="int" >       12       16       20       21       42 </v>
   <v type="int" >       12       16       20       41       42 </v>
   <v type="int" >       12       16       17       38       42 </v>
   <v type="int" >       12       16       37       38       42 </v>
   <v type="int" >       12       16       37       41       42 </v>
   <v type="int" >       12       11       12       17       38 </v>
   <v type="int" >       12       11       16       17       38 </v>
   <v type="int" >       12       11       16       37       38 </v>
   <v type="int" >       12       11       12       33       38 </v>
   <v type="int" >       12       11       32       33       38 </v>
   <v type="int" >       12       11       32       37       38 </v>
   <v type="int" >       12        5        6       12       33 </v>
   <v type="int" >       12        5       11       12       33 </v>
   <v type="int" >       12        5       11       32       33 </v>
   <v type="int" >       12       19       20       23       44 </v>
   <v type="int" >       12       19       20       41       44 </v>
   <v type="int" >       12       19       40       41       44 </v>
   <v type="int" >       12       15       16       20       41 </v>
   <v type="int" >       12       15       19       20       41 </v>
   <v type="int" >       12       15       19       40       41 </v>
   <v type="int" >       12       15       16       37       41 </v>
   <v type="int" >       12       15       36       37       41 </v>
   <v type="int" >       12       15       36       40       41 </v>
   <v type="int" >       12       10       11       16       37 </v>
   <v type="int" >       12       10       15       16       37 </v>
   <v type="int" >       12       10       15       36       37 </v>
   <v type="int" >       12       10       11       32       37 </v>
   <v type="int" >       12       10       31       32       37 </v>
   <v type="int" >       12       10       31       36       37 </v>
   <v type="int" >       12        4        5       11       32 </v>
   <v type="int" >       12        4       10       11       32 </v>
   <v type="int" >       12        4       10       31       32 </v>
   <v type="int" >       12       14       15       19       40 </v>
   <v type="int" >       12       14       15       36       40 </v>
   <v type="int" >       12       14       35       36       40 </v>
   <v type="int" >       12        9       10       15       36 </v>
   <v type="int" >       12        9       14       15       36 </v>
   <v type="int" >       12        9       14       35       36 </v>
   <v type="int" >       12        9       10       31       36 </v>
   <v type="int" >       12        9       30       31       36 </v>
   <v type="int" >       12        9       30       35       36 </v>
   <v type="int" >       12        3        4       10       31 </v>
   <v type="int" >       12        3        9       10       31 </v>
   <v type="int" >       12        3        9       30       31 </v>
   <v type="int" >       12        8        9       14       35 </v>
   <v type="int" >       12        8        9       30       35 </v>
   <v type="int" >       12        8       29       30       35 </v>
   <v type="int" >       12        2        3        9       30 </v>
   <v type="int" >       12        2        8        9       30 </v>
   <v type="int" >       12        2        8       29       30 </v>
   <v type="int" >       12        1        2        8       29 </v>
   <v type="int" >       12       29       30       30       35 </v>
   <v type="int" >       12       30       30       35       35 </v>
   <v type="int" >       12       30       35       35       50 </v>
   <v type="int" >       12       30       31       35       36 </v>
   <v type="int" >       12       30       35       35       36 </v>
   <v type="int" >       12       35       35       36       50 </v>
   <v type="int" >       12       31       35       36       36 </v>
   <v type="int" >       24       35       36       36       51 </v>
   <v type="int" >       24       35       36       50       51 </v>
   <v type="int" >       12       31       32       36       37 </v>
   <v type="int" >       12       31       36       36       37 </v>
   <v type="int" >       12       36       36       37       51 </v>
   <v type="int" >       12       32       36       37       37 </v>
   <v type="int" >       12       36       37       37       52 </v>
   <v type="int" >       12       36       37       51       52 </v>
   <v type="int" >       12       32       33       37       38 </v>
   <v type="int" >       12       32       37       37       38 </v>
   <v type="int" >       12       37       37       38       52 </v>
   <v type="int" >       12       33       37       38       38 </v>
   <v type="int" >       12       37       38       38       53 </v>
   <v type="int" >       12       37       38       52       53 </v>
   <v type="int" >       12       33       34       38       39 </v>
   <v type="int" >       12       33       38       38       39 </v>
   <v type="int" >       12       38       38       39       53 </v>
   <v type="int" >       12       34       38       39       39 </v>
   <v type="int" >       12       38       39       39       54 </v>
   <v type="int" >       12       38       39       53       54 </v>
   <v type="int" >       12       35       36       40       50 </v>
   <v type="int" >       12       36       40       50       51 </v>
   <v type="int" >       12       40       50       51       55 </v>
   <v type="int" >       12       36       37       41       51 </v>
   <v type="int" >       12       36       40       41       51 </v>
   <v type="int" >       12       40       41       51       55 </v>
   <v type="int" >       12       37       41       51       52 </v>
   <v type="int" >       12       41       51       52       56 </v>
   <v type="int" >       12       41       51       55       56 </v>
   <v type="int" >       12       37       38       42       52 </v>
   <v type="int" >       12       37       41       42       52 </v>
   <v type="int" >       12       41       42       52       56 </v>
   <v type="int" >       12       38       42       52       53 </v>
   <v type="int" >       12       42       52       53       57 </v>
   <v type="int" >       12       42       52       56       57 </v>
   <v type="int" >       12       38       39       43       53 </v>
   <v type="int" >       12       38       42       43       53 </v>
   <v type="int" >       12       42       43       53       57 </v>
   <v type="int" >       12       39       43       53       54 </v>
   <v type="int" >       12       43       53       54       58 </v>
   <v type="int" >       12       43       53       57       58 </v>
   <v type="int" >       12       38       39       42       54 </v>
   <v type="int" >       12       39       42       43       54 </v>
   <v type="int" >       12       42       43       54       58 </v>
   <v type="int" >       12       38       42       53       54 </v>
   <v type="int" >       12       42       53       54       57 </v>
   <v type="int" >       12       42       54       57       58 </v>
   <v type="int" >       12       37       38       41       53 </v>
   <v type="int" >       12       38       41       42       53 </v>
   <v type="int" >       12       41       42       53       57 </v>
   <v type="int" >       12       37       41       52       53 </v>
   <v type="int" >       12       41       52       53       56 </v>
   <v type="int" >       12       41       53       56       57 </v>
   <v type="int" >       12       36       37       40       52 </v>
   <v type="int" >       12       37       40       41       52 </v>
   <v type="int" >       12       40       41       52       56 </v>
   <v type="int" >       12       36       40       51       52 </v>
   <v type="int" >       12       40       51       52       55 </v>
   <v type="int" >       12       40       52       55       56 </v>
   <v type="int" >       12       36       36       40       51 </v>
   <v type="int" >       12       36       40       51       55 </v>
   <v type="int" >       12       36       50       51       51 </v>
   <v type="int" >       12       36       51       51       55 </v>
   <v type="int" >       12       30       31       35       50 </v>
   <v type="int" >       12       31       35       36       50 </v>
   <v type="int" >       12       31       36       50       51 </v>
   <v type="int" >       12       40       41       44       55 </v>
   <v type="int" >       12       41       44       55       56 </v>
   <v type="int" >       12       44       55       56       59 </v>
   <v type="int" >       12       41       42       45       56 </v>
   <v type="int" >       12       41       44       45       56 </v>
   <v type="int" >       12       44       45       56       59 </v>
   <v type="int" >       12       42       45       56       57 </v>
   <v type="int" >       12       45       56       57       60 </v>
   <v type="int" >       12       45       56       59       60 </v>
   <v type="int" >       12       42       43       46       57 </v>
   <v type="int" >       12       42       45       46       57 </v>
   <v type="int" >       12       45       46       57       60 </v>
   <v type="int" >       12       43       46       57       58 </v>
   <v type="int" >       12       46       57       58       61 </v>
   <v type="int" >       12       46       57       60       61 </v>
   <v type="int" >       12       42       43       45       58 </v>
   <v type="int" >       12       43       45       46       58 </v>
   <v type="int" >       12       45       46       58       61 </v>
   <v type="int" >       12       42       45       57       58 </v>
   <v type="int" >       12       45       57       58       60 </v>
   <v type="int" >       12       45       58       60       61 </v>
   <v type="int" >       12       41       42       44       57 </v>
   <v type="int" >       12       42       44       45       57 </v>
   <v type="int" >       12       44       45       57       60 </v>
   <v type="int" >       12       41       44       56       57 </v>
   <v type="int" >       12       44       56       57       59 </v>
   <v type="int" >       12       44       57       59       60 </v>
   <v type="int" >       12       40       41       41       56 </v>
   <v type="int" >       12       41       41       44       56 </v>
   <v type="int" >       12       41       44       56       59 </v>
   <v type="int" >       12       40       41       55       56 </v>
   <v type="int" >       12       41       55       56       56 </v>
   <v type="int" >       12       41       56       56       59 </v>
   <v type="int" >       12       36       37       40       55 </v>
   <v type="int" >       12       37       40       41       55 </v>
   <v type="int" >       12       37       41       55       56 </v>
   <v type="int" >       12       36       37       51       55 </v>
   <v type="int" >       12       37       51       52       55 </v>
   <v type="int" >       12       37       52       55       56 </v>
   <v type="int" >       12       31       32       36       51 </v>
   <v type="int" >       12       32       36       37       51 </v>
   <v type="int" >       12       32       37       51       52 </v>
   <v type="int" >       12       44       45       47       59 </v>
   <v type="int" >       12       45       47       59       60 </v>
   <v type="int" >       12       47       59       60       62 </v>
   <v type="int" >       12       45       46       48       60 </v>
   <v type="int" >       12       45       47       48       60 </v>
   <v type="int" >       12       47       48       60       62 </v>
   <v type="int" >       12       46       48       60       61 </v>
   <v type="int" >       12       48       60       61       63 </v>
   <v type="int" >       12       48       60       62       63 </v>
   <v type="int" >       12       45       46       47       61 </v>
   <v type="int" >       12       46       47       48       61 </v>
   <v type="int" >       12       47       48       61       63 </v>
   <v type="int" >       12       45       47       60       61 </v>
   <v type="int" >       12       47       60       61       62 </v>
   <v type="int" >       12       47       61       62       63 </v>
   <v type="int" >       12       44       45       45       60 </v>
   <v type="int" >       12       45       45       47       60 </v>
   <v type="int" >       12       45       47       60       62 </v>
   <v type="int" >       12       44       45       59       60 </v>
   <v type="int" >       12       45       59       60       60 </v>
   <v type="int" >       12       45       60       60       62 </v>
   <v type="int" >       12       41       42       44       59 </v>
   <v type="int" >       12       42       44       45       59 </v>
   <v type="int" >       12       42       45       59       60 </v>
   <v type="int" >       12       41       42       56       59 </v>
   <v type="int" >       12       42       56       57       59 </v>
   <v type="int" >       12       42       57       59       60 </v>
   <v type="int" >       12       37       38       41       56 </v>
   <v type="int" >       12       38       41       42       56 </v>
   <v type="int" >       12       38       42       56       57 </v>
   <v type="int" >       12       37       38       52       56 </v>
   <v type="int" >       12       38       52       53       56 </v>
   <v type="int" >       12       38       53       56       57 </v>
   <v type="int" >       12       32       33       37       52 </v>
   <v type="int" >       12       33       37       38       52 </v>
   <v type="int" >       12       33       38       52       53 </v>
   <v type="int" >       12       47       48       49       62 </v>
   <v type="int" >       12       48       49       62       63 </v>
   <v type="int" >       12       49       62       63       64 </v>
   <v type="int" >       12       47       48       48       63 </v>
   <v type="int" >       12       48       48       49       63 </v>
   <v type="int" >       12       48       49       63       64 </v>
   <v type="int" >       12       47       48       62       63 </v>
   <v type="int" >       12       48       62       63       63 </v>
   <v type="int" >       12       48       63       63       64 </v>
   <v type="int" >       12       45       46       47       62 </v>
   <v type="int" >       12       46       47       48       62 </v>
   <v type="int" >       12       46       48       62       63 </v>
   <v type="int" >       12       45       46       60       62 </v>
   <v type="int" >       12       46       60       61       62 </v>
   <v type="int" >       12       46       61       62       63 </v>
   <v type="int" >       12       42       43       45       60 </v>
   <v type="int" >       12       43       45       46       60 </v>
   <v type="int" >       12       43       46       60       61 </v>
   <v type="int" >       12       42       43       57       60 </v>
   <v type="int" >       12       43       57       58       60 </v>
   <v type="int" >       12       43       58       60       61 </v>
   <v type="int" >       12       38       39       42       57 </v>
   <v type="int" >       12       39       42       43       57 </v>
   <v type="int" >       12       39       43       57       58 </v>
   <v type="int" >       12       38       39       53       57 </v>
   <v type="int" >       12       39       53       54       57 </v>
   <v type="int" >       12       39       54       57       58 </v>
   <v type="int" >       12       33       34       38       53 </v>
   <v type="int" >       12       34       38       39       53 </v>
   <v type="int" >       12       34       39       53       54 </v>
   <v type="int" >       12       47       48       49       64 </v>
   <v type="int" >       12       47       48       63       64 </v>
   <v type="int" >       12       47       62       63       64 </v>
   <v type="int" >       12       45       46       48       63 </v>
   <v type="int" >       12       45       47       48       63 </v>
   <v type="int" >       12       45       47       62       63 </v>
   <v type="int" >       12       45       46       61       63 </v>
   <v type="int" >       12       45       60       61       63 </v>
   <v type="int" >       12       45       60       62       63 </v>
   <v type="int" >       12       42       43       46       61 </v>
   <v type="int" >       12       42       45       46       61 </v>
   <v type="int" >       12       42       45       60       61 </v>
   <v type="int" >       12       42       43       58       61 </v>
   <v type="int" >       12       42       57       58       61 </v>
   <v type="int" >       12       42       57       60       61 </v>
   <v type="int" >       12       38       39       43       58 </v>
   <v type="int" >       12       38       42       43       58 </v>
   <v type="int" >       12       38       42       57       58 </v>
   <v type="int" >       12       38       39       54       58 </v>
   <v type="int" >       12       38       53       54       58 </v>
   <v type="int" >       12       38       53       57       58 </v>
   <v type="int" >       12       33       34       39       54 </v>
   <v type="int" >       12       33       38       39       54 </v>
   <v type="int" >       12       33       38       53       54 </v>
   <v type="int" >       12       44       45       47       62 </v>
   <v type="int" >       12       44       45       60       62 </v>
   <v type="int" >       12       44       59       60       62 </v>
   <v type="int" >       12       41       42       45       60 </v>
   <v type="int" >       12       41       44       45       60 </v>
   <v type="int" >       12       41       44       59       60 </v>
   <v type="int" >       12       41       42       57       60 </v>
   <v type="int" >       12       41       56       57       60 </v>
   <v type="int" >       12       41       56       59       60 </v>
   <v type="int" >       12       37       38       42       57 </v>
   <v type="int" >       12       37       41       42       57 </v>
   <v type="int" >       12       37       41       56       57 </v>
   <v type="int" >       12       37       38       53       57 </v>
   <v type="int" >       12       37       52       53       57 </v>
   <v type="int" >       12       37       52       56       57 </v>
   <v type="int" >       12       32       33       38       53 </v>
   <v type="int" >       12       32       37       38       53 </v>
   <v type="int" >       12       32       37       52       53 </v>
   <v type="int" >       12       40       41       44       59 </v>
   <v type="int" >       12       40       41       56       59 </v>
   <v type="int" >       12       40       55       56       59 </v>
   <v type="int" >       12       36       37       41       56 </v>
   <v type="int" >       12       36       40       41       56 </v>
   <v type="int" >       12       36       40       55       56 </v>
   <v type="int" >       12       36       37       52       56 </v>
   <v type="int" >       12       36       51       52       56 </v>
   <v type="int" >       12       36       51       55       56 </v>
   <v type="int" >       12       31       32       37       52 </v>
   <v type="int" >       12       31       36       37       52 </v>
   <v type="int" >       12       31       36       51       52 </v>
   <v type="int" >       12       35       36       40       55 </v>
   <v type="int" >       12       35       36       51       55 </v>
   <v type="int" >       12       35       50       51       55 </v>
   <v type="int" >       12       30       31       36       51 </v>
   <v type="int" >       12       30       35       36       51 </v>
   <v type="int" >       12       30       35       50       51 </v>
   <v type="int" >       12       29       30       35       50 </v>
   <v type="int" >       12       50       51       51       55 </v>
   <v type="int" >       12       51       51       55       55 </v>
   <v type="int" >       12       51       55       55       65 </v>
   <v type="int" >       12       51       52       55       56 </v>
   <v type="int" >       12       51       55       55       56 </v>
   <v type="int" >       12       55       55       56       65 </v>
   <v type="int" >       12       52       55       56       56 </v>
   <v type="int" >       24       55       56       56       66 </v>
   <v type="int" >       24       55       56       65       66 </v>
   <v type="int" >       12       52       53       56       57 </v>
   <v type="int" >       12       52       56       56       57 </v>
   <v type="int" >       12       56       56       57       66 </v>
   <v type="int" >       12       53       56       57       57 </v>
   <v type="int" >       12       56       57       57       67 </v>
   <v type="int" >       12       56       57       66       67 </v>
   <v type="int" >       12       53       54       57       58 </v>
   <v type="int" >       12       53       57       57       58 </v>
   <v type="int" >       12       57       57       58       67 </v>
   <v type="int" >       12       54       57       58       58 </v>
   <v type="int" >       12       57       58       58       68 </v>
   <v type="int" >       12       57       58       67       68 </v>
   <v type="int" >       12       55       56       59       65 </v>
   <v type="int" >       12       56       59       65       66 </v>
   <v type="int" >       12       59       65       66       69 </v>
   <v type="int" >       12       56       57       60       66 </v>
   <v type="int" >       12       56       59       60       66 </v>
   <v type="int" >       12       59       60       66       69 </v>
   <v type="int" >       12       57       60       66       67 </v>
   <v type="int" >       12       60       66       67       70 </v>
   <v type="int" >       12       60       66       69       70 </v>
   <v type="int" >       12       57       58       61       67 </v>
   <v type="int" >       12       57       60       61       67 </v>
   <v type="int" >       12       60       61       67       70 </v>
   <v type="int" >       12       58       61       67       68 </v>
   <v type="int" >       12       61       67       68       71 </v>
   <v type="int" >       12       61       67       70       71 </v>
   <v type="int" >       12       57       58       60       68 </v>
   <v type="int" >       12       58       60       61       68 </v>
   <v type="int" >       12       60       61       68       71 </v>
   <v type="int" >       12       57       60       67       68 </v>
   <v type="int" >       12       60       67       68       70 </v>
   <v type="int" >       12       60       68       70       71 </v>
   <v type="int" >       12       56       57       59       67 </v>
   <v type="int" >       12       57       59       60       67 </v>
   <v type="int" >       12       59       60       67       70 </v>
   <v type="int" >       12       56       59       66       67 </v>
   <v type="int" >       12       59       66       67       69 </v>
   <v type="int" >       12       59       67       69       70 </v>
   <v type="int" >       12       56       56       59       66 </v>
   <v type="int" >       12       56       59       66       69 </v>
   <v type="int" >       12       56       65       66       66 </v>
   <v type="int" >       12       56       66       66       69 </v>
   <v type="int" >       12       51       52       55       65 </v>
   <v type="int" >       12       52       55       56       65 </v>
   <v type="int" >       12       52       56       65       66 </v>
   <v type="int" >       12       59       60       62       69 </v>
   <v type="int" >       12       60       62       69       70 </v>
   <v type="int" >       12       62       69       70       72 </v>
   <v type="int" >       12       60       61       63       70 </v>
   <v type="int" >       12       60       62       63       70 </v>
   <v type="int" >       12       62       63       70       72 </v>
   <v type="int" >       12       61       63       70       71 </v>
   <v type="int" >       12       63       70       71       73 </v>
   <v type="int" >       12       63       70       72       73 </v>
   <v type="int" >       12       60       61       62       71 </v>
   <v type="int" >       12       61       62       63       71 </v>
   <v type="int" >       12       62       63       71       73 </v>
   <v type="int" >       12       60       62       70       71 </v>
   <v type="int" >       12       62       70       71       72 </v>
   <v type="int" >       12       62       71       72       73 </v>
   <v type="int" >       12       59       60       60       70 </v>
   <v type="int" >       12       60       60       62       70 </v>
   <v type="int" >       12       60       62       70       72 </v>
   <v type="int" >       12       59       60       69       70 </v>
   <v type="int" >       12       60       69       70       70 </v>
   <v type="int" >       12       60       70       70       72 </v>
   <v type="int" >       12       56       57       59       69 </v>
   <v type="int" >       12       57       59       60       69 </v>
   <v type="int" >       12       57       60       69       70 </v>
   <v type="int" >       12       56       57       66       69 </v>
   <v type="int" >       12       57       66       67       69 </v>
   <v type="int" >       12       57       67       69       70 </v>
   <v type="int" >       12       52       53       56       66 </v>
   <v type="int" >       12       53       56       57       66 </v>
   <v type="int" >       12       53       57       66       67 </v>
   <v type="int" >       12       62       63       64       72 </v>
   <v type="int" >       12       63       64       72       73 </v>
   <v type="int" >       12       64       72       73       74 </v>
   <v type="int" >       12       62       63       63       73 </v>
   <v type="int" >       12       63       63       64       73 </v>
   <v type="int" >       12       63       64       73       74 </v>
   <v type="int" >       12       62       63       72       73 </v>
   <v type="int" >       12       63       72       73       73 </v>
   <v type="int" >       12       63       73       73       74 </v>
   <v type="int" >       12       60       61       62       72 </v>
   <v type="int" >       12       61       62       63       72 </v>
   <v type="int" >       12       61       63       72       73 </v>
   <v type="int" >       12       60       61       70       72 </v>
   <v type="int" >       12       61       70       71       72 </v>
   <v type="int" >       12       61       71       72       73 </v>
   <v type="int" >       12       57       58       60       70 </v>
   <v type="int" >       12       58       60       61       70 </v>
   <v type="int" >       12       58       61       70       71 </v>
   <v type="int" >       12       57       58       67       70 </v>
   <v type="int" >       12       58       67       68       70 </v>
   <v type="int" >       12       58       68       70       71 </v>
   <v type="int" >       12       53       54       57       67 </v>
   <v type="int" >       12       54       57       58       67 </v>
   <v type="int" >       12       54       58       67       68 </v>
   <v type="int" >       12       62       63       64       74 </v>
   <v type="int" >       12       62       63       73       74 </v>
   <v type="int" >       12       62       72       73       74 </v>
   <v type="int" >       12       60       61       63       73 </v>
   <v type="int" >       12       60       62       63       73 </v>
   <v type="int" >       12       60       62       72       73 </v>
   <v type="int" >       12       60       61       71       73 </v>
   <v type="int" >       12       60       70       71       73 </v>
   <v type="int" >       12       60       70       72       73 </v>
   <v type="int" >       12       57       58       61       71 </v>
   <v type="int" >       12       57       60       61       71 </v>
   <v type="int" >       12       57       60       70       71 </v>
   <v type="int" >       12       57       58       68       71 </v>
   <v type="int" >       12       57       67       68       71 </v>
   <v type="int" >       12       57       67       70       71 </v>
   <v type="int" >       12       53       54       58       68 </v>
   <v type="int" >       12       53       57       58       68 </v>
   <v type="int" >       12       53       57       67       68 </v>
   <v type="int" >       12       59       60       62       72 </v>
   <v type="int" >       12       59       60       70       72 </v>
   <v type="int" >       12       59       69       70       72 </v>
   <v type="int" >       12       56       57       60       70 </v>
   <v type="int" >       12       56       59       60       70 </v>
   <v type="int" >       12       56       59       69       70 </v>
   <v type="int" >       12       56       57       67       70 </v>
   <v type="int" >       12       56       66       67       70 </v>
   <v type="int" >       12       56       66       69       70 </v>
   <v type="int" >       12       52       53       57       67 </v>
   <v type="int" >       12       52       56       57       67 </v>
   <v type="int" >       12       52       56       66       67 </v>
   <v type="int" >       12       55       56       59       69 </v>
   <v type="int" >       12       55       56       66       69 </v>
   <v type="int" >       12       55       65       66       69 </v>
   <v type="int" >       12       51       52       56       66 </v>
   <v type="int" >       12       51       55       56       66 </v>
   <v type="int" >       12       51       55       65       66 </v>
   <v type="int" >       12       50       51       55       65 </v>
   <v type="int" >       12       65       66       66       69 </v>
   <v type="int" >       12       66       66       69       69 </v>
   <v type="int" >       12       66       69       69       75 </v>
   <v type="int" >       12       66       67       69       70 </v>
   <v type="int" >       12       66       69       69       70 </v>
   <v type="int" >       12       69       69       70       75 </v>
   <v type="int" >       12       67       69       70       70 </v>
   <v type="int" >       24       69       70       70       76 </v>
   <v type="int" >       24       69       70       75       76 </v>
   <v type="int" >       12       67       68       70       71 </v>
   <v type="int" >       12       67       70       70       71 </v>
   <v type="int" >       12       70       70       71       76 </v>
   <v type="int" >       12       68       70       71       71 </v>
   <v type="int" >       12       70       71       71       77 </v>
   <v type="int" >       12       70       71       76       77 </v>
   <v type="int" >       12       69       70       72       75 </v>
   <v type="int" >       12       70       72       75       76 </v>
   <v type="int" >       12       72       75       76       78 </v>
   <v type="int" >       12       70       71       73       76 </v>
   <v type="int" >       12       70       72       73       76 </v>
   <v type="int" >       12       72       73       76       78 </v>
   <v type="int" >       12       71       73       76       77 </v>
   <v type="int" >       12       73       76       77       79 </v>
   <v type="int" >       12       73       76       78       79 </v>
   <v type="int" >       12       70       71       72       77 </v>
   <v type="int" >       12       71       72       73       77 </v>
   <v type="int" >       12       72       73       77       79 </v>
   <v type="int" >       12       70       72       76       77 </v>
   <v type="int" >       12       72       76       77       78 </v>
   <v type="int" >       12       72       77       78       79 </v>
   <v type="int" >       12       70       70       72       76 </v>
   <v type="int" >       12       70       72       76       78 </v>
   <v type="int" >       12       70       75       76       76 </v>
   <v type="int" >       12       70       76       76       78 </v>
   <v type="int" >       12       66       67       69       75 </v>
   <v type="int" >       12       67       69       70       75 </v>
   <v type="int" >       12       67       70       75       76 </v>
   <v type="int" >       12       72       73       74       78 </v>
   <v type="int" >       12       73       74       78       79 </v>
   <v type="int" >       12       74       78       79       80 </v>
   <v type="int" >       12       72       73       73       79 </v>
   <v type="int" >       12       73       73       74       79 </v>
   <v type="int" >       12       73       74       79       80 </v>
   <v type="int" >       12       72       73       78       79 </v>
   <v type="int" >       12       73       78       79       79 </v>
   <v type="int" >       12       73       79       79       80 </v>
   <v type="int" >       12       70       71       72       78 </v>
   <v type="int" >       12       71       72       73       78 </v>
   <v type="int" >       12       71       73       78       79 </v>
   <v type="int" >       12       70       71       76       78 </v>
   <v type="int" >       12       71       76       77       78 </v>
   <v type="int" >       12       71       77       78       79 </v>
   <v type="int" >       12       67       68       70       76 </v>
   <v type="int" >       12       68       70       71       76 </v>
   <v type="int" >       12       68       71       76       77 </v>
   <v type="int" >       12       72       73       74       80 </v>
   <v type="int" >       12       72       73       79       80 </v>
   <v type="int" >       12       72       78       79       80 </v>
   <v type="int" >       12       70       71       73       79 </v>
   <v type="int" >       12       70       72       73       79 </v>
   <v type="int" >       12       70       72       78       79 </v>
   <v type="int" >       12       70       71       77       79 </v>
   <v type="int" >       12       70       76       77       79 </v>
   <v type="int" >       12       70       76       78       79 </v>
   <v type="int" >       12       67       68       71       77 </v>
   <v type="int" >       12       67       70       71       77 </v>
   <v type="int" >       12       67       70       76       77 </v>
   <v type="int" >       12       69       70       72       78 </v>
   <v type="int" >       12       69       70       76       78 </v>
   <v type="int" >       12       69       75       76       78 </v>
   <v type="int" >       12       66       67       70       76 </v>
   <v type="int" >       12       66       69       70       76 </v>
   <v type="int" >       12       66       69       75       76 </v>
   <v type="int" >       12       65       66       69       75 </v>
   <v type="int" >       12       75       76       76       78 </v>
   <v type="int" >       12       76       76       78       78 </v>
   <v type="int" >       12       76       78       78       81 </v>
   <v type="int" >       12       76       77       78       79 </v>
   <v type="int" >       12       76       78       78       79 </v>
   <v type="int" >       12       78       78       79       81 </v>
   <v type="int" >       12       77       78       79       79 </v>
   <v type="int" >       24       78       79       79       82 </v>
   <v type="int" >       24       78       79       81       82 </v>
   <v type="int" >       12       78       79       80       81 </v>
   <v type="int" >       12       79       80       81       82 </v>
   <v type="int" >       12       80       81       82       83 </v>
   <v type="int" >       12       79       79       80       82 </v>
   <v type="int" >       12       79       80       82       83 </v>
   <v type="int" >       12       79       81       82       82 </v>
   <v type="int" >       12       79       82       82       83 </v>
   <v type="int" >       12       76       77       78       81 </v>
   <v type="int" >       12       77       78       79       81 </v>
   <v type="int" >       12       77       79       81       82 </v>
   <v type="int" >       12       78       79       80       83 </v>
   <v type="int" >       12       78       79       82       83 </v>
   <v type="int" >       12       78       81       82       83 </v>
   <v type="int" >       12       76       77       79       82 </v>
   <v type="int" >       12       76       78       79       82 </v>
   <v type="int" >       12       76       78       81       82 </v>
   <v type="int" >       12       75       76       78       81 </v>
   <v type="int" >       12       81       82       82       83 </v>
   <v type="int" >       12       82       82       83       83 </v>
   <v type="int" >       12       82       83       83       84 </v>
   <v type="int" >       12       81       82       83       84 </v>
  </varray>
  <i name="volumeweight">      0.00009645 </i>
 </kpoints>
 <parameters>
  <separator name="general" >
   <i type="string" name="SYSTEM">unknown system</i>
   <i type="logical" name="LCOMPAT"> F  </i>
  </separator>
  <separator name="electronic" >
   <i type="string" name="PREC">accura</i>
   <i name="ENMAX">    400.00000000</i>
   <i name="ENAUG">    644.87300000</i>
   <i name="EDIFF">      0.00000100</i>
   <i type="int" name="IALGO">    38</i>
   <i type="int" name="IWAVPR">    10</i>
   <i type="int" name="NBANDS">    24</i>
   <i name="NELECT">     32.00000000</i>
   <i type="int" name="TURBO">     0</i>
   <i type="int" name="IRESTART">     0</i>
   <i type="int" name="NREBOOT">     0</i>
   <i type="int" name="NMIN">     0</i>
   <i name="EREF">      0.00000000</i>
   <separator name="electronic smearing" >
    <i type="int" name="ISMEAR">    -5</i>
    <i name="SIGMA">      0.06000000</i>
    <i name="KSPACING">      0.50000000</i>
    <i type="logical" name="KGAMMA"> T  </i>
   </separator>
   <separator name="electronic projectors" >
    <i type="logical" name="LREAL"> F  </i>
    <v name="ROPT">      0.00000000</v>
    <i type="int" name="LMAXPAW">  -100</i>
    <i type="int" name="LMAXMIX">     2</i>
    <i type="logical" name="NLSPLINE"> F  </i>
   </separator>
   <separator name="electronic startup" >
    <i type="int" name="ISTART">     0</i>
    <i type="int" name="ICHARG">     2</i>
    <i type="int" name="INIWAV">     1</i>
   </separator>
   <separator name="electronic spin" >
    <i type="int" name="ISPIN">     1</i>
    <i type="logical" name="LNONCOLLINEAR"> F  </i>
    <v name="MAGMOM">      1.00000000      1.00000000      1.00000000      1.00000000      1.00000000      1.00000000      1.00000000      1.00000000</v>
    <i name="NUPDOWN">     -1.00000000</i>
    <i type="logical" name="LSORBIT"> F  </i>
    <v name="SAXIS">      0.00000000      0.00000000      1.00000000</v>
    <i type="logical" name="LSPIRAL"> F  </i>
    <v name="QSPIRAL">      0.00000000      0.00000000      0.00000000</v>
    <i type="logical" name="LZEROZ"> F  </i>
   </separator>
   <separator name="electronic exchange-correlation" >
    <i type="logical" name="LASPH"> F  </i>
    <i type="logical" name="LMETAGGA"> F  </i>
   </separator>
   <separator name="electronic convergence" >
    <i type="int" name="NELM">    60</i>
    <i type="int" name="NELMDL">    -5</i>
    <i type="int" name="NELMIN">     2</i>
    <i name="ENINI">    400.00000000</i>
    <separator name="electronic convergence detail" >
     <i type="logical" name="LDIAG"> T  </i>
     <i type="logical" name="LSUBROT"> F  </i>
     <i name="WEIMIN">      0.00000000</i>
     <i name="EBREAK">      0.00000001</i>
     <i name="DEPER">      0.30000000</i>
     <i type="int" name="NRMM">     4</i>
     <i name="TIME">      0.40000000</i>
    </separator>
   </separator>
   <separator name="electronic mixer" >
    <i name="AMIX">      0.40000000</i>
    <i name="BMIX">      1.00000000</i>
    <i name="AMIN">      0.10000000</i>
    <i name="AMIX_MAG">      1.60000000</i>
    <i name="BMIX_MAG">      1.00000000</i>
    <separator name="electronic mixer details" >
     <i type="int" name="IMIX">     4</i>
     <i type="logical" name="MIXFIRST"> F  </i>
     <i type="int" name="MAXMIX">   -45</i>
     <i name="WC">    100.00000000</i>
     <i type="int" name="INIMIX">     1</i>
     <i type="int" name="MIXPRE">     1</i>
     <i type="int" name="MREMOVE">     5</i>
    </separator>
   </separator>
   <separator name="electronic dipolcorrection" >
    <i type="logical" name="LDIPOL"> F  </i>
    <i type="logical" name="LMONO"> F  </i>
    <i type="int" name="IDIPOL">     0</i>
    <i name="EPSILON">      1.00000000</i>
    <v name="DIPOL">   -100.00000000   -100.00000000   -100.00000000</v>
    <i name="EFIELD">      0.00000000</i>
   </separator>
  </separator>
  <separator name="grids" >
   <i type="int" name="NGX">    24</i>
   <i type="int" name="NGY">    24</i>
   <i type="int" name="NGZ">    24</i>
   <i type="int" name="NGXF">    48</i>
   <i type="int" name="NGYF">    48</i>
   <i type="int" name="NGZF">    48</i>
   <i type="logical" name="ADDGRID"> F  </i>
  </separator>
  <separator name="ionic" >
   <i type="int" name="NSW">     0</i>
   <i type="int" name="IBRION">    -1</i>
   <i type="int" name="MDALGO">     0</i>
   <i type="int" name="ISIF">     2</i>
   <i name="PSTRESS">      0.00000000</i>
   <i name="EDIFFG">      0.00001000</i>
   <i type="int" name="NFREE">     0</i>
   <i name="POTIM">      0.02000000</i>
   <i name="SMASS">     -3.00000000</i>
   <i name="SCALEE">      1.00000000</i>
  </separator>
  <separator name="ionic md" >
   <i name="TEBEG">      0.00010000</i>
   <i name="TEEND">      0.00010000</i>
   <i type="int" name="NBLOCK">     1</i>
   <i type="int" name="KBLOCK">     1</i>
   <i type="int" name="NPACO">   256</i>
   <i name="APACO">     16.00000000</i>
  </separator>
  <separator name="symmetry" >
   <i type="int" name="ISYM">     2</i>
   <i name="SYMPREC">      0.00001000</i>
  </separator>
  <separator name="dos" >
   <i type="int" name="LORBIT">     0</i>
   <v name="RWIGS">     -1.00000000</v>
   <i type="int" name="NEDOS">   301</i>
   <i name="EMIN">     10.00000000</i>
   <i name="EMAX">    -10.00000000</i>
   <i name="EFERMI">      0.00000000</i>
  </separator>
  <separator name="writing" >
   <i type="int" name="NWRITE">     2</i>
   <i type="logical" name="LWAVE"> F  </i>
   <i type="logical" name="LDOWNSAMPLE"> F  </i>
   <i type="logical" name="LCHARG"> F  </i>
   <i type="logical" name="LPARD"> F  </i>
   <i type="logical" name="LVTOT"> F  </i>
   <i type="logical" name="LVHAR"> F  </i>
   <i type="logical" name="LELF"> F  </i>
   <i type="logical" name="LOPTICS"> F  </i>
   <v name="STM">      0.00000000      0.00000000      0.00000000      0.00000000      0.00000000      0.00000000      0.00000000</v>
  </separator>
  <separator name="performance" >
   <i type="int" name="NPAR">     4</i>
   <i type="int" name="NSIM">     4</i>
   <i type="int" name="NBLK">    -1</i>
   <i type="logical" name="LPLANE"> T  </i>
   <i type="logical" name="LSCALAPACK"> T  </i>
   <i type="logical" name="LSCAAWARE"> F  </i>
   <i type="logical" name="LSCALU"> F  </i>
   <i type="logical" name="LASYNC"> F  </i>
   <i type="logical" name="LORBITALREAL"> F  </i>
  </separator>
  <separator name="miscellaneous" >
   <i type="int" name="IDIOT">     3</i>
   <i type="int" name="ISPECIAL">     0</i>
   <i type="logical" name="LMUSIC"> F  </i>
   <v name="POMASS">     12.01100000</v>
   <v name="DARWINR">      0.00000000</v>
   <v name="DARWINV">      1.00000000</v>
   <i type="logical" name="LCORR"> T  </i>
  </separator>
  <i type="logical" name="GGA_COMPAT"> T  </i>
  <i type="logical" name="LBERRY"> F  </i>
  <i type="int" name="ICORELEVEL">     0</i>
  <i type="logical" name="LDAU"> F  </i>
  <i type="int" name="I_CONSTRAINED_M">     0</i>
  <separator name="electronic exchange-correlation" >
   <i type="string" name="GGA">--</i>
   <i type="int" name="VOSKOWN">     0</i>
   <i type="logical" name="LHFCALC"> F  </i>
   <i type="string" name="PRECFOCK"></i>
   <i type="logical" name="LSYMGRAD"> F  </i>
   <i type="logical" name="LHFONE"> F  </i>
   <i type="logical" name="LRHFCALC"> F  </i>
   <i type="logical" name="LTHOMAS"> F  </i>
   <i type="logical" name="LMODELHF"> F  </i>
   <i name="ENCUT4O">     -1.00000000</i>
   <i type="int" name="EXXOEP">     0</i>
   <i type="int" name="FOURORBIT">     0</i>
   <i name="AEXX">      0.00000000</i>
   <i name="HFALPHA">      0.00000000</i>
   <i name="MCALPHA">      0.00000000</i>
   <i name="ALDAX">      1.00000000</i>
   <i name="AGGAX">      1.00000000</i>
   <i name="ALDAC">      1.00000000</i>
   <i name="AGGAC">      1.00000000</i>
   <i type="int" name="NKREDX">     1</i>
   <i type="int" name="NKREDY">     1</i>
   <i type="int" name="NKREDZ">     1</i>
   <i type="logical" name="SHIFTRED"> F  </i>
   <i type="logical" name="ODDONLY"> F  </i>
   <i type="logical" name="EVENONLY"> F  </i>
   <i type="int" name="LMAXFOCK">     0</i>
   <i type="int" name="NMAXFOCKAE">     0</i>
   <i type="logical" name="LFOCKAEDFT"> F  </i>
   <i name="HFSCREEN">      0.00000000</i>
   <i name="HFSCREENC">      0.00000000</i>
   <i type="int" name="NBANDSGWLOW">     0</i>
  </separator>
  <separator name="vdW DFT" >
   <i type="logical" name="LUSE_VDW"> F  </i>
   <i name="Zab_VDW">     -0.84910000</i>
   <i name="PARAM1">      0.12340000</i>
   <i name="PARAM2">      1.00000000</i>
   <i name="PARAM3">      0.00000000</i>
  </separator>
  <separator name="model GW" >
   <i type="int" name="MODEL_GW">     0</i>
   <i name="MODEL_EPS0">      3.26400698</i>
   <i name="MODEL_ALPHA">      1.00000000</i>
  </separator>
  <separator name="linear response parameters" >
   <i type="logical" name="LEPSILON"> F  </i>
   <i type="logical" name="LRPA"> F  </i>
   <i type="logical" name="LNABLA"> F  </i>
   <i type="logical" name="LVEL"> F  </i>
   <i type="int" name="KINTER">     0</i>
   <i name="CSHIFT">      0.10000000</i>
   <i name="OMEGAMAX">     -1.00000000</i>
   <i name="DEG_THRESHOLD">      0.00200000</i>
   <i name="RTIME">     -0.10000000</i>
   <i name="WPLASMAI">      0.00000000</i>
   <v name="DFIELD">      0.00000000      0.00000000      0.00000000</v>
   <v name="WPLASMA">      0.00000000      0.00000000      0.00000000      0.00000000      0.00000000      0.00000000      0.00000000      0.00000000      0.00000000</v>
  </separator>
  <separator name="orbital magnetization" >
   <i type="logical" name="NUCIND"> F  </i>
   <v name="MAGPOS">      0.00000000      0.00000000      0.00000000</v>
   <i type="logical" name="LNICSALL"> T  </i>
   <i type="logical" name="ORBITALMAG"> F  </i>
   <i type="logical" name="LMAGBLOCH"> F  </i>
   <i type="logical" name="LCHIMAG"> F  </i>
   <i type="logical" name="LGAUGE"> T  </i>
   <i type="int" name="MAGATOM">     0</i>
   <v name="MAGDIPOL">      0.00000000      0.00000000      0.00000000</v>
   <v name="AVECCONST">      0.00000000      0.00000000      0.00000000</v>
  </separator>
  <separator name="response functions" >
   <i type="logical" name="LADDER"> F  </i>
   <i type="logical" name="LRPAFORCE"> F  </i>
   <i type="logical" name="LFXC"> F  </i>
   <i type="logical" name="LHARTREE"> T  </i>
   <i type="int" name="IBSE">     0</i>
   <v type="int" name="KPOINT">    -1     0     0     0</v>
   <i type="logical" name="LTCTE"> F  </i>
   <i type="logical" name="LTETE"> F  </i>
   <i type="logical" name="LTRIPLET"> F  </i>
   <i type="logical" name="LFXCEPS"> F  </i>
   <i type="logical" name="LFXHEG"> F  </i>
   <i type="int" name="NATURALO">     2</i>
   <i type="logical" name="L2ORDER"> F  </i>
   <i type="logical" name="LMP2LT"> F  </i>
   <i type="logical" name="LUSEW"> F  </i>
   <i name="ENCUTGW">     -2.00000000</i>
   <i name="ENCUTGWSOFT">     -2.00000000</i>
[...]
       <r>   -5.7212    1.0000 </r>
       <r>   -5.7212    1.0000 </r>
       <r>   -3.0555    1.0000 </r>
       <r>   -3.0555    1.0000 </r>
       <r>   -3.0555    1.0000 </r>
       <r>   -1.8788    1.0000 </r>
       <r>    6.8090    1.0000 </r>
       <r>    6.8090    1.0000 </r>
       <r>    6.8090    1.0000 </r>
       <r>    7.1014    1.0000 </r>
       <r>    7.1014    1.0000 </r>
       <r>    7.1014    1.0000 </r>
       <r>    7.5932    1.0000 </r>
       <r>    7.5932    1.0000 </r>
       <r>   18.6379    0.0000 </r>
       <r>   18.6379    0.0000 </r>
       <r>   18.6379    0.0000 </r>
       <r>   19.0131    0.0000 </r>
       <r>   19.0131    0.0000 </r>
       <r>   19.6896    0.0000 </r>
       <r>   19.6896    0.0000 </r>
       <r>   19.7027    0.0000 </r>
      </set>
      <set comment="kpoint 82">
       <r>   -6.3244    1.0000 </r>
       <r>   -6.3244    1.0000 </r>
       <r>   -5.5421    1.0000 </r>
       <r>   -5.5421    1.0000 </r>
       <r>   -3.3491    1.0000 </r>
       <r>   -3.3491    1.0000 </r>
       <r>   -2.5824    1.0000 </r>
       <r>   -2.5824    1.0000 </r>
       <r>    6.8967    1.0000 </r>
       <r>    6.8967    1.0000 </r>
       <r>    7.2346    1.0000 </r>
       <r>    7.2346    1.0000 </r>
       <r>    7.3548    1.0000 </r>
       <r>    7.3548    1.0000 </r>
       <r>    7.4165    1.0000 </r>
       <r>    7.4165    1.0000 </r>
       <r>   18.8610    0.0000 </r>
       <r>   18.8610    0.0000 </r>
       <r>   18.9016    0.0000 </r>
       <r>   18.9016    0.0000 </r>
       <r>   19.2723    0.0000 </r>
       <r>   19.2723    0.0000 </r>
       <r>   19.3342    0.0000 </r>
       <r>   19.3342    0.0000 </r>
      </set>
      <set comment="kpoint 83">
       <r>   -5.8393    1.0000 </r>
       <r>   -5.8393    1.0000 </r>
       <r>   -5.8393    1.0000 </r>
       <r>   -5.8393    1.0000 </r>
       <r>   -3.1751    1.0000 </r>
       <r>   -3.1751    1.0000 </r>
       <r>   -3.1751    1.0000 </r>
       <r>   -3.1751    1.0000 </r>
       <r>    7.2347    1.0000 </r>
       <r>    7.2347    1.0000 </r>
       <r>    7.2347    1.0000 </r>
       <r>    7.2347    1.0000 </r>
       <r>    7.4508    1.0000 </r>
       <r>    7.4508    1.0000 </r>
       <r>    7.4508    1.0000 </r>
       <r>    7.4508    1.0000 </r>
       <r>   19.0171    0.0000 </r>
       <r>   19.0171    0.0000 </r>
       <r>   19.0171    0.0000 </r>
       <r>   19.0171    0.0000 </r>
       <r>   19.1163    0.0000 </r>
       <r>   19.1163    0.0000 </r>
       <r>   19.1163    0.0000 </r>
       <r>   19.1163    0.0000 </r>
      </set>
      <set comment="kpoint 84">
       <r>   -5.6582    1.0000 </r>
       <r>   -5.6582    1.0000 </r>
       <r>   -5.6582    1.0000 </r>
       <r>   -5.6582    1.0000 </r>
       <r>   -3.4732    1.0000 </r>
       <r>   -3.4732    1.0000 </r>
       <r>   -3.4732    1.0000 </r>
       <r>   -3.4732    1.0000 </r>
       <r>    7.4659    1.0000 </r>
       <r>    7.4659    1.0000 </r>
       <r>    7.4659    1.0000 </r>
       <r>    7.4659    1.0000 </r>
       <r>    7.4659    1.0000 </r>
       <r>    7.4659    1.0000 </r>
       <r>    7.4659    1.0000 </r>
       <r>    7.4659    1.0000 </r>
       <r>   19.0118    0.0000 </r>
       <r>   19.0118    0.0000 </r>
       <r>   19.0118    0.0000 </r>
       <r>   19.0118    0.0000 </r>
       <r>   19.0118    0.0000 </r>
       <r>   19.0118    0.0000 </r>
       <r>   19.0118    0.0000 </r>
       <r>   19.0118    0.0000 </r>
      </set>
     </set>
    </set>
   </array>
  </eigenvalues>
  <separator name="orbital magnetization" >
   <v name="MAGDIPOLOUT">      0.00000000      0.00000000      0.00000000</v>
  </separator>
  <dos>
   <i name="efermi">     10.39573901 </i>
   <total>
    <array>
     <dimension dim="1">gridpoints</dimension>
     <dimension dim="2">spin</dimension>
     <field>energy</field>
     <field>total</field>
     <field>integrated</field>
     <set>
      <set comment="spin 1">
       <r>   -13.3815     0.0000     0.0000 </r>
       <r>   -13.2565     0.0000     0.0000 </r>
       <r>   -13.1314     0.0000     0.0000 </r>
       <r>   -13.0063     0.0000     0.0000 </r>
       <r>   -12.8813     0.0000     0.0000 </r>
       <r>   -12.7562     0.0000     0.0000 </r>
       <r>   -12.6312     0.0000     0.0000 </r>
       <r>   -12.5061     0.0000     0.0000 </r>
       <r>   -12.3810     0.0000     0.0000 </r>
       <r>   -12.2560     0.0000     0.0000 </r>
       <r>   -12.1309     0.0000     0.0000 </r>
       <r>   -12.0058     0.0000     0.0000 </r>
       <r>   -11.8808     0.0000     0.0000 </r>
       <r>   -11.7557     0.0000     0.0000 </r>
       <r>   -11.6307     0.0333     0.0005 </r>
       <r>   -11.5056     0.1486     0.0148 </r>
       <r>   -11.3805     0.2328     0.0386 </r>
       <r>   -11.2555     0.2632     0.0693 </r>
       <r>   -11.1304     0.3087     0.1051 </r>
       <r>   -11.0054     0.3481     0.1466 </r>
       <r>   -10.8803     0.3758     0.1918 </r>
       <r>   -10.7552     0.4053     0.2406 </r>
       <r>   -10.6302     0.4421     0.2935 </r>
       <r>   -10.5051     0.4649     0.3505 </r>
       <r>   -10.3800     0.4873     0.4100 </r>
       <r>   -10.2550     0.5118     0.4724 </r>
       <r>   -10.1299     0.5389     0.5381 </r>
       <r>   -10.0049     0.5655     0.6072 </r>
       <r>    -9.8798     0.5836     0.6790 </r>
       <r>    -9.7547     0.6027     0.7532 </r>
       <r>    -9.6297     0.6235     0.8299 </r>
       <r>    -9.5046     0.6451     0.9092 </r>
       <r>    -9.3796     0.6681     0.9913 </r>
       <r>    -9.2545     0.6893     1.0763 </r>
       <r>    -9.1294     0.7060     1.1635 </r>
       <r>    -9.0044     0.7225     1.2528 </r>
       <r>    -8.8793     0.7414     1.3444 </r>
       <r>    -8.7543     0.7609     1.4383 </r>
       <r>    -8.6292     0.7811     1.5347 </r>
       <r>    -8.5041     0.8021     1.6337 </r>
       <r>    -8.3791     0.8189     1.7351 </r>
       <r>    -8.2540     0.8354     1.8386 </r>
       <r>    -8.1289     0.8526     1.9441 </r>
       <r>    -8.0039     0.8707     2.0519 </r>
       <r>    -7.8788     0.8889     2.1619 </r>
       <r>    -7.7538     0.9079     2.2743 </r>
       <r>    -7.6287     0.9682     2.3923 </r>
       <r>    -7.5036     0.9938     2.5151 </r>
       <r>    -7.3786     1.0397     2.6429 </r>
       <r>    -7.2535     1.0430     2.7733 </r>
       <r>    -7.1285     1.0200     2.9025 </r>
       <r>    -7.0034     0.9889     3.0280 </r>
       <r>    -6.8783     1.0151     3.1536 </r>
       <r>    -6.7533     1.0268     3.2812 </r>
       <r>    -6.6282     1.0309     3.4099 </r>
       <r>    -6.5032     1.0470     3.5394 </r>
       <r>    -6.3781     1.0976     3.6734 </r>
       <r>    -6.2530     1.1440     3.8145 </r>
       <r>    -6.1280     1.2299     3.9631 </r>
       <r>    -6.0029     1.2740     4.1203 </r>
       <r>    -5.8778     1.2941     4.2800 </r>
       <r>    -5.7528     1.4262     4.4487 </r>
       <r>    -5.6277     1.5697     4.6371 </r>
       <r>    -5.5027     1.4846     4.8313 </r>
       <r>    -5.3776     1.4397     5.0145 </r>
       <r>    -5.2525     1.3649     5.1921 </r>
       <r>    -5.1275     1.3640     5.3645 </r>
       <r>    -5.0024     1.3227     5.5311 </r>
       <r>    -4.8774     1.3706     5.6998 </r>
       <r>    -4.7523     1.2706     5.8688 </r>
       <r>    -4.6272     1.1798     6.0219 </r>
       <r>    -4.5022     1.1621     6.1680 </r>
       <r>    -4.3771     1.1312     6.3117 </r>
       <r>    -4.2521     1.1318     6.4522 </r>
       <r>    -4.1270     1.0889     6.5944 </r>
       <r>    -4.0019     1.0961     6.7269 </r>
       <r>    -3.8769     1.0626     6.8588 </r>
       <r>    -3.7518     0.9790     6.9874 </r>
       <r>    -3.6267     0.9386     7.1077 </r>
       <r>    -3.5017     0.9132     7.2228 </r>
       <r>    -3.3766     0.9475     7.3398 </r>
       <r>    -3.2516     1.0822     7.4696 </r>
       <r>    -3.1265     1.0273     7.6014 </r>
       <r>    -3.0014     1.0921     7.7353 </r>
       <r>    -2.8764     1.0237     7.8662 </r>
       <r>    -2.7513     1.0087     7.9933 </r>
       <r>    -2.6263     1.2293     8.1306 </r>
       <r>    -2.5012     1.0290     8.2695 </r>
       <r>    -2.3761     0.9895     8.3947 </r>
       <r>    -2.2511     0.9781     8.5168 </r>
       <r>    -2.1260     1.0337     8.6416 </r>
       <r>    -2.0010     1.1664     8.7808 </r>
       <r>    -1.8759     1.2965     8.9342 </r>
       <r>    -1.7508     1.4866     9.1081 </r>
       <r>    -1.6258     1.7184     9.3079 </r>
       <r>    -1.5007     2.1894     9.5486 </r>
       <r>    -1.3756     2.6584     9.8557 </r>
       <r>    -1.2506     2.7269    10.1931 </r>
       <r>    -1.1255     2.1517    10.5155 </r>
       <r>    -1.0005     1.7722    10.7683 </r>
       <r>    -0.8754     1.6184    10.9798 </r>
       <r>    -0.7503     1.5073    11.1748 </r>
       <r>    -0.6253     1.4249    11.3580 </r>
       <r>    -0.5002     1.3583    11.5319 </r>
       <r>    -0.3752     1.3194    11.6989 </r>
       <r>    -0.2501     1.2908    11.8622 </r>
       <r>    -0.1250     1.2601    12.0217 </r>
       <r>     0.0000     1.2422    12.1775 </r>
       <r>     0.1251     1.2547    12.3336 </r>
       <r>     0.2502     1.1197    12.4863 </r>
       <r>     0.3752     1.1076    12.6252 </r>
       <r>     0.5003     1.1173    12.7641 </r>
       <r>     0.6253     1.0615    12.9008 </r>
       <r>     0.7504     0.9692    13.0250 </r>
       <r>     0.8755     1.2847    13.1666 </r>
       <r>     1.0005     1.6159    13.3486 </r>
       <r>     1.1256     1.8859    13.5672 </r>
       <r>     1.2506     2.1767    13.8253 </r>
       <r>     1.3757     2.1562    14.1009 </r>
       <r>     1.5008     2.0830    14.3639 </r>
       <r>     1.6258     2.0636    14.6254 </r>
       <r>     1.7509     2.1592    14.8902 </r>
       <r>     1.8759     2.1482    15.1625 </r>
       <r>     2.0010     1.9093    15.4185 </r>
       <r>     2.1261     1.4521    15.6299 </r>
       <r>     2.2511     1.3974    15.7998 </r>
       <r>     2.3762     1.7120    15.9933 </r>
       <r>     2.5013     2.0309    16.2288 </r>
       <r>     2.6263     2.1723    16.4925 </r>
       <r>     2.7514     2.2169    16.7744 </r>
       <r>     2.8764     2.2664    17.0525 </r>
       <r>     3.0015     2.2803    17.3379 </r>
       <r>     3.1266     2.3201    17.6248 </r>
       <r>     3.2516     2.6251    17.9264 </r>
       <r>     3.3767     2.8499    18.2674 </r>
       <r>     3.5017     2.7849    18.6412 </r>
       <r>     3.6268     2.5865    18.9763 </r>
       <r>     3.7519     2.3007    19.2856 </r>
       <r>     3.8769     2.6013    19.5874 </r>
       <r>     4.0020     2.7235    19.9363 </r>
       <r>     4.1270     2.7120    20.2705 </r>
       <r>     4.2521     3.2475    20.6399 </r>
       <r>     4.3772     3.6991    21.0757 </r>
       <r>     4.5022     3.4451    21.5394 </r>
       <r>     4.6273     3.1344    21.9477 </r>
       <r>     4.7524     2.5553    22.3058 </r>
       <r>     4.8774     2.5052    22.6221 </r>
       <r>     5.0025     2.8511    22.9475 </r>
       <r>     5.1275     2.6978    23.2997 </r>
       <r>     5.2526     2.6803    23.6292 </r>
       <r>     5.3777     2.8996    23.9757 </r>
       <r>     5.5027     2.8471    24.3349 </r>
       <r>     5.6278     2.8393    24.6908 </r>
       <r>     5.7528     2.9190    25.0495 </r>
       <r>     5.8779     3.0258    25.4203 </r>
       <r>     6.0030     2.7292    25.7818 </r>
       <r>     6.1280     2.3841    26.1012 </r>
       <r>     6.2531     2.2745    26.3938 </r>
       <r>     6.3781     2.2622    26.6787 </r>
       <r>     6.5032     2.3359    26.9654 </r>
       <r>     6.6283     2.6705    27.2883 </r>
       <r>     6.7533     2.6500    27.6297 </r>
       <r>     6.8784     2.6416    27.9584 </r>
       <r>     7.0035     2.5802    28.2855 </r>
       <r>     7.1285     2.3436    28.5915 </r>
       <r>     7.2536     2.2121    28.8840 </r>
       <r>     7.3786     2.4806    29.1681 </r>
       <r>     7.5037     2.5189    29.5358 </r>
       <r>     7.6288     1.7756    29.7862 </r>
       <r>     7.7538     1.6129    29.9977 </r>
       <r>     7.8789     1.4954    30.1935 </r>
       <r>     8.0039     1.3486    30.3713 </r>
       <r>     8.1290     1.2835    30.5361 </r>
       <r>     8.2541     1.2164    30.6927 </r>
       <r>     8.3791     1.1492    30.8400 </r>
       <r>     8.5042     1.0416    30.9776 </r>
       <r>     8.6292     0.9360    31.1009 </r>
       <r>     8.7543     0.8555    31.2124 </r>
       <r>     8.8794     0.8191    31.3176 </r>
       <r>     9.0044     0.7806    31.4174 </r>
       <r>     9.1295     0.7110    31.5113 </r>
       <r>     9.2546     0.6399    31.5960 </r>
       <r>     9.3796     0.5661    31.6713 </r>
       <r>     9.5047     0.5184    31.7382 </r>
       <r>     9.6297     0.4861    31.8025 </r>
       <r>     9.7548     0.3737    31.8555 </r>
       <r>     9.8799     0.3615    31.8989 </r>
       <r>    10.0049     0.3633    31.9450 </r>
       <r>    10.1300     0.1685    31.9764 </r>
       <r>    10.2550     0.1483    31.9931 </r>
       <r>    10.3801     0.0003    32.0000 </r>
       <r>    10.5052     0.0000    32.0000 </r>
       <r>    10.6302     0.0000    32.0000 </r>
       <r>    10.7553     0.0000    32.0000 </r>
       <r>    10.8804     0.0000    32.0000 </r>
       <r>    11.0054     0.0000    32.0000 </r>
       <r>    11.1305     0.0000    32.0000 </r>
       <r>    11.2555     0.0000    32.0000 </r>
       <r>    11.3806     0.0000    32.0000 </r>
       <r>    11.5057     0.0000    32.0000 </r>
       <r>    11.6307     0.0000    32.0000 </r>
       <r>    11.7558     0.0000    32.0000 </r>
       <r>    11.8808     0.0000    32.0000 </r>
       <r>    12.0059     0.0000    32.0000 </r>
       <r>    12.1310     0.0000    32.0000 </r>
       <r>    12.2560     0.0000    32.0000 </r>
       <r>    12.3811     0.0000    32.0000 </r>
       <r>    12.5061     0.0000    32.0000 </r>
       <r>    12.6312     0.0000    32.0000 </r>
       <r>    12.7563     0.0000    32.0000 </r>
       <r>    12.8813     0.0000    32.0000 </r>
       <r>    13.0064     0.0000    32.0000 </r>
       <r>    13.1315     0.0000    32.0000 </r>
       <r>    13.2565     0.0000    32.0000 </r>
       <r>    13.3816     0.0000    32.0000 </r>
       <r>    13.5066     0.0000    32.0000 </r>
       <r>    13.6317     0.0000    32.0000 </r>
       <r>    13.7568     0.0000    32.0000 </r>
       <r>    13.8818     0.0000    32.0000 </r>
       <r>    14.0069     0.0000    32.0000 </r>
       <r>    14.1319     0.0000    32.0000 </r>
       <r>    14.2570     0.0000    32.0000 </r>
       <r>    14.3821     0.0000    32.0000 </r>
       <r>    14.5071     0.0000    32.0000 </r>
       <r>    14.6322     0.0105    32.0001 </r>
       <r>    14.7572     0.1309    32.0080 </r>
       <r>    14.8823     0.3233    32.0357 </r>
       <r>    15.0074     0.5358    32.0917 </r>
       <r>    15.1324     0.5983    32.1636 </r>
       <r>    15.2575     0.6189    32.2366 </r>
       <r>    15.3826     0.8067    32.3267 </r>
       <r>    15.5076     0.8805    32.4326 </r>
       <r>    15.6327     1.0251    32.5516 </r>
       <r>    15.7577     1.4236    32.7321 </r>
       <r>    15.8828     1.4023    32.9091 </r>
       <r>    16.0079     1.4139    33.0846 </r>
       <r>    16.1329     1.4975    33.2675 </r>
       <r>    16.2580     1.4897    33.4527 </r>
       <r>    16.3830     1.6323    33.6487 </r>
       <r>    16.5081     1.7706    33.8604 </r>
       <r>    16.6332     1.9559    34.0877 </r>
       <r>    16.7582     2.1858    34.3425 </r>
       <r>    16.8833     2.2320    34.6231 </r>
       <r>    17.0083     2.0218    34.8864 </r>
       <r>    17.1334     2.0088    35.1375 </r>
       <r>    17.2585     2.0511    35.3907 </r>
       <r>    17.3835     2.1412    35.6522 </r>
       <r>    17.5086     2.2849    35.9274 </r>
       <r>    17.6337     2.4332    36.2227 </r>
       <r>    17.7587     2.5694    36.5357 </r>
       <r>    17.8838     2.6978    36.8701 </r>
       <r>    18.0088     2.7208    37.2066 </r>
       <r>    18.1339     2.8461    37.5539 </r>
       <r>    18.2590     3.0663    37.9218 </r>
       <r>    18.3840     3.3754    38.3276 </r>
       <r>    18.5091     3.7694    38.7704 </r>
       <r>    18.6341     4.2759    39.2742 </r>
       <r>    18.7592     4.2359    39.8135 </r>
       <r>    18.8843     4.1214    40.3468 </r>
       <r>    19.0093     3.0679    40.7923 </r>
       <r>    19.1344     2.7284    41.1463 </r>
       <r>    19.2595     2.9223    41.4847 </r>
       <r>    19.3845     3.4570    41.8963 </r>
       <r>    19.5096     3.4395    42.3346 </r>
       <r>    19.6346     3.3698    42.7499 </r>
       <r>    19.7597     3.8119    43.2028 </r>
       <r>    19.8848     3.6453    43.6707 </r>
       <r>    20.0098     3.2682    44.1026 </r>
       <r>    20.1349     2.7917    44.4773 </r>
       <r>    20.2599     2.5837    44.8109 </r>
       <r>    20.3850     2.5346    45.1305 </r>
       <r>    20.5101     2.6590    45.4542 </r>
       <r>    20.6351     2.7023    45.7900 </r>
       <r>    20.7602     2.6596    46.1290 </r>
       <r>    20.8852     2.7212    46.4690 </r>
       <r>    21.0103     2.6435    46.8053 </r>
       <r>    21.1354     2.5772    47.1358 </r>
       <r>    21.2604     1.9744    47.4209 </r>
       <r>    21.3855     1.4774    47.6353 </r>
       <r>    21.5106     0.9581    47.7902 </r>
       <r>    21.6356     0.4927    47.8709 </r>
       <r>    21.7607     0.2896    47.9212 </r>
       <r>    21.8857     0.1944    47.9492 </r>
       <r>    22.0108     0.1458    47.9704 </r>
       <r>    22.1359     0.0994    47.9858 </r>
       <r>    22.2609     0.0553    47.9954 </r>
       <r>    22.3860     0.0138    47.9997 </r>
       <r>    22.5110     0.0000    48.0000 </r>
       <r>    22.6361     0.0000    48.0000 </r>
       <r>    22.7612     0.0000    48.0000 </r>
       <r>    22.8862     0.0000    48.0000 </r>
       <r>    23.0113     0.0000    48.0000 </r>
       <r>    23.1363     0.0000    48.0000 </r>
       <r>    23.2614     0.0000    48.0000 </r>
       <r>    23.3865     0.0000    48.0000 </r>
       <r>    23.5115     0.0000    48.0000 </r>
       <r>    23.6366     0.0000    48.0000 </r>
       <r>    23.7617     0.0000    48.0000 </r>
       <r>    23.8867     0.0000    48.0000 </r>
       <r>    24.0118     0.0000    48.0000 </r>
       <r>    24.1368     0.0000    48.0000 </r>
      </set>
     </set>
    </array>
   </total>
  </dos>
 </calculation>
 <structure name="finalpos" >
  <crystal>
   <varray name="basis" >
    <v>       3.51746625       0.00000000       0.00000000 </v>
    <v>       0.00000000       3.51746625       0.00000000 </v>
    <v>       0.00000000       0.00000000       3.51746625 </v>
   </varray>
   <i name="volume">     43.52009307 </i>
   <varray name="rec_basis" >
    <v>       0.28429555       0.00000000       0.00000000 </v>
    <v>       0.00000000       0.28429555       0.00000000 </v>
    <v>       0.00000000       0.00000000       0.28429555 </v>
   </varray>
  </crystal>
  <varray name="positions" >
   <v>       0.25000000       0.75000000       0.25000000 </v>
   <v>       0.00000000       0.00000000       0.50000000 </v>
   <v>       0.25000000       0.25000000       0.75000000 </v>
   <v>       0.00000000       0.50000000       0.00000000 </v>
   <v>       0.75000000       0.75000000       0.75000000 </v>
   <v>       0.50000000       0.00000000       0.00000000 </v>
   <v>       0.75000000       0.25000000       0.25000000 </v>
   <v>       0.50000000       0.50000000       0.50000000 </v>
  </varray>
 </structure>
</modeling>
