  64  64   0   0
  0.5205179E+01  0.6811545E-09  0.6811545E-09  0.7179999E-09  0.5000000E-15
  1.000000000000000E-004
  CAR 
 unknown system                          
     24.86148317    -13.35872419  301     11.62773637      1.00000000
    -13.359  0.0000E+00  0.0000E+00
    -13.231  0.0000E+00  0.0000E+00
    -13.104  0.0000E+00  0.0000E+00
    -12.977  0.0000E+00  0.0000E+00
    -12.849  0.0000E+00  0.0000E+00
    -12.722  0.0000E+00  0.0000E+00
    -12.594  0.0000E+00  0.0000E+00
    -12.467  0.0000E+00  0.0000E+00
    -12.340  0.0000E+00  0.0000E+00
    -12.212  0.0000E+00  0.0000E+00
    -12.085  0.0000E+00  0.0000E+00
    -11.957  0.8876E-16  0.1131E-16
    -11.830  0.3248E-07  0.4138E-08
    -11.703  0.2136E-02  0.2721E-03
    -11.575  0.2087E+00  0.2686E-01
    -11.448  0.1147E+01  0.1730E+00
    -11.320  0.1265E+01  0.3341E+00
    -11.193  0.2674E+01  0.6749E+00
    -11.066  0.1382E+01  0.8509E+00
    -10.938  0.3237E+01  0.1263E+01
    -10.811  0.2748E+01  0.1613E+01
    -10.683  0.3281E+01  0.2032E+01
    -10.556  0.2720E+01  0.2378E+01
    -10.429  0.3535E+01  0.2828E+01
    -10.301  0.4547E+01  0.3408E+01
    -10.174  0.3940E+01  0.3910E+01
    -10.046  0.3304E+01  0.4330E+01
     -9.919  0.3804E+01  0.4815E+01
     -9.792  0.5266E+01  0.5486E+01
     -9.664  0.5277E+01  0.6158E+01
     -9.537  0.4494E+01  0.6731E+01
     -9.409  0.3675E+01  0.7199E+01
     -9.282  0.6078E+01  0.7973E+01
     -9.155  0.5450E+01  0.8668E+01
     -9.027  0.4558E+01  0.9248E+01
     -8.900  0.5033E+01  0.9890E+01
     -8.772  0.7443E+01  0.1084E+02
     -8.645  0.6224E+01  0.1163E+02
     -8.517  0.4785E+01  0.1224E+02
     -8.390  0.5253E+01  0.1291E+02
     -8.263  0.5935E+01  0.1367E+02
     -8.135  0.7604E+01  0.1463E+02
     -8.008  0.6371E+01  0.1545E+02
     -7.880  0.8031E+01  0.1647E+02
     -7.753  0.5193E+01  0.1713E+02
     -7.626  0.6692E+01  0.1798E+02
     -7.498  0.7589E+01  0.1895E+02
     -7.371  0.7219E+01  0.1987E+02
     -7.243  0.6620E+01  0.2071E+02
     -7.116  0.7326E+01  0.2165E+02
     -6.989  0.8226E+01  0.2269E+02
     -6.861  0.9066E+01  0.2385E+02
     -6.734  0.4815E+01  0.2446E+02
     -6.606  0.1028E+02  0.2577E+02
     -6.479  0.9760E+01  0.2702E+02
     -6.352  0.7103E+01  0.2792E+02
     -6.224  0.6373E+01  0.2873E+02
     -6.097  0.7455E+01  0.2968E+02
     -5.969  0.1180E+02  0.3119E+02
     -5.842  0.8855E+01  0.3231E+02
     -5.715  0.1028E+02  0.3362E+02
     -5.587  0.8258E+01  0.3468E+02
     -5.460  0.1094E+02  0.3607E+02
     -5.332  0.9899E+01  0.3733E+02
     -5.205  0.1115E+02  0.3875E+02
     -5.078  0.1028E+02  0.4006E+02
     -4.950  0.1261E+02  0.4167E+02
     -4.823  0.1109E+02  0.4308E+02
     -4.695  0.8195E+01  0.4412E+02
     -4.568  0.7697E+01  0.4510E+02
     -4.441  0.1307E+02  0.4677E+02
     -4.313  0.1169E+02  0.4826E+02
     -4.186  0.8855E+01  0.4939E+02
     -4.058  0.6878E+01  0.5026E+02
     -3.931  0.9015E+01  0.5141E+02
     -3.804  0.9366E+01  0.5261E+02
     -3.676  0.8595E+01  0.5370E+02
     -3.549  0.5034E+01  0.5434E+02
     -3.421  0.1005E+02  0.5562E+02
     -3.294  0.6866E+01  0.5650E+02
     -3.167  0.6938E+01  0.5738E+02
     -3.039  0.7956E+01  0.5839E+02
     -2.912  0.1157E+02  0.5987E+02
     -2.784  0.1149E+02  0.6133E+02
     -2.657  0.9160E+01  0.6250E+02
     -2.530  0.6426E+01  0.6332E+02
     -2.402  0.9331E+01  0.6451E+02
     -2.275  0.8964E+01  0.6565E+02
     -2.147  0.7364E+01  0.6659E+02
     -2.020  0.9359E+01  0.6778E+02
     -1.893  0.9379E+01  0.6897E+02
     -1.765  0.1167E+02  0.7046E+02
     -1.638  0.1048E+02  0.7180E+02
     -1.510  0.9316E+01  0.7298E+02
     -1.383  0.1335E+02  0.7468E+02
     -1.256  0.1438E+02  0.7652E+02
     -1.128  0.1352E+02  0.7824E+02
     -1.001  0.1417E+02  0.8004E+02
     -0.873  0.1681E+02  0.8219E+02
     -0.746  0.1096E+02  0.8358E+02
     -0.619  0.1519E+02  0.8552E+02
     -0.491  0.1794E+02  0.8780E+02
     -0.364  0.1688E+02  0.8995E+02
     -0.236  0.9204E+01  0.9112E+02
     -0.109  0.7607E+01  0.9209E+02
      0.018  0.1425E+02  0.9391E+02
      0.146  0.9190E+01  0.9508E+02
      0.273  0.8661E+01  0.9618E+02
      0.401  0.8439E+01  0.9726E+02
      0.528  0.8725E+01  0.9837E+02
      0.655  0.9516E+01  0.9958E+02
      0.783  0.8646E+01  0.1007E+03
      0.910  0.1087E+02  0.1021E+03
      1.038  0.1075E+02  0.1034E+03
      1.165  0.1007E+02  0.1047E+03
      1.292  0.1471E+02  0.1066E+03
      1.420  0.1386E+02  0.1084E+03
      1.547  0.1331E+02  0.1101E+03
      1.675  0.1643E+02  0.1121E+03
      1.802  0.1277E+02  0.1138E+03
      1.929  0.1324E+02  0.1155E+03
      2.057  0.1756E+02  0.1177E+03
      2.184  0.1711E+02  0.1199E+03
      2.312  0.1185E+02  0.1214E+03
      2.439  0.1686E+02  0.1235E+03
      2.566  0.1397E+02  0.1253E+03
      2.694  0.1478E+02  0.1272E+03
      2.821  0.2257E+02  0.1301E+03
      2.949  0.1734E+02  0.1323E+03
      3.076  0.8449E+01  0.1334E+03
      3.203  0.1414E+02  0.1352E+03
      3.331  0.2078E+02  0.1378E+03
      3.458  0.2253E+02  0.1407E+03
      3.586  0.1797E+02  0.1430E+03
      3.713  0.1447E+02  0.1448E+03
      3.840  0.1489E+02  0.1467E+03
      3.968  0.2080E+02  0.1494E+03
      4.095  0.2831E+02  0.1530E+03
      4.223  0.2442E+02  0.1561E+03
      4.350  0.1932E+02  0.1585E+03
      4.477  0.2013E+02  0.1611E+03
      4.605  0.2003E+02  0.1637E+03
      4.732  0.2676E+02  0.1671E+03
      4.860  0.1960E+02  0.1696E+03
      4.987  0.1969E+02  0.1721E+03
      5.114  0.2471E+02  0.1752E+03
      5.242  0.2787E+02  0.1788E+03
      5.369  0.2381E+02  0.1818E+03
      5.497  0.1960E+02  0.1843E+03
      5.624  0.1691E+02  0.1865E+03
      5.751  0.2151E+02  0.1892E+03
      5.879  0.2137E+02  0.1919E+03
      6.006  0.2586E+02  0.1952E+03
      6.134  0.2312E+02  0.1982E+03
      6.261  0.2145E+02  0.2009E+03
      6.388  0.1809E+02  0.2032E+03
      6.516  0.1740E+02  0.2054E+03
      6.643  0.1774E+02  0.2077E+03
      6.771  0.2247E+02  0.2105E+03
      6.898  0.2098E+02  0.2132E+03
      7.025  0.2547E+02  0.2165E+03
      7.153  0.2119E+02  0.2191E+03
      7.280  0.1587E+02  0.2212E+03
      7.408  0.1596E+02  0.2232E+03
      7.535  0.1636E+02  0.2253E+03
      7.662  0.1638E+02  0.2274E+03
      7.790  0.2107E+02  0.2301E+03
      7.917  0.1768E+02  0.2323E+03
      8.045  0.1918E+02  0.2348E+03
      8.172  0.1101E+02  0.2362E+03
      8.299  0.1006E+02  0.2374E+03
      8.427  0.1204E+02  0.2390E+03
      8.554  0.1513E+02  0.2409E+03
      8.682  0.1555E+02  0.2429E+03
      8.809  0.1014E+02  0.2442E+03
      8.936  0.1109E+02  0.2456E+03
      9.064  0.7787E+01  0.2466E+03
      9.191  0.6830E+01  0.2474E+03
      9.319  0.6293E+01  0.2483E+03
      9.446  0.9139E+01  0.2494E+03
      9.573  0.7877E+01  0.2504E+03
      9.701  0.7350E+01  0.2514E+03
      9.828  0.3096E+01  0.2517E+03
      9.956  0.5058E+01  0.2524E+03
     10.083  0.4826E+01  0.2530E+03
     10.210  0.5156E+01  0.2537E+03
     10.338  0.4063E+01  0.2542E+03
     10.465  0.2649E+01  0.2545E+03
     10.593  0.3324E+01  0.2549E+03
     10.720  0.1671E+01  0.2552E+03
     10.847  0.2491E+01  0.2555E+03
     10.975  0.1044E+01  0.2556E+03
     11.102  0.2165E+01  0.2559E+03
     11.230  0.4344E+00  0.2559E+03
     11.357  0.3950E+00  0.2560E+03
     11.484  0.8436E-01  0.2560E+03
     11.612  0.1627E-03  0.2560E+03
     11.739  0.9869E-10  0.2560E+03
     11.867  0.0000E+00  0.2560E+03
     11.994  0.0000E+00  0.2560E+03
     12.121  0.0000E+00  0.2560E+03
     12.249  0.0000E+00  0.2560E+03
     12.376  0.0000E+00  0.2560E+03
     12.504  0.0000E+00  0.2560E+03
     12.631  0.0000E+00  0.2560E+03
     12.758  0.0000E+00  0.2560E+03
     12.886  0.0000E+00  0.2560E+03
     13.013  0.0000E+00  0.2560E+03
     13.141  0.0000E+00  0.2560E+03
     13.268  0.0000E+00  0.2560E+03
     13.395  0.0000E+00  0.2560E+03
     13.523  0.0000E+00  0.2560E+03
     13.650  0.0000E+00  0.2560E+03
     13.778  0.0000E+00  0.2560E+03
     13.905  0.0000E+00  0.2560E+03
     14.032  0.0000E+00  0.2560E+03
     14.160  0.0000E+00  0.2560E+03
     14.287  0.0000E+00  0.2560E+03
     14.415  0.0000E+00  0.2560E+03
     14.542  0.0000E+00  0.2560E+03
     14.669  0.2587E-11  0.2560E+03
     14.797  0.2920E-04  0.2560E+03
     14.924  0.8217E-01  0.2560E+03
     15.052  0.6802E+00  0.2561E+03
     15.179  0.4915E+00  0.2562E+03
     15.306  0.2517E+01  0.2565E+03
     15.434  0.2633E+01  0.2568E+03
     15.561  0.4670E+01  0.2574E+03
     15.689  0.3623E+01  0.2579E+03
     15.816  0.1332E+01  0.2580E+03
     15.943  0.3436E+01  0.2585E+03
     16.071  0.7829E+01  0.2595E+03
     16.198  0.9486E+01  0.2607E+03
     16.326  0.6431E+01  0.2615E+03
     16.453  0.6173E+01  0.2623E+03
     16.580  0.8738E+01  0.2634E+03
     16.708  0.8162E+01  0.2644E+03
     16.835  0.1309E+02  0.2661E+03
     16.963  0.8588E+01  0.2672E+03
     17.090  0.1234E+02  0.2688E+03
     17.217  0.1260E+02  0.2704E+03
     17.345  0.1520E+02  0.2723E+03
     17.472  0.1874E+02  0.2747E+03
     17.600  0.1276E+02  0.2763E+03
     17.727  0.1448E+02  0.2782E+03
     17.854  0.1648E+02  0.2803E+03
     17.982  0.1836E+02  0.2826E+03
     18.109  0.2003E+02  0.2852E+03
     18.237  0.1479E+02  0.2871E+03
     18.364  0.1780E+02  0.2893E+03
     18.491  0.1898E+02  0.2917E+03
     18.619  0.1774E+02  0.2940E+03
     18.746  0.2154E+02  0.2967E+03
     18.874  0.2687E+02  0.3002E+03
     19.001  0.2907E+02  0.3039E+03
     19.128  0.3530E+02  0.3084E+03
     19.256  0.3234E+02  0.3125E+03
     19.383  0.2659E+02  0.3159E+03
     19.511  0.2515E+02  0.3191E+03
     19.638  0.2160E+02  0.3218E+03
     19.765  0.2022E+02  0.3244E+03
     19.893  0.2092E+02  0.3271E+03
     20.020  0.2916E+02  0.3308E+03
     20.148  0.3577E+02  0.3353E+03
     20.275  0.3067E+02  0.3393E+03
     20.402  0.2018E+02  0.3418E+03
     20.530  0.2182E+02  0.3446E+03
     20.657  0.1901E+02  0.3470E+03
     20.785  0.1829E+02  0.3494E+03
     20.912  0.1955E+02  0.3518E+03
     21.039  0.2384E+02  0.3549E+03
     21.167  0.2122E+02  0.3576E+03
     21.294  0.2516E+02  0.3608E+03
     21.422  0.2671E+02  0.3642E+03
     21.549  0.1986E+02  0.3667E+03
     21.676  0.2436E+02  0.3698E+03
     21.804  0.2292E+02  0.3727E+03
     21.931  0.2826E+02  0.3763E+03
     22.059  0.2039E+02  0.3789E+03
     22.186  0.1245E+02  0.3805E+03
     22.313  0.1008E+02  0.3818E+03
     22.441  0.5740E+01  0.3825E+03
     22.568  0.3117E+01  0.3829E+03
     22.696  0.3462E+01  0.3834E+03
     22.823  0.1919E+01  0.3836E+03
     22.950  0.1064E+01  0.3838E+03
     23.078  0.1335E+01  0.3839E+03
     23.205  0.5072E+00  0.3840E+03
     23.333  0.1511E-01  0.3840E+03
     23.460  0.2219E-06  0.3840E+03
     23.587  0.5487E-15  0.3840E+03
     23.715  0.0000E+00  0.3840E+03
     23.842  0.0000E+00  0.3840E+03
     23.970  0.0000E+00  0.3840E+03
     24.097  0.0000E+00  0.3840E+03
     24.224  0.0000E+00  0.3840E+03
     24.352  0.0000E+00  0.3840E+03
     24.479  0.0000E+00  0.3840E+03
     24.607  0.0000E+00  0.3840E+03
     24.734  0.0000E+00  0.3840E+03
     24.861  0.0000E+00  0.3840E+03
