 vasp.5.4.4.18Apr17-6-g9f103f2a35 (build Mar 12 2022 03:36:41) complex          
  
 executed on IFC19.0.3.199_CrayMP date 2022.12.02  01:08:39
 running on   32 total cores
 distrk:  each k-point on   32 cores,    1 groups
 distr:  one band on NCORES_PER_BAND=   1 cores,   32 groups


--------------------------------------------------------------------------------------------------------


 INCAR:
 POTCAR:   PAW_PBE C 08Apr2002                    

 ----------------------------------------------------------------------------- 
|                                                                             |
|           W    W    AA    RRRRR   N    N  II  N    N   GGGG   !!!           |
|           W    W   A  A   R    R  NN   N  II  NN   N  G    G  !!!           |
|           W    W  A    A  R    R  N N  N  II  N N  N  G       !!!           |
|           W WW W  AAAAAA  RRRRR   N  N N  II  N  N N  G  GGG   !            |
|           WW  WW  A    A  R   R   N   NN  II  N   NN  G    G                |
|           W    W  A    A  R    R  N    N  II  N    N   GGGG   !!!           |
|                                                                             |
|      For optimal performance we recommend to set                            |
|        NCORE= 4 - approx SQRT( number of cores)                             |
|      NCORE specifies how many cores store one orbital (NPAR=cpu/NCORE).     |
|      This setting can  greatly improve the performance of VASP for DFT.     |
|      The default,   NCORE=1            might be grossly inefficient         |
|      on modern multi-core architectures or massively parallel machines.     |
|      Do your own testing !!!!                                               |
|      Unfortunately you need to use the default for GW and RPA calculations. |
|      (for HF NCORE is supported but not extensively tested yet)             |
|                                                                             |
 ----------------------------------------------------------------------------- 

 POTCAR:   PAW_PBE C 08Apr2002                    
   VRHFIN =C: s2p2                                                              
   LEXCH  = PE                                                                  
   EATOM  =   147.1560 eV,   10.8157 Ry                                         
                                                                                
   TITEL  = PAW_PBE C 08Apr2002                                                 
   LULTRA =        F    use ultrasoft PP ?                                      
   IUNSCR =        0    unscreen: 0-lin 1-nonlin 2-no                           
   RPACOR =     .000    partial core radius                                     
   POMASS =   12.011; ZVAL   =    4.000    mass and valenz                      
   RCORE  =    1.500    outmost cutoff radius                                   
   RWIGS  =    1.630; RWIGS  =     .863    wigner-seitz radius (au A)           
   ENMAX  =  400.000; ENMIN  =  300.000 eV                                      
   ICORE  =        2    local potential                                         
   LCOR   =        T    correct aug charges                                     
   LPAW   =        T    paw PP                                                  
   EAUG   =  644.873                                                            
   DEXC   =     .000                                                            
   RMAX   =    2.266    core radius for proj-oper                               
   RAUG   =    1.300    factor for augmentation sphere                          
   RDEP   =    1.501    radius for radial grids                                 
   RDEPT  =    1.300    core radius for aug-charge                              
   QCUT   =   -5.516; QGAM   =   11.032    optimization parameters              
                                                                                
   Description                                                                  
     l     E      TYP  RCUT    TYP  RCUT                                        
     0   .000     23  1.200                                                     
     0   .000     23  1.200                                                     
     1   .000     23  1.500                                                     
     1  2.500     23  1.500                                                     
     2   .000      7  1.500                                                     
  local pseudopotential read in
  atomic valenz-charges read in
  non local Contribution for L=           0  read in
    real space projection operators read in
  non local Contribution for L=           0  read in
    real space projection operators read in
  non local Contribution for L=           1  read in
    real space projection operators read in
  non local Contribution for L=           1  read in
    real space projection operators read in
    PAW grid and wavefunctions read in
 
   number of l-projection  operators is LMAX  =           4
   number of lm-projection operators is LMMAX =           8
 

 ----------------------------------------------------------------------------- 
|                                                                             |
|  ADVICE TO THIS USER RUNNING 'VASP/VAMP'   (HEAR YOUR MASTER'S VOICE ...):  |
|                                                                             |
|      You have a (more or less) 'large supercell' and for larger cells       |
|      it might be more efficient to use real space projection operators      |
|      So try LREAL= Auto  in the INCAR   file.                               |
|      Mind: If you want to do a very accurate calculations keep the          |
|      reciprocal projection scheme          (i.e. LREAL=.FALSE.)             |
|                                                                             |
 ----------------------------------------------------------------------------- 

 PAW_PBE C 08Apr2002                    :
 energy of atom  1       EATOM= -147.1560
 kinetic energy error for atom=    0.0288 (will be added to EATOM!!)
 
 
 POSCAR: generated by phonopy                    
  positions in direct lattice
  No initial velocities read in
 exchange correlation table for  LEXCH =        8
   RHO(1)=    0.500       N(1)  =     2000
   RHO(2)=  100.500       N(2)  =     4000
 


--------------------------------------------------------------------------------------------------------


 ion  position               nearest neighbor table
   1  0.125  0.375  0.125-  11 1.50  25 1.50  43 1.50  57 1.50
   2  0.625  0.375  0.125-  12 1.50  26 1.50  44 1.50  58 1.50
   3  0.125  0.875  0.125-   9 1.50  27 1.50  41 1.50  59 1.50
   4  0.625  0.875  0.125-  10 1.50  28 1.50  42 1.50  60 1.50
   5  0.125  0.375  0.625-  15 1.50  29 1.50  47 1.50  61 1.50
   6  0.625  0.375  0.625-  16 1.50  30 1.50  48 1.50  62 1.50
   7  0.125  0.875  0.625-  13 1.50  31 1.50  45 1.50  63 1.50
   8  0.625  0.875  0.625-  14 1.50  32 1.50  46 1.50  64 1.50
   9  0.000  0.000  0.250-   3 1.50  17 1.50  36 1.50  50 1.50
  10  0.500  0.000  0.250-   4 1.50  18 1.50  35 1.50  49 1.50
  11  0.000  0.500  0.250-   1 1.50  19 1.50  34 1.50  52 1.50
  12  0.500  0.500  0.250-   2 1.50  20 1.50  33 1.50  51 1.50
  13  0.000  0.000  0.750-   7 1.50  21 1.50  40 1.50  54 1.50
  14  0.500  0.000  0.750-   8 1.50  22 1.50  39 1.50  53 1.50
  15  0.000  0.500  0.750-   5 1.50  23 1.50  38 1.50  56 1.50
  16  0.500  0.500  0.750-   6 1.50  24 1.50  37 1.50  55 1.50
  17  0.125  0.125  0.375-   9 1.50  29 1.50  45 1.50  57 1.50
  18  0.625  0.125  0.375-  10 1.50  30 1.50  46 1.50  58 1.50
  19  0.125  0.625  0.375-  11 1.50  31 1.50  47 1.50  59 1.50
  20  0.625  0.625  0.375-  12 1.50  32 1.50  48 1.50  60 1.50
  21  0.125  0.125  0.875-  13 1.50  25 1.50  41 1.50  61 1.50
  22  0.625  0.125  0.875-  14 1.50  26 1.50  42 1.50  62 1.50
  23  0.125  0.625  0.875-  15 1.50  27 1.50  43 1.50  63 1.50
  24  0.625  0.625  0.875-  16 1.50  28 1.50  44 1.50  64 1.50
  25  0.000  0.250  0.000-   1 1.50  21 1.50  38 1.50  50 1.50
  26  0.500  0.250  0.000-   2 1.50  22 1.50  37 1.50  49 1.50
  27  0.000  0.750  0.000-   3 1.50  23 1.50  40 1.50  52 1.50
  28  0.500  0.750  0.000-   4 1.50  24 1.50  39 1.50  51 1.50
  29  0.000  0.250  0.500-   5 1.50  17 1.50  34 1.50  54 1.50
  30  0.500  0.250  0.500-   6 1.50  18 1.50  33 1.50  53 1.50
  31  0.000  0.750  0.500-   7 1.50  19 1.50  36 1.50  56 1.50
  32  0.500  0.750  0.500-   8 1.50  20 1.50  35 1.50  55 1.50
  33  0.375  0.375  0.375-  12 1.50  30 1.50  47 1.50  57 1.50
  34  0.875  0.375  0.375-  11 1.50  29 1.50  48 1.50  58 1.50
  35  0.375  0.875  0.375-  10 1.50  32 1.50  45 1.50  59 1.50
  36  0.875  0.875  0.375-   9 1.50  31 1.50  46 1.50  60 1.50
  37  0.375  0.375  0.875-  16 1.50  26 1.50  43 1.50  61 1.50
  38  0.875  0.375  0.875-  15 1.50  25 1.50  44 1.50  62 1.50
  39  0.375  0.875  0.875-  14 1.50  28 1.50  41 1.50  63 1.50
  40  0.875  0.875  0.875-  13 1.50  27 1.50  42 1.50  64 1.50
  41  0.250  0.000  0.000-   3 1.50  21 1.50  39 1.50  49 1.50
  42  0.750  0.000  0.000-   4 1.50  22 1.50  40 1.50  50 1.50
  43  0.250  0.500  0.000-   1 1.50  23 1.50  37 1.50  51 1.50
  44  0.750  0.500  0.000-   2 1.50  24 1.50  38 1.50  52 1.50
  45  0.250  0.000  0.500-   7 1.50  17 1.50  35 1.50  53 1.50
  46  0.750  0.000  0.500-   8 1.50  18 1.50  36 1.50  54 1.50
  47  0.250  0.500  0.500-   5 1.50  19 1.50  33 1.50  55 1.50
  48  0.750  0.500  0.500-   6 1.50  20 1.50  34 1.50  56 1.50
  49  0.375  0.125  0.125-  10 1.50  26 1.50  41 1.50  57 1.50
  50  0.875  0.125  0.125-   9 1.50  25 1.50  42 1.50  58 1.50
  51  0.375  0.625  0.125-  12 1.50  28 1.50  43 1.50  59 1.50
  52  0.875  0.625  0.125-  11 1.50  27 1.50  44 1.50  60 1.50
  53  0.375  0.125  0.625-  14 1.50  30 1.50  45 1.50  61 1.50
  54  0.875  0.125  0.625-  13 1.50  29 1.50  46 1.50  62 1.50
  55  0.375  0.625  0.625-  16 1.50  32 1.50  47 1.50  63 1.50
  56  0.875  0.625  0.625-  15 1.50  31 1.50  48 1.50  64 1.50
  57  0.250  0.250  0.250-   1 1.50  17 1.50  33 1.50  49 1.50
  58  0.750  0.250  0.250-   2 1.50  18 1.50  34 1.50  50 1.50
  59  0.250  0.750  0.250-   3 1.50  19 1.50  35 1.50  51 1.50
  60  0.750  0.750  0.250-   4 1.50  20 1.50  36 1.50  52 1.50
  61  0.250  0.250  0.750-   5 1.50  21 1.50  37 1.50  53 1.50
  62  0.750  0.250  0.750-   6 1.50  22 1.50  38 1.50  54 1.50
  63  0.250  0.750  0.750-   7 1.50  23 1.50  39 1.50  55 1.50
  64  0.750  0.750  0.750-   8 1.50  24 1.50  40 1.50  56 1.50
 
  LATTYP: Found a simple tetragonal cell.
 ALAT       =     6.8115448857
 C/A-ratio  =     1.0540925500
  
  Lattice vectors:
  
 A1 = (   6.8115448857,   0.0000000000,   0.0000000000)
 A2 = (   0.0000000000,   6.8115448857,   0.0000000000)
 A3 = (   0.0000000000,   0.0000000000,   7.1799987179)


Analysis of symmetry for initial positions (statically):
=====================================================================
 Subroutine PRICEL returns following result:
 
  LATTYP: Found a body centered tetragonal cell.
 ALAT       =     2.4082447895
 C/A-ratio  =     1.4907119802
  
  Lattice vectors:
  
 A1 = (   0.0000000000,  -1.7028862214,   1.7949996795)
 A2 = (   0.0000000000,   1.7028862214,   1.7949996795)
 A3 = (  -1.7028862214,   0.0000000000,  -1.7949996795)
 
  32 primitive cells build up your supercell.
 

 Routine SETGRP: Setting up the symmetry group for a 
 simple tetragonal supercell.


 Subroutine GETGRP returns: Found 16 space group operations
 (whereof  8 operations were pure point group operations)
 out of a pool of 16 trial point group operations.


The static configuration has the point symmetry D_2d.
 The point group associated with its full space group is D_4h.


Analysis of symmetry for dynamics (positions and initial velocities):
=====================================================================
 Subroutine PRICEL returns following result:
 
  LATTYP: Found a body centered tetragonal cell.
 ALAT       =     2.4082447895
 C/A-ratio  =     1.4907119802
  
  Lattice vectors:
  
 A1 = (   0.0000000000,  -1.7028862214,   1.7949996795)
 A2 = (   0.0000000000,   1.7028862214,   1.7949996795)
 A3 = (  -1.7028862214,   0.0000000000,  -1.7949996795)
 
  32 primitive cells build up your supercell.
 

 Routine SETGRP: Setting up the symmetry group for a 
 simple tetragonal supercell.


 Subroutine GETGRP returns: Found 16 space group operations
 (whereof  8 operations were pure point group operations)
 out of a pool of 16 trial point group operations.


The dynamic configuration has the point symmetry D_2d.
 The point group associated with its full space group is D_4h.


 Subroutine INISYM returns: Found 16 space group operations
 (whereof  8 operations are pure point group operations),
 and found    32 'primitive' translations

 
 
 KPOINTS: kpt_density=3000                        

Automatic generation of k-mesh.
Space group operators:
 irot       det(A)        alpha          n_x          n_y          n_z        tau_x        tau_y        tau_z
    1     1.000000     0.000001     1.000000     0.000000     0.000000     0.000000     0.000000     0.000000
    2    -1.000000    90.000000     0.000000     0.000000    -1.000000     0.000000     0.000000     0.000000
    3     1.000000   180.000000     0.000000     0.000000     1.000000     0.000000     0.000000     0.000000
    4    -1.000000    90.000000     0.000000     0.000000     1.000000     0.000000     0.000000     0.000000
    5     1.000000   179.999999     0.000000     1.000000     0.000000     0.000000     0.000000     0.000000
    6    -1.000000   179.999999     0.707107     0.707107     0.000000     0.000000     0.000000     0.000000
    7     1.000000   179.999999     1.000000     0.000000     0.000000     0.000000     0.000000     0.000000
    8    -1.000000   179.999999     0.707107    -0.707107     0.000000     0.000000     0.000000     0.000000
    9    -1.000000     0.000001     1.000000     0.000000     0.000000    -0.125000    -0.125000     0.125000
   10     1.000000    90.000000     0.000000     0.000000    -1.000000    -0.125000    -0.125000     0.125000
   11    -1.000000   180.000000     0.000000     0.000000     1.000000    -0.125000    -0.125000     0.125000
   12     1.000000    90.000000     0.000000     0.000000     1.000000    -0.125000    -0.125000     0.125000
   13    -1.000000   179.999999     0.000000     1.000000     0.000000    -0.125000    -0.125000     0.125000
   14     1.000000   179.999999     0.707107     0.707107     0.000000    -0.125000    -0.125000     0.125000
   15    -1.000000   179.999999     1.000000     0.000000     0.000000    -0.125000    -0.125000     0.125000
   16     1.000000   179.999999     0.707107    -0.707107     0.000000    -0.125000    -0.125000     0.125000
 
 Subroutine IBZKPT returns following result:
 ===========================================
 
 Found     40 irreducible k-points:
 
 Following reciprocal coordinates:
            Coordinates               Weight
  0.000000  0.000000  0.000000      1.000000
  0.166667  0.000000  0.000000      4.000000
  0.333333  0.000000  0.000000      4.000000
  0.500000  0.000000  0.000000      2.000000
  0.166667  0.166667  0.000000      4.000000
  0.333333  0.166667  0.000000      8.000000
  0.500000  0.166667  0.000000      4.000000
  0.333333  0.333333  0.000000      4.000000
  0.500000  0.333333  0.000000      4.000000
  0.500000  0.500000  0.000000      1.000000
  0.000000  0.000000  0.166667      2.000000
  0.166667  0.000000  0.166667      8.000000
  0.333333  0.000000  0.166667      8.000000
  0.500000  0.000000  0.166667      4.000000
  0.166667  0.166667  0.166667      8.000000
  0.333333  0.166667  0.166667     16.000000
  0.500000  0.166667  0.166667      8.000000
  0.333333  0.333333  0.166667      8.000000
  0.500000  0.333333  0.166667      8.000000
  0.500000  0.500000  0.166667      2.000000
  0.000000  0.000000  0.333333      2.000000
  0.166667  0.000000  0.333333      8.000000
  0.333333  0.000000  0.333333      8.000000
  0.500000  0.000000  0.333333      4.000000
  0.166667  0.166667  0.333333      8.000000
  0.333333  0.166667  0.333333     16.000000
  0.500000  0.166667  0.333333      8.000000
  0.333333  0.333333  0.333333      8.000000
  0.500000  0.333333  0.333333      8.000000
  0.500000  0.500000  0.333333      2.000000
  0.000000  0.000000  0.500000      1.000000
  0.166667  0.000000  0.500000      4.000000
  0.333333  0.000000  0.500000      4.000000
  0.500000  0.000000  0.500000      2.000000
  0.166667  0.166667  0.500000      4.000000
  0.333333  0.166667  0.500000      8.000000
  0.500000  0.166667  0.500000      4.000000
  0.333333  0.333333  0.500000      4.000000
  0.500000  0.333333  0.500000      4.000000
  0.500000  0.500000  0.500000      1.000000
 
 Following cartesian coordinates:
            Coordinates               Weight
  0.000000  0.000000  0.000000      1.000000
  0.024468  0.000000  0.000000      4.000000
  0.048937  0.000000  0.000000      4.000000
  0.073405  0.000000  0.000000      2.000000
  0.024468  0.024468  0.000000      4.000000
  0.048937  0.024468  0.000000      8.000000
  0.073405  0.024468  0.000000      4.000000
  0.048937  0.048937  0.000000      4.000000
  0.073405  0.048937  0.000000      4.000000
  0.073405  0.073405  0.000000      1.000000
  0.000000  0.000000  0.023213      2.000000
  0.024468  0.000000  0.023213      8.000000
  0.048937  0.000000  0.023213      8.000000
  0.073405  0.000000  0.023213      4.000000
  0.024468  0.024468  0.023213      8.000000
  0.048937  0.024468  0.023213     16.000000
  0.073405  0.024468  0.023213      8.000000
  0.048937  0.048937  0.023213      8.000000
  0.073405  0.048937  0.023213      8.000000
  0.073405  0.073405  0.023213      2.000000
  0.000000  0.000000  0.046425      2.000000
  0.024468  0.000000  0.046425      8.000000
  0.048937  0.000000  0.046425      8.000000
  0.073405  0.000000  0.046425      4.000000
  0.024468  0.024468  0.046425      8.000000
  0.048937  0.024468  0.046425     16.000000
  0.073405  0.024468  0.046425      8.000000
  0.048937  0.048937  0.046425      8.000000
  0.073405  0.048937  0.046425      8.000000
  0.073405  0.073405  0.046425      2.000000
  0.000000  0.000000  0.069638      1.000000
  0.024468  0.000000  0.069638      4.000000
  0.048937  0.000000  0.069638      4.000000
  0.073405  0.000000  0.069638      2.000000
  0.024468  0.024468  0.069638      4.000000
  0.048937  0.024468  0.069638      8.000000
  0.073405  0.024468  0.069638      4.000000
  0.048937  0.048937  0.069638      4.000000
  0.073405  0.048937  0.069638      4.000000
  0.073405  0.073405  0.069638      1.000000
 
 
 Subroutine IBZKPT_HF returns following result:
 ==============================================
 
 Found    216 k-points in 1st BZ
 the following    216 k-points will be used (e.g. in the exchange kernel)
 Following reciprocal coordinates:   # in IRBZ
  0.000000  0.000000  0.000000    0.00462963   1 t-inv F
  0.166667  0.000000  0.000000    0.00462963   2 t-inv F
  0.333333  0.000000  0.000000    0.00462963   3 t-inv F
  0.500000  0.000000  0.000000    0.00462963   4 t-inv F
  0.166667  0.166667  0.000000    0.00462963   5 t-inv F
  0.333333  0.166667  0.000000    0.00462963   6 t-inv F
  0.500000  0.166667  0.000000    0.00462963   7 t-inv F
  0.333333  0.333333  0.000000    0.00462963   8 t-inv F
  0.500000  0.333333  0.000000    0.00462963   9 t-inv F
  0.500000  0.500000  0.000000    0.00462963  10 t-inv F
  0.000000  0.000000  0.166667    0.00462963  11 t-inv F
  0.166667  0.000000  0.166667    0.00462963  12 t-inv F
  0.333333  0.000000  0.166667    0.00462963  13 t-inv F
  0.500000  0.000000  0.166667    0.00462963  14 t-inv F
  0.166667  0.166667  0.166667    0.00462963  15 t-inv F
  0.333333  0.166667  0.166667    0.00462963  16 t-inv F
  0.500000  0.166667  0.166667    0.00462963  17 t-inv F
  0.333333  0.333333  0.166667    0.00462963  18 t-inv F
  0.500000  0.333333  0.166667    0.00462963  19 t-inv F
  0.500000  0.500000  0.166667    0.00462963  20 t-inv F
  0.000000  0.000000  0.333333    0.00462963  21 t-inv F
  0.166667  0.000000  0.333333    0.00462963  22 t-inv F
  0.333333  0.000000  0.333333    0.00462963  23 t-inv F
  0.500000  0.000000  0.333333    0.00462963  24 t-inv F
  0.166667  0.166667  0.333333    0.00462963  25 t-inv F
  0.333333  0.166667  0.333333    0.00462963  26 t-inv F
  0.500000  0.166667  0.333333    0.00462963  27 t-inv F
  0.333333  0.333333  0.333333    0.00462963  28 t-inv F
  0.500000  0.333333  0.333333    0.00462963  29 t-inv F
  0.500000  0.500000  0.333333    0.00462963  30 t-inv F
  0.000000  0.000000  0.500000    0.00462963  31 t-inv F
  0.166667  0.000000  0.500000    0.00462963  32 t-inv F
  0.333333  0.000000  0.500000    0.00462963  33 t-inv F
  0.500000  0.000000  0.500000    0.00462963  34 t-inv F
  0.166667  0.166667  0.500000    0.00462963  35 t-inv F
  0.333333  0.166667  0.500000    0.00462963  36 t-inv F
  0.500000  0.166667  0.500000    0.00462963  37 t-inv F
  0.333333  0.333333  0.500000    0.00462963  38 t-inv F
  0.500000  0.333333  0.500000    0.00462963  39 t-inv F
  0.500000  0.500000  0.500000    0.00462963  40 t-inv F
  0.000000 -0.166667  0.000000    0.00462963   2 t-inv F
 -0.166667  0.000000  0.000000    0.00462963   2 t-inv F
  0.000000  0.166667  0.000000    0.00462963   2 t-inv F
  0.000000 -0.333333  0.000000    0.00462963   3 t-inv F
 -0.333333  0.000000  0.000000    0.00462963   3 t-inv F
  0.000000  0.333333  0.000000    0.00462963   3 t-inv F
  0.000000 -0.500000  0.000000    0.00462963   4 t-inv F
  0.166667 -0.166667  0.000000    0.00462963   5 t-inv F
 -0.166667 -0.166667  0.000000    0.00462963   5 t-inv F
 -0.166667  0.166667  0.000000    0.00462963   5 t-inv F
  0.166667 -0.333333  0.000000    0.00462963   6 t-inv F
 -0.333333 -0.166667  0.000000    0.00462963   6 t-inv F
 -0.166667  0.333333  0.000000    0.00462963   6 t-inv F
 -0.333333  0.166667  0.000000    0.00462963   6 t-inv F
 -0.166667 -0.333333  0.000000    0.00462963   6 t-inv F
  0.333333 -0.166667  0.000000    0.00462963   6 t-inv F
  0.166667  0.333333  0.000000    0.00462963   6 t-inv F
  0.166667 -0.500000  0.000000    0.00462963   7 t-inv F
 -0.500000 -0.166667  0.000000    0.00462963   7 t-inv F
 -0.166667  0.500000  0.000000    0.00462963   7 t-inv F
  0.333333 -0.333333  0.000000    0.00462963   8 t-inv F
 -0.333333 -0.333333  0.000000    0.00462963   8 t-inv F
 -0.333333  0.333333  0.000000    0.00462963   8 t-inv F
  0.333333 -0.500000  0.000000    0.00462963   9 t-inv F
 -0.500000 -0.333333  0.000000    0.00462963   9 t-inv F
 -0.333333  0.500000  0.000000    0.00462963   9 t-inv F
  0.000000  0.000000 -0.166667    0.00462963  11 t-inv F
  0.000000 -0.166667 -0.166667    0.00462963  12 t-inv F
 -0.166667  0.000000  0.166667    0.00462963  12 t-inv F
  0.000000  0.166667 -0.166667    0.00462963  12 t-inv F
 -0.166667  0.000000 -0.166667    0.00462963  12 t-inv F
  0.000000 -0.166667  0.166667    0.00462963  12 t-inv F
  0.166667  0.000000 -0.166667    0.00462963  12 t-inv F
  0.000000  0.166667  0.166667    0.00462963  12 t-inv F
  0.000000 -0.333333 -0.166667    0.00462963  13 t-inv F
 -0.333333  0.000000  0.166667    0.00462963  13 t-inv F
  0.000000  0.333333 -0.166667    0.00462963  13 t-inv F
 -0.333333  0.000000 -0.166667    0.00462963  13 t-inv F
  0.000000 -0.333333  0.166667    0.00462963  13 t-inv F
  0.333333  0.000000 -0.166667    0.00462963  13 t-inv F
  0.000000  0.333333  0.166667    0.00462963  13 t-inv F
  0.000000 -0.500000 -0.166667    0.00462963  14 t-inv F
 -0.500000  0.000000 -0.166667    0.00462963  14 t-inv F
  0.000000 -0.500000  0.166667    0.00462963  14 t-inv F
  0.166667 -0.166667 -0.166667    0.00462963  15 t-inv F
 -0.166667 -0.166667  0.166667    0.00462963  15 t-inv F
 -0.166667  0.166667 -0.166667    0.00462963  15 t-inv F
 -0.166667 -0.166667 -0.166667    0.00462963  15 t-inv F
 -0.166667  0.166667  0.166667    0.00462963  15 t-inv F
  0.166667  0.166667 -0.166667    0.00462963  15 t-inv F
  0.166667 -0.166667  0.166667    0.00462963  15 t-inv F
  0.166667 -0.333333 -0.166667    0.00462963  16 t-inv F
 -0.333333 -0.166667  0.166667    0.00462963  16 t-inv F
 -0.166667  0.333333 -0.166667    0.00462963  16 t-inv F
 -0.333333  0.166667 -0.166667    0.00462963  16 t-inv F
 -0.166667 -0.333333  0.166667    0.00462963  16 t-inv F
  0.333333 -0.166667 -0.166667    0.00462963  16 t-inv F
  0.166667  0.333333  0.166667    0.00462963  16 t-inv F
 -0.333333 -0.166667 -0.166667    0.00462963  16 t-inv F
 -0.166667  0.333333  0.166667    0.00462963  16 t-inv F
  0.333333  0.166667 -0.166667    0.00462963  16 t-inv F
  0.166667 -0.333333  0.166667    0.00462963  16 t-inv F
  0.333333 -0.166667  0.166667    0.00462963  16 t-inv F
  0.166667  0.333333 -0.166667    0.00462963  16 t-inv F
 -0.333333  0.166667  0.166667    0.00462963  16 t-inv F
 -0.166667 -0.333333 -0.166667    0.00462963  16 t-inv F
  0.166667 -0.500000 -0.166667    0.00462963  17 t-inv F
 -0.500000 -0.166667  0.166667    0.00462963  17 t-inv F
 -0.166667  0.500000 -0.166667    0.00462963  17 t-inv F
 -0.500000  0.166667 -0.166667    0.00462963  17 t-inv F
 -0.166667 -0.500000  0.166667    0.00462963  17 t-inv F
  0.500000 -0.166667 -0.166667    0.00462963  17 t-inv F
  0.166667  0.500000  0.166667    0.00462963  17 t-inv F
  0.333333 -0.333333 -0.166667    0.00462963  18 t-inv F
 -0.333333 -0.333333  0.166667    0.00462963  18 t-inv F
 -0.333333  0.333333 -0.166667    0.00462963  18 t-inv F
 -0.333333 -0.333333 -0.166667    0.00462963  18 t-inv F
 -0.333333  0.333333  0.166667    0.00462963  18 t-inv F
  0.333333  0.333333 -0.166667    0.00462963  18 t-inv F
  0.333333 -0.333333  0.166667    0.00462963  18 t-inv F
  0.333333 -0.500000 -0.166667    0.00462963  19 t-inv F
 -0.500000 -0.333333  0.166667    0.00462963  19 t-inv F
 -0.333333  0.500000 -0.166667    0.00462963  19 t-inv F
 -0.500000  0.333333 -0.166667    0.00462963  19 t-inv F
 -0.333333 -0.500000  0.166667    0.00462963  19 t-inv F
  0.500000 -0.333333 -0.166667    0.00462963  19 t-inv F
  0.333333  0.500000  0.166667    0.00462963  19 t-inv F
  0.500000 -0.500000 -0.166667    0.00462963  20 t-inv F
  0.000000  0.000000 -0.333333    0.00462963  21 t-inv F
  0.000000 -0.166667 -0.333333    0.00462963  22 t-inv F
 -0.166667  0.000000  0.333333    0.00462963  22 t-inv F
  0.000000  0.166667 -0.333333    0.00462963  22 t-inv F
 -0.166667  0.000000 -0.333333    0.00462963  22 t-inv F
  0.000000 -0.166667  0.333333    0.00462963  22 t-inv F
  0.166667  0.000000 -0.333333    0.00462963  22 t-inv F
  0.000000  0.166667  0.333333    0.00462963  22 t-inv F
  0.000000 -0.333333 -0.333333    0.00462963  23 t-inv F
 -0.333333  0.000000  0.333333    0.00462963  23 t-inv F
  0.000000  0.333333 -0.333333    0.00462963  23 t-inv F
 -0.333333  0.000000 -0.333333    0.00462963  23 t-inv F
  0.000000 -0.333333  0.333333    0.00462963  23 t-inv F
  0.333333  0.000000 -0.333333    0.00462963  23 t-inv F
  0.000000  0.333333  0.333333    0.00462963  23 t-inv F
  0.000000 -0.500000 -0.333333    0.00462963  24 t-inv F
 -0.500000  0.000000 -0.333333    0.00462963  24 t-inv F
  0.000000 -0.500000  0.333333    0.00462963  24 t-inv F
  0.166667 -0.166667 -0.333333    0.00462963  25 t-inv F
 -0.166667 -0.166667  0.333333    0.00462963  25 t-inv F
 -0.166667  0.166667 -0.333333    0.00462963  25 t-inv F
 -0.166667 -0.166667 -0.333333    0.00462963  25 t-inv F
 -0.166667  0.166667  0.333333    0.00462963  25 t-inv F
  0.166667  0.166667 -0.333333    0.00462963  25 t-inv F
  0.166667 -0.166667  0.333333    0.00462963  25 t-inv F
  0.166667 -0.333333 -0.333333    0.00462963  26 t-inv F
 -0.333333 -0.166667  0.333333    0.00462963  26 t-inv F
 -0.166667  0.333333 -0.333333    0.00462963  26 t-inv F
 -0.333333  0.166667 -0.333333    0.00462963  26 t-inv F
 -0.166667 -0.333333  0.333333    0.00462963  26 t-inv F
  0.333333 -0.166667 -0.333333    0.00462963  26 t-inv F
  0.166667  0.333333  0.333333    0.00462963  26 t-inv F
 -0.333333 -0.166667 -0.333333    0.00462963  26 t-inv F
 -0.166667  0.333333  0.333333    0.00462963  26 t-inv F
  0.333333  0.166667 -0.333333    0.00462963  26 t-inv F
  0.166667 -0.333333  0.333333    0.00462963  26 t-inv F
  0.333333 -0.166667  0.333333    0.00462963  26 t-inv F
  0.166667  0.333333 -0.333333    0.00462963  26 t-inv F
 -0.333333  0.166667  0.333333    0.00462963  26 t-inv F
 -0.166667 -0.333333 -0.333333    0.00462963  26 t-inv F
  0.166667 -0.500000 -0.333333    0.00462963  27 t-inv F
 -0.500000 -0.166667  0.333333    0.00462963  27 t-inv F
 -0.166667  0.500000 -0.333333    0.00462963  27 t-inv F
 -0.500000  0.166667 -0.333333    0.00462963  27 t-inv F
 -0.166667 -0.500000  0.333333    0.00462963  27 t-inv F
  0.500000 -0.166667 -0.333333    0.00462963  27 t-inv F
  0.166667  0.500000  0.333333    0.00462963  27 t-inv F
  0.333333 -0.333333 -0.333333    0.00462963  28 t-inv F
 -0.333333 -0.333333  0.333333    0.00462963  28 t-inv F
 -0.333333  0.333333 -0.333333    0.00462963  28 t-inv F
 -0.333333 -0.333333 -0.333333    0.00462963  28 t-inv F
 -0.333333  0.333333  0.333333    0.00462963  28 t-inv F
  0.333333  0.333333 -0.333333    0.00462963  28 t-inv F
  0.333333 -0.333333  0.333333    0.00462963  28 t-inv F
  0.333333 -0.500000 -0.333333    0.00462963  29 t-inv F
 -0.500000 -0.333333  0.333333    0.00462963  29 t-inv F
 -0.333333  0.500000 -0.333333    0.00462963  29 t-inv F
 -0.500000  0.333333 -0.333333    0.00462963  29 t-inv F
 -0.333333 -0.500000  0.333333    0.00462963  29 t-inv F
  0.500000 -0.333333 -0.333333    0.00462963  29 t-inv F
  0.333333  0.500000  0.333333    0.00462963  29 t-inv F
  0.500000 -0.500000 -0.333333    0.00462963  30 t-inv F
  0.000000 -0.166667 -0.500000    0.00462963  32 t-inv F
 -0.166667  0.000000  0.500000    0.00462963  32 t-inv F
  0.000000  0.166667 -0.500000    0.00462963  32 t-inv F
  0.000000 -0.333333 -0.500000    0.00462963  33 t-inv F
 -0.333333  0.000000  0.500000    0.00462963  33 t-inv F
  0.000000  0.333333 -0.500000    0.00462963  33 t-inv F
  0.000000 -0.500000 -0.500000    0.00462963  34 t-inv F
  0.166667 -0.166667 -0.500000    0.00462963  35 t-inv F
 -0.166667 -0.166667  0.500000    0.00462963  35 t-inv F
 -0.166667  0.166667 -0.500000    0.00462963  35 t-inv F
  0.166667 -0.333333 -0.500000    0.00462963  36 t-inv F
 -0.333333 -0.166667  0.500000    0.00462963  36 t-inv F
 -0.166667  0.333333 -0.500000    0.00462963  36 t-inv F
 -0.333333  0.166667 -0.500000    0.00462963  36 t-inv F
 -0.166667 -0.333333  0.500000    0.00462963  36 t-inv F
  0.333333 -0.166667 -0.500000    0.00462963  36 t-inv F
  0.166667  0.333333  0.500000    0.00462963  36 t-inv F
  0.166667 -0.500000 -0.500000    0.00462963  37 t-inv F
 -0.500000 -0.166667  0.500000    0.00462963  37 t-inv F
 -0.166667  0.500000 -0.500000    0.00462963  37 t-inv F
  0.333333 -0.333333 -0.500000    0.00462963  38 t-inv F
 -0.333333 -0.333333  0.500000    0.00462963  38 t-inv F
 -0.333333  0.333333 -0.500000    0.00462963  38 t-inv F
  0.333333 -0.500000 -0.500000    0.00462963  39 t-inv F
 -0.500000 -0.333333  0.500000    0.00462963  39 t-inv F
 -0.333333  0.500000 -0.500000    0.00462963  39 t-inv F


--------------------------------------------------------------------------------------------------------




 Dimension of arrays:
   k-points           NKPTS =     40   k-points in BZ     NKDIM =     40   number of bands    NBANDS=    192
   number of dos      NEDOS =    301   number of ions     NIONS =     64
   non local maximal  LDIM  =      4   non local SUM 2l+1 LMDIM =      8
   total plane-waves  NPLWV = 110592
   max r-space proj   IRMAX =      1   max aug-charges    IRDMAX=  31537
   dimension x,y,z NGX =    48 NGY =   48 NGZ =   48
   dimension x,y,z NGXF=    96 NGYF=   96 NGZF=   96
   support grid    NGXF=   192 NGYF=  192 NGZF=  192
   ions per type =              64
   NGX,Y,Z   is equivalent  to a cutoff of  11.72, 11.72, 11.11 a.u.
   NGXF,Y,Z  is equivalent  to a cutoff of  23.43, 23.43, 22.23 a.u.

 SYSTEM =  unknown system                          
 POSCAR =  generated by phonopy                    

 Startparameter for this run:
   NWRITE =      2    write-flag & timer
   PREC   = accura    normal or accurate (medium, high low for compatibility)
   ISTART =      0    job   : 0-new  1-cont  2-samecut
   ICHARG =      2    charge: 1-file 2-atom 10-const
   ISPIN  =      1    spin polarized calculation?
   LNONCOLLINEAR =      F non collinear calculations
   LSORBIT =      F    spin-orbit coupling
   INIWAV =      1    electr: 0-lowe 1-rand  2-diag
   LASPH  =      F    aspherical Exc in radial PAW
   METAGGA=      F    non-selfconsistent MetaGGA calc.

 Electronic Relaxation 1
   ENCUT  =  400.0 eV  29.40 Ry    5.42 a.u.  11.11 11.11 11.71*2*pi/ulx,y,z
   ENINI  =  400.0     initial cutoff
   ENAUG  =  644.9 eV  augmentation charge cutoff
   NELM   =     60;   NELMIN=  2; NELMDL=  0     # of ELM steps 
   EDIFF  = 0.1E-07   stopping-criterion for ELM
   LREAL  =      F    real-space projection
   NLSPLINE    = F    spline interpolate recip. space projectors
   LCOMPAT=      F    compatible to vasp.4.4
   GGA_COMPAT  = T    GGA compatible to vasp.4.4-vasp.4.6
   LMAXPAW     = -100 max onsite density
   LMAXMIX     =    2 max onsite mixed and CHGCAR
   VOSKOWN=      0    Vosko Wilk Nusair interpolation
   ROPT   =    0.00000
 Ionic relaxation
   EDIFFG = 0.1E-06   stopping-criterion for IOM
   NSW    =      1    number of steps for IOM
   NBLOCK =      1;   KBLOCK =      1    inner block; outer block 
   IBRION =      8    ionic relax: 0-MD 1-quasi-New 2-CG
   NFREE  =      0    steps in history (QN), initial steepest desc. (CG)
   ISIF   =      2    stress and relaxation
   IWAVPR =     11    prediction:  0-non 1-charg 2-wave 3-comb
   ISYM   =      2    0-nonsym 1-usesym 2-fastsym
   LCORR  =      T    Harris-Foulkes like correction to forces

   POTIM  = 0.5000    time-step for ionic-motion
   TEIN   =    0.0    initial temperature
   TEBEG  =    0.0;   TEEND  =   0.0 temperature during run
   SMASS  =  -3.00    Nose mass-parameter (am)
   estimated Nose-frequenzy (Omega)   =  0.10E-29 period in steps =****** mass=  -0.106E-26a.u.
   SCALEE = 1.0000    scale energy and forces
   NPACO  =    256;   APACO  = 16.0  distance and # of slots for P.C.
   PSTRESS=    0.0 pullay stress

  Mass of Ions in am
   POMASS =  12.01
  Ionic Valenz
   ZVAL   =   4.00
  Atomic Wigner-Seitz radii
   RWIGS  =  -1.00
  virtual crystal weights 
   VCA    =   1.00
   NELECT =     256.0000    total number of electrons
   NUPDOWN=      -1.0000    fix difference up-down

 DOS related values:
   EMIN   =  10.00;   EMAX   =-10.00  energy-range for DOS
   EFERMI =   0.00
   ISMEAR =     0;   SIGMA  =   0.06  broadening in eV -4-tet -1-fermi 0-gaus

 Electronic relaxation 2 (details)
   IALGO  =     38    algorithm
   LDIAG  =      T    sub-space diagonalisation (order eigenvalues)
   LSUBROT=      F    optimize rotation matrix (better conditioning)
   TURBO    =      0    0=normal 1=particle mesh
   IRESTART =      0    0=no restart 2=restart with 2 vectors
   NREBOOT  =      0    no. of reboots
   NMIN     =      0    reboot dimension
   EREF     =   0.00    reference energy to select bands
   IMIX   =      4    mixing-type and parameters
     AMIX     =   0.40;   BMIX     =  1.00
     AMIX_MAG =   1.60;   BMIX_MAG =  1.00
     AMIN     =   0.10
     WC   =   100.;   INIMIX=   1;  MIXPRE=   1;  MAXMIX= -45

 Intra band minimization:
   WEIMIN = 0.0010     energy-eigenvalue tresh-hold
   EBREAK =  0.13E-10  absolut break condition
   DEPER  =   0.30     relativ break condition  

   TIME   =   0.40     timestep for ELM

  volume/ion in A,a.u.               =       5.21        35.13
  Fermi-wavevector in a.u.,A,eV,Ry     =   1.499511  2.833665 30.593146  2.248533
  Thomas-Fermi vector in A             =   2.611131
 
 Write flags
   LWAVE        =      F    write WAVECAR
   LDOWNSAMPLE  =      F    k-point downsampling of WAVECAR
   LCHARG       =      F    write CHGCAR
   LVTOT        =      F    write LOCPOT, total local potential
   LVHAR        =      F    write LOCPOT, Hartree potential only
   LELF         =      F    write electronic localiz. function (ELF)
   LORBIT       =      0    0 simple, 1 ext, 2 COOP (PROOUT), +10 PAW based schemes


 Dipole corrections
   LMONO  =      F    monopole corrections only (constant potential shift)
   LDIPOL =      F    correct potential (dipole corrections)
   IDIPOL =      0    1-x, 2-y, 3-z, 4-all directions 
   EPSILON=  1.0000000 bulk dielectric constant

 Exchange correlation treatment:
   GGA     =    --    GGA type
   LEXCH   =     8    internal setting for exchange type
   VOSKOWN=      0    Vosko Wilk Nusair interpolation
   LHFCALC =     F    Hartree Fock is set to
   LHFONE  =     F    Hartree Fock one center treatment
   AEXX    =    0.0000 exact exchange contribution

 Linear response parameters
   LEPSILON=     F    determine dielectric tensor
   LRPA    =     F    only Hartree local field effects (RPA)
   LNABLA  =     F    use nabla operator in PAW spheres
   LVEL    =     F    velocity operator in full k-point grid
   LINTERFAST=   F  fast interpolation
   KINTER  =     0    interpolate to denser k-point grid
   CSHIFT  =0.1000    complex shift for real part using Kramers Kronig
   OMEGAMAX=  -1.0    maximum frequency
   DEG_THRESHOLD= 0.2000000E-02 threshold for treating states as degnerate
   RTIME   =   -0.100 relaxation time in fs
  (WPLASMAI=    0.000 imaginary part of plasma frequency in eV, 0.658/RTIME)
   DFIELD  = 0.0000000 0.0000000 0.0000000 field for delta impulse in time
 
 Orbital magnetization related:
   ORBITALMAG=     F  switch on orbital magnetization
   LCHIMAG   =     F  perturbation theory with respect to B field
   DQ        =  0.001000  dq finite difference perturbation B field
   LLRAUG    =     F  two centre corrections for induced B field



--------------------------------------------------------------------------------------------------------


 linear response using symmetry
 charge density and potential will be updated during run
 non-spin polarized calculation
 Variant of blocked Davidson
 Davidson routine will perform the subspace rotation
 perform sub-space diagonalisation
    after iterative eigenvector-optimisation
 modified Broyden-mixing scheme, WC =      100.0
 initial mixing is a Kerker type mixing with AMIX =  0.4000 and BMIX =      1.0000
 Hartree-type preconditioning will be used
 using additional bands           64
 reciprocal scheme for non local part
 calculate Harris-corrections to forces 
   (improved forces if not selfconsistent)
 use gradient corrections 
 use of overlap-Matrix (Vanderbilt PP)
 Gauss-broadening in eV      SIGMA  =   0.06


--------------------------------------------------------------------------------------------------------


  energy-cutoff  :      400.00
  volume of cell :      333.13
      direct lattice vectors                 reciprocal lattice vectors
     6.811544886  0.000000000  0.000000000     0.146809574  0.000000000  0.000000000
     0.000000000  6.811544886  0.000000000     0.000000000  0.146809574  0.000000000
     0.000000000  0.000000000  7.179998718     0.000000000  0.000000000  0.139275791

  length of vectors
     6.811544886  6.811544886  7.179998718     0.146809574  0.146809574  0.139275791


 
 k-points in units of 2pi/SCALE and weight: kpt_density=3000                        
   0.00000000  0.00000000  0.00000000       0.005
   0.02446826  0.00000000  0.00000000       0.019
   0.04893652  0.00000000  0.00000000       0.019
   0.07340479  0.00000000  0.00000000       0.009
   0.02446826  0.02446826  0.00000000       0.019
   0.04893652  0.02446826  0.00000000       0.037
   0.07340479  0.02446826  0.00000000       0.019
   0.04893652  0.04893652  0.00000000       0.019
   0.07340479  0.04893652  0.00000000       0.019
   0.07340479  0.07340479  0.00000000       0.005
   0.00000000  0.00000000  0.02321263       0.009
   0.02446826  0.00000000  0.02321263       0.037
   0.04893652  0.00000000  0.02321263       0.037
   0.07340479  0.00000000  0.02321263       0.019
   0.02446826  0.02446826  0.02321263       0.037
   0.04893652  0.02446826  0.02321263       0.074
   0.07340479  0.02446826  0.02321263       0.037
   0.04893652  0.04893652  0.02321263       0.037
   0.07340479  0.04893652  0.02321263       0.037
   0.07340479  0.07340479  0.02321263       0.009
   0.00000000  0.00000000  0.04642526       0.009
   0.02446826  0.00000000  0.04642526       0.037
   0.04893652  0.00000000  0.04642526       0.037
   0.07340479  0.00000000  0.04642526       0.019
   0.02446826  0.02446826  0.04642526       0.037
   0.04893652  0.02446826  0.04642526       0.074
   0.07340479  0.02446826  0.04642526       0.037
   0.04893652  0.04893652  0.04642526       0.037
   0.07340479  0.04893652  0.04642526       0.037
   0.07340479  0.07340479  0.04642526       0.009
   0.00000000  0.00000000  0.06963790       0.005
   0.02446826  0.00000000  0.06963790       0.019
   0.04893652  0.00000000  0.06963790       0.019
   0.07340479  0.00000000  0.06963790       0.009
   0.02446826  0.02446826  0.06963790       0.019
   0.04893652  0.02446826  0.06963790       0.037
   0.07340479  0.02446826  0.06963790       0.019
   0.04893652  0.04893652  0.06963790       0.019
   0.07340479  0.04893652  0.06963790       0.019
   0.07340479  0.07340479  0.06963790       0.005
 
 k-points in reciprocal lattice and weights: kpt_density=3000                        
   0.00000000  0.00000000  0.00000000       0.005
   0.16666667  0.00000000  0.00000000       0.019
   0.33333333  0.00000000  0.00000000       0.019
   0.50000000  0.00000000  0.00000000       0.009
   0.16666667  0.16666667  0.00000000       0.019
   0.33333333  0.16666667  0.00000000       0.037
   0.50000000  0.16666667  0.00000000       0.019
   0.33333333  0.33333333  0.00000000       0.019
   0.50000000  0.33333333  0.00000000       0.019
   0.50000000  0.50000000  0.00000000       0.005
   0.00000000  0.00000000  0.16666667       0.009
   0.16666667  0.00000000  0.16666667       0.037
   0.33333333  0.00000000  0.16666667       0.037
   0.50000000  0.00000000  0.16666667       0.019
   0.16666667  0.16666667  0.16666667       0.037
   0.33333333  0.16666667  0.16666667       0.074
   0.50000000  0.16666667  0.16666667       0.037
   0.33333333  0.33333333  0.16666667       0.037
   0.50000000  0.33333333  0.16666667       0.037
   0.50000000  0.50000000  0.16666667       0.009
   0.00000000  0.00000000  0.33333333       0.009
   0.16666667  0.00000000  0.33333333       0.037
   0.33333333  0.00000000  0.33333333       0.037
   0.50000000  0.00000000  0.33333333       0.019
   0.16666667  0.16666667  0.33333333       0.037
   0.33333333  0.16666667  0.33333333       0.074
   0.50000000  0.16666667  0.33333333       0.037
   0.33333333  0.33333333  0.33333333       0.037
   0.50000000  0.33333333  0.33333333       0.037
   0.50000000  0.50000000  0.33333333       0.009
   0.00000000  0.00000000  0.50000000       0.005
   0.16666667  0.00000000  0.50000000       0.019
   0.33333333  0.00000000  0.50000000       0.019
   0.50000000  0.00000000  0.50000000       0.009
   0.16666667  0.16666667  0.50000000       0.019
   0.33333333  0.16666667  0.50000000       0.037
   0.50000000  0.16666667  0.50000000       0.019
   0.33333333  0.33333333  0.50000000       0.019
   0.50000000  0.33333333  0.50000000       0.019
   0.50000000  0.50000000  0.50000000       0.005
 
 position of ions in fractional coordinates (direct lattice) 
   0.12500000  0.37500000  0.12500000
   0.62500000  0.37500000  0.12500000
   0.12500000  0.87500000  0.12500000
   0.62500000  0.87500000  0.12500000
   0.12500000  0.37500000  0.62500000
   0.62500000  0.37500000  0.62500000
   0.12500000  0.87500000  0.62500000
   0.62500000  0.87500000  0.62500000
   0.00000000  0.00000000  0.25000000
   0.50000000  0.00000000  0.25000000
   0.00000000  0.50000000  0.25000000
   0.50000000  0.50000000  0.25000000
   0.00000000  0.00000000  0.75000000
   0.50000000  0.00000000  0.75000000
   0.00000000  0.50000000  0.75000000
   0.50000000  0.50000000  0.75000000
   0.12500000  0.12500000  0.37500000
   0.62500000  0.12500000  0.37500000
   0.12500000  0.62500000  0.37500000
   0.62500000  0.62500000  0.37500000
   0.12500000  0.12500000  0.87500000
   0.62500000  0.12500000  0.87500000
   0.12500000  0.62500000  0.87500000
   0.62500000  0.62500000  0.87500000
   0.00000000  0.25000000  0.00000000
   0.50000000  0.25000000  0.00000000
   0.00000000  0.75000000  0.00000000
   0.50000000  0.75000000  0.00000000
   0.00000000  0.25000000  0.50000000
   0.50000000  0.25000000  0.50000000
   0.00000000  0.75000000  0.50000000
   0.50000000  0.75000000  0.50000000
   0.37500000  0.37500000  0.37500000
   0.87500000  0.37500000  0.37500000
   0.37500000  0.87500000  0.37500000
   0.87500000  0.87500000  0.37500000
   0.37500000  0.37500000  0.87500000
   0.87500000  0.37500000  0.87500000
   0.37500000  0.87500000  0.87500000
   0.87500000  0.87500000  0.87500000
   0.25000000  0.00000000  0.00000000
   0.75000000  0.00000000  0.00000000
   0.25000000  0.50000000  0.00000000
   0.75000000  0.50000000  0.00000000
   0.25000000  0.00000000  0.50000000
   0.75000000  0.00000000  0.50000000
   0.25000000  0.50000000  0.50000000
   0.75000000  0.50000000  0.50000000
   0.37500000  0.12500000  0.12500000
   0.87500000  0.12500000  0.12500000
   0.37500000  0.62500000  0.12500000
   0.87500000  0.62500000  0.12500000
   0.37500000  0.12500000  0.62500000
   0.87500000  0.12500000  0.62500000
   0.37500000  0.62500000  0.62500000
   0.87500000  0.62500000  0.62500000
   0.25000000  0.25000000  0.25000000
   0.75000000  0.25000000  0.25000000
   0.25000000  0.75000000  0.25000000
   0.75000000  0.75000000  0.25000000
   0.25000000  0.25000000  0.75000000
   0.75000000  0.25000000  0.75000000
   0.25000000  0.75000000  0.75000000
   0.75000000  0.75000000  0.75000000
 
 position of ions in cartesian coordinates  (Angst):
   0.85144311  2.55432933  0.89749984
   4.25721555  2.55432933  0.89749984
   0.85144311  5.96010177  0.89749984
   4.25721555  5.96010177  0.89749984
   0.85144311  2.55432933  4.48749920
   4.25721555  2.55432933  4.48749920
   0.85144311  5.96010177  4.48749920
   4.25721555  5.96010177  4.48749920
   0.00000000  0.00000000  1.79499968
   3.40577244  0.00000000  1.79499968
   0.00000000  3.40577244  1.79499968
   3.40577244  3.40577244  1.79499968
   0.00000000  0.00000000  5.38499904
   3.40577244  0.00000000  5.38499904
   0.00000000  3.40577244  5.38499904
   3.40577244  3.40577244  5.38499904
   0.85144311  0.85144311  2.69249952
   4.25721555  0.85144311  2.69249952
   0.85144311  4.25721555  2.69249952
   4.25721555  4.25721555  2.69249952
   0.85144311  0.85144311  6.28249888
   4.25721555  0.85144311  6.28249888
   0.85144311  4.25721555  6.28249888
   4.25721555  4.25721555  6.28249888
   0.00000000  1.70288622  0.00000000
   3.40577244  1.70288622  0.00000000
   0.00000000  5.10865866  0.00000000
   3.40577244  5.10865866  0.00000000
   0.00000000  1.70288622  3.58999936
   3.40577244  1.70288622  3.58999936
   0.00000000  5.10865866  3.58999936
   3.40577244  5.10865866  3.58999936
   2.55432933  2.55432933  2.69249952
   5.96010177  2.55432933  2.69249952
   2.55432933  5.96010177  2.69249952
   5.96010177  5.96010177  2.69249952
   2.55432933  2.55432933  6.28249888
   5.96010177  2.55432933  6.28249888
   2.55432933  5.96010177  6.28249888
   5.96010177  5.96010177  6.28249888
   1.70288622  0.00000000  0.00000000
   5.10865866  0.00000000  0.00000000
   1.70288622  3.40577244  0.00000000
   5.10865866  3.40577244  0.00000000
   1.70288622  0.00000000  3.58999936
   5.10865866  0.00000000  3.58999936
   1.70288622  3.40577244  3.58999936
   5.10865866  3.40577244  3.58999936
   2.55432933  0.85144311  0.89749984
   5.96010177  0.85144311  0.89749984
   2.55432933  4.25721555  0.89749984
   5.96010177  4.25721555  0.89749984
   2.55432933  0.85144311  4.48749920
   5.96010177  0.85144311  4.48749920
   2.55432933  4.25721555  4.48749920
   5.96010177  4.25721555  4.48749920
   1.70288622  1.70288622  1.79499968
   5.10865866  1.70288622  1.79499968
   1.70288622  5.10865866  1.79499968
   5.10865866  5.10865866  1.79499968
   1.70288622  1.70288622  5.38499904
   5.10865866  1.70288622  5.38499904
   1.70288622  5.10865866  5.38499904
   5.10865866  5.10865866  5.38499904
 


--------------------------------------------------------------------------------------------------------


 k-point  1 :   0.0000 0.0000 0.0000  plane waves:    6039
 k-point  2 :   0.1667 0.0000 0.0000  plane waves:    6054
 k-point  3 :   0.3333 0.0000 0.0000  plane waves:    6052
 k-point  4 :   0.5000 0.0000 0.0000  plane waves:    6038
 k-point  5 :   0.1667 0.1667 0.0000  plane waves:    6038
 k-point  6 :   0.3333 0.1667 0.0000  plane waves:    6043
 k-point  7 :   0.5000 0.1667 0.0000  plane waves:    6056
 k-point  8 :   0.3333 0.3333 0.0000  plane waves:    6084
 k-point  9 :   0.5000 0.3333 0.0000  plane waves:    6074
 k-point 10 :   0.5000 0.5000 0.0000  plane waves:    6064
 k-point 11 :   0.0000 0.0000 0.1667  plane waves:    6055
 k-point 12 :   0.1667 0.0000 0.1667  plane waves:    6046
 k-point 13 :   0.3333 0.0000 0.1667  plane waves:    6034
 k-point 14 :   0.5000 0.0000 0.1667  plane waves:    6062
 k-point 15 :   0.1667 0.1667 0.1667  plane waves:    6050
 k-point 16 :   0.3333 0.1667 0.1667  plane waves:    6053
 k-point 17 :   0.5000 0.1667 0.1667  plane waves:    6054
 k-point 18 :   0.3333 0.3333 0.1667  plane waves:    6075
 k-point 19 :   0.5000 0.3333 0.1667  plane waves:    6050
 k-point 20 :   0.5000 0.5000 0.1667  plane waves:    6036
 k-point 21 :   0.0000 0.0000 0.3333  plane waves:    6024
 k-point 22 :   0.1667 0.0000 0.3333  plane waves:    6048
 k-point 23 :   0.3333 0.0000 0.3333  plane waves:    6061
 k-point 24 :   0.5000 0.0000 0.3333  plane waves:    6070
 k-point 25 :   0.1667 0.1667 0.3333  plane waves:    6033
 k-point 26 :   0.3333 0.1667 0.3333  plane waves:    6051
 k-point 27 :   0.5000 0.1667 0.3333  plane waves:    6052
 k-point 28 :   0.3333 0.3333 0.3333  plane waves:    6050
 k-point 29 :   0.5000 0.3333 0.3333  plane waves:    6050
 k-point 30 :   0.5000 0.5000 0.3333  plane waves:    6088
 k-point 31 :   0.0000 0.0000 0.5000  plane waves:    6032
 k-point 32 :   0.1667 0.0000 0.5000  plane waves:    6034
 k-point 33 :   0.3333 0.0000 0.5000  plane waves:    6060
 k-point 34 :   0.5000 0.0000 0.5000  plane waves:    6060
 k-point 35 :   0.1667 0.1667 0.5000  plane waves:    6050
 k-point 36 :   0.3333 0.1667 0.5000  plane waves:    6052
 k-point 37 :   0.5000 0.1667 0.5000  plane waves:    6052
 k-point 38 :   0.3333 0.3333 0.5000  plane waves:    6040
 k-point 39 :   0.5000 0.3333 0.5000  plane waves:    6056
 k-point 40 :   0.5000 0.5000 0.5000  plane waves:    6048

 maximum and minimum number of plane-waves per node :      6088     6024

 maximum number of plane-waves:      6088
 maximum index in each direction: 
   IXMAX=   11   IYMAX=   11   IZMAX=   11
   IXMIN=  -11   IYMIN=  -11   IZMIN=  -12


 serial   3D FFT for wavefunctions
 parallel 3D FFT for charge:
    minimum data exchange during FFTs selected (reduces bandwidth)


 total amount of memory used by VASP MPI-rank0    87880. kBytes
=======================================================================

   base      :      30000. kBytes
   nonl-proj :      21905. kBytes
   fftplans  :       4537. kBytes
   grid      :       5806. kBytes
   one-center:        196. kBytes
   wavefun   :      25436. kBytes
 
     INWAV:  cpu time    0.0004: real time    0.0005
 Broyden mixing: mesh for mixing (old mesh)
   NGX = 23   NGY = 23   NGZ = 23
  (NGX  = 96   NGY  = 96   NGZ  = 96)
  gives a total of  12167 points

 initial charge density was supplied:
 charge density of overlapping atoms calculated
 number of electron     256.0000000 magnetization 
 keeping initial charge density in first step


--------------------------------------------------------------------------------------------------------


 Maximum index for augmentation-charges         1159 (set IRDMAX)


--------------------------------------------------------------------------------------------------------


 First call to EWALD:  gamma=   0.256
 Maximum number of real-space cells 3x 3x 3
 Maximum number of reciprocal cells 3x 3x 3

    FEWALD:  cpu time    0.0084: real time    0.0084


--------------------------------------- Iteration      1(   1)  ---------------------------------------


    POTLOK:  cpu time    0.0640: real time    0.1130
    SETDIJ:  cpu time    0.0440: real time    0.0442
     EDDAV:  cpu time   25.4400: real time   25.4529
       DOS:  cpu time    0.0079: real time    0.0079
    --------------------------------------------
      LOOP:  cpu time   25.5560: real time   25.6181

 eigenvalue-minimisations  : 15360
 total energy-change (2. order) : 0.5276141E+03  (-0.1153485E+05)
 number of electron     256.0000000 magnetization 
 augmentation part      256.0000000 magnetization 

 Free energy of the ion-electron system (eV)
  ---------------------------------------------------
  alpha Z        PSCENC =      1001.83506926
  Ewald energy   TEWEN  =    -11463.00659502
  -Hartree energ DENC   =      -503.19290836
  -exchange      EXHF   =         0.00000000
  -V(xc)+E(xc)   XCENC  =       932.94645326
  PAW double counting   =      2421.21235816    -2494.84305711
  entropy T*S    EENTRO =        -0.00825640
  eigenvalues    EBANDS =      1216.52875558
  atomic energy  EATOM  =      9416.14232778
  Solvation  Ediel_sol  =         0.00000000
  ---------------------------------------------------
  free energy    TOTEN  =       527.61414715 eV

  energy without entropy =      527.62240354  energy(sigma->0) =      527.61827535


--------------------------------------------------------------------------------------------------------




--------------------------------------- Iteration      1(   2)  ---------------------------------------


     EDDAV:  cpu time   32.1446: real time   32.1468
       DOS:  cpu time    0.0041: real time    0.0041
    --------------------------------------------
      LOOP:  cpu time   32.1487: real time   32.1509

 eigenvalue-minimisations  : 20160
 total energy-change (2. order) :-0.1088990E+04  (-0.1039454E+04)
 number of electron     256.0000000 magnetization 
 augmentation part      256.0000000 magnetization 

 Free energy of the ion-electron system (eV)
  ---------------------------------------------------
  alpha Z        PSCENC =      1001.83506926
  Ewald energy   TEWEN  =    -11463.00659502
  -Hartree energ DENC   =      -503.19290836
  -exchange      EXHF   =         0.00000000
  -V(xc)+E(xc)   XCENC  =       932.94645326
  PAW double counting   =      2421.21235816    -2494.84305711
  entropy T*S    EENTRO =        -0.00000000
  eigenvalues    EBANDS =       127.53062438
  atomic energy  EATOM  =      9416.14232778
  Solvation  Ediel_sol  =         0.00000000
  ---------------------------------------------------
  free energy    TOTEN  =      -561.37572767 eV

  energy without entropy =     -561.37572767  energy(sigma->0) =     -561.37572767


--------------------------------------------------------------------------------------------------------




--------------------------------------- Iteration      1(   3)  ---------------------------------------


     EDDAV:  cpu time   32.6947: real time   32.6966
       DOS:  cpu time    0.0054: real time    0.0054
    --------------------------------------------
      LOOP:  cpu time   32.7001: real time   32.7020

 eigenvalue-minimisations  : 20160
 total energy-change (2. order) :-0.3980609E+02  (-0.3958654E+02)
 number of electron     256.0000000 magnetization 
 augmentation part      256.0000000 magnetization 

 Free energy of the ion-electron system (eV)
  ---------------------------------------------------
  alpha Z        PSCENC =      1001.83506926
  Ewald energy   TEWEN  =    -11463.00659502
  -Hartree energ DENC   =      -503.19290836
  -exchange      EXHF   =         0.00000000
  -V(xc)+E(xc)   XCENC  =       932.94645326
  PAW double counting   =      2421.21235816    -2494.84305711
  entropy T*S    EENTRO =        -0.00000000
  eigenvalues    EBANDS =        87.72453873
  atomic energy  EATOM  =      9416.14232778
  Solvation  Ediel_sol  =         0.00000000
  ---------------------------------------------------
  free energy    TOTEN  =      -601.18181331 eV

  energy without entropy =     -601.18181331  energy(sigma->0) =     -601.18181331


--------------------------------------------------------------------------------------------------------




--------------------------------------- Iteration      1(   4)  ---------------------------------------


     EDDAV:  cpu time   32.3335: real time   32.3354
       DOS:  cpu time    0.0045: real time    0.0045
    --------------------------------------------
      LOOP:  cpu time   32.3379: real time   32.3399

 eigenvalue-minimisations  : 20000
 total energy-change (2. order) :-0.3721489E+00  (-0.3714746E+00)
 number of electron     256.0000000 magnetization 
 augmentation part      256.0000000 magnetization 

 Free energy of the ion-electron system (eV)
  ---------------------------------------------------
  alpha Z        PSCENC =      1001.83506926
  Ewald energy   TEWEN  =    -11463.00659502
  -Hartree energ DENC   =      -503.19290836
  -exchange      EXHF   =         0.00000000
  -V(xc)+E(xc)   XCENC  =       932.94645326
  PAW double counting   =      2421.21235816    -2494.84305711
  entropy T*S    EENTRO =        -0.00000000
  eigenvalues    EBANDS =        87.35238984
  atomic energy  EATOM  =      9416.14232778
  Solvation  Ediel_sol  =         0.00000000
  ---------------------------------------------------
  free energy    TOTEN  =      -601.55396220 eV

  energy without entropy =     -601.55396220  energy(sigma->0) =     -601.55396220


--------------------------------------------------------------------------------------------------------




--------------------------------------- Iteration      1(   5)  ---------------------------------------


     EDDAV:  cpu time   31.5240: real time   31.5259
       DOS:  cpu time    0.0045: real time    0.0045
    CHARGE:  cpu time    0.7474: real time    0.7477
    MIXING:  cpu time    0.0094: real time    0.0094
    --------------------------------------------
      LOOP:  cpu time   32.2854: real time   32.2875

 eigenvalue-minimisations  : 19136
 total energy-change (2. order) :-0.7349824E-02  (-0.7347240E-02)
 number of electron     255.9999995 magnetization 
 augmentation part        6.8766416 magnetization 

 Broyden mixing:
  rms(total) = 0.29740E+01    rms(broyden)= 0.29734E+01
  rms(prec ) = 0.43280E+01
  weight for this iteration     100.00

 Free energy of the ion-electron system (eV)
  ---------------------------------------------------
  alpha Z        PSCENC =      1001.83506926
  Ewald energy   TEWEN  =    -11463.00659502
  -Hartree energ DENC   =      -503.19290836
  -exchange      EXHF   =         0.00000000
  -V(xc)+E(xc)   XCENC  =       932.94645326
  PAW double counting   =      2421.21235816    -2494.84305711
  entropy T*S    EENTRO =        -0.00000000
  eigenvalues    EBANDS =        87.34504002
  atomic energy  EATOM  =      9416.14232778
  Solvation  Ediel_sol  =         0.00000000
  ---------------------------------------------------
  free energy    TOTEN  =      -601.56131202 eV

  energy without entropy =     -601.56131202  energy(sigma->0) =     -601.56131202


--------------------------------------------------------------------------------------------------------




--------------------------------------- Iteration      1(   6)  ---------------------------------------


    POTLOK:  cpu time    0.0570: real time    0.0570
    SETDIJ:  cpu time    0.0420: real time    0.0420
     EDDAV:  cpu time   29.0264: real time   29.0281
       DOS:  cpu time    0.0042: real time    0.0042
    CHARGE:  cpu time    0.7563: real time    0.7563
    MIXING:  cpu time    0.0044: real time    0.0846
    --------------------------------------------
      LOOP:  cpu time   29.8902: real time   29.9722

 eigenvalue-minimisations  : 17888
 total energy-change (2. order) : 0.1940651E+02  (-0.1256650E+01)
 number of electron     255.9999995 magnetization 
 augmentation part        6.7051954 magnetization 

 Broyden mixing:
  rms(total) = 0.16092E+01    rms(broyden)= 0.16091E+01
  rms(prec ) = 0.23260E+01
  weight for this iteration     100.00

 eigenvalues of (default mixing * dielectric matrix)
  average eigenvalue GAMMA=   2.1396
  2.1396

 Free energy of the ion-electron system (eV)
  ---------------------------------------------------
  alpha Z        PSCENC =      1001.83506926
  Ewald energy   TEWEN  =    -11463.00659502
  -Hartree energ DENC   =      -632.85761222
  -exchange      EXHF   =         0.00000000
  -V(xc)+E(xc)   XCENC  =       945.20627485
  PAW double counting   =      3287.60934338    -3366.55395886
  entropy T*S    EENTRO =        -0.00000000
  eigenvalues    EBANDS =       229.47034425
  atomic energy  EATOM  =      9416.14232778
  Solvation  Ediel_sol  =         0.00000000
  ---------------------------------------------------
  free energy    TOTEN  =      -582.15480658 eV

  energy without entropy =     -582.15480658  energy(sigma->0) =     -582.15480658


--------------------------------------------------------------------------------------------------------




--------------------------------------- Iteration      1(   7)  ---------------------------------------


    POTLOK:  cpu time    0.0621: real time    0.0621
    SETDIJ:  cpu time    0.0426: real time    0.0426
     EDDAV:  cpu time   30.2085: real time   30.2103
       DOS:  cpu time    0.0047: real time    0.0047
    CHARGE:  cpu time    0.7470: real time    0.7470
    MIXING:  cpu time    0.0046: real time    0.0046
    --------------------------------------------
      LOOP:  cpu time   31.0694: real time   31.0713

 eigenvalue-minimisations  : 18688
 total energy-change (2. order) : 0.6532041E+01  (-0.1399875E+01)
 number of electron     255.9999995 magnetization 
 augmentation part        6.5245147 magnetization 

 Broyden mixing:
  rms(total) = 0.20217E+00    rms(broyden)= 0.20120E+00
  rms(prec ) = 0.24489E+00
  weight for this iteration     100.00

 eigenvalues of (default mixing * dielectric matrix)
  average eigenvalue GAMMA=   2.2761
  2.0137  2.5385

 Free energy of the ion-electron system (eV)
  ---------------------------------------------------
  alpha Z        PSCENC =      1001.83506926
  Ewald energy   TEWEN  =    -11463.00659502
  -Hartree energ DENC   =      -798.74218990
  -exchange      EXHF   =         0.00000000
  -V(xc)+E(xc)   XCENC  =       961.00973458
  PAW double counting   =      4487.12157867    -4571.15715438
  entropy T*S    EENTRO =        -0.00000000
  eigenvalues    EBANDS =       391.17446318
  atomic energy  EATOM  =      9416.14232778
  Solvation  Ediel_sol  =         0.00000000
  ---------------------------------------------------
  free energy    TOTEN  =      -575.62276583 eV

  energy without entropy =     -575.62276583  energy(sigma->0) =     -575.62276583


--------------------------------------------------------------------------------------------------------




--------------------------------------- Iteration      1(   8)  ---------------------------------------


    POTLOK:  cpu time    0.0575: real time    0.0575
    SETDIJ:  cpu time    0.0422: real time    0.0422
     EDDAV:  cpu time   29.8740: real time   29.8758
       DOS:  cpu time    0.0040: real time    0.0040
    CHARGE:  cpu time    0.7487: real time    0.7488
    MIXING:  cpu time    0.0046: real time    0.0046
    --------------------------------------------
      LOOP:  cpu time   30.7310: real time   30.7328

 eigenvalue-minimisations  : 18752
 total energy-change (2. order) :-0.6968518E-01  (-0.3082994E-01)
 number of electron     255.9999995 magnetization 
 augmentation part        6.5297890 magnetization 

 Broyden mixing:
  rms(total) = 0.23237E-01    rms(broyden)= 0.22868E-01
  rms(prec ) = 0.27794E-01
  weight for this iteration     100.00

 eigenvalues of (default mixing * dielectric matrix)
  average eigenvalue GAMMA=   2.1069
  1.4651  2.7034  2.1520

 Free energy of the ion-electron system (eV)
  ---------------------------------------------------
  alpha Z        PSCENC =      1001.83506926
  Ewald energy   TEWEN  =    -11463.00659502
  -Hartree energ DENC   =      -802.70045076
  -exchange      EXHF   =         0.00000000
  -V(xc)+E(xc)   XCENC  =       961.42799506
  PAW double counting   =      4597.66188932    -4680.61221064
  entropy T*S    EENTRO =        -0.00000000
  eigenvalues    EBANDS =       393.55952399
  atomic energy  EATOM  =      9416.14232778
  Solvation  Ediel_sol  =         0.00000000
  ---------------------------------------------------
  free energy    TOTEN  =      -575.69245101 eV

  energy without entropy =     -575.69245101  energy(sigma->0) =     -575.69245101


--------------------------------------------------------------------------------------------------------




--------------------------------------- Iteration      1(   9)  ---------------------------------------


    POTLOK:  cpu time    0.0569: real time    0.0569
    SETDIJ:  cpu time    0.0424: real time    0.0424
     EDDAV:  cpu time   31.8566: real time   31.8585
       DOS:  cpu time    0.0044: real time    0.0044
    CHARGE:  cpu time    0.7465: real time    0.7465
    MIXING:  cpu time    0.0046: real time    0.0046
    --------------------------------------------
      LOOP:  cpu time   32.7114: real time   32.7133

 eigenvalue-minimisations  : 19872
 total energy-change (2. order) :-0.2022946E-02  (-0.3577195E-03)
 number of electron     255.9999995 magnetization 
 augmentation part        6.5290102 magnetization 

 Broyden mixing:
  rms(total) = 0.84569E-02    rms(broyden)= 0.84259E-02
  rms(prec ) = 0.10512E-01
  weight for this iteration     100.00

 eigenvalues of (default mixing * dielectric matrix)
  average eigenvalue GAMMA=   2.0272
  0.9635  2.7379  2.4183  1.9891

 Free energy of the ion-electron system (eV)
  ---------------------------------------------------
  alpha Z        PSCENC =      1001.83506926
  Ewald energy   TEWEN  =    -11463.00659502
  -Hartree energ DENC   =      -802.17293641
  -exchange      EXHF   =         0.00000000
  -V(xc)+E(xc)   XCENC  =       961.37773237
  PAW double counting   =      4594.76395013    -4677.59496264
  entropy T*S    EENTRO =        -0.00000000
  eigenvalues    EBANDS =       392.96094057
  atomic energy  EATOM  =      9416.14232778
  Solvation  Ediel_sol  =         0.00000000
  ---------------------------------------------------
  free energy    TOTEN  =      -575.69447396 eV

  energy without entropy =     -575.69447396  energy(sigma->0) =     -575.69447396


--------------------------------------------------------------------------------------------------------




--------------------------------------- Iteration      1(  10)  ---------------------------------------


    POTLOK:  cpu time    0.0570: real time    0.0570
    SETDIJ:  cpu time    0.0436: real time    0.0436
     EDDAV:  cpu time   30.6196: real time   30.6214
       DOS:  cpu time    0.0041: real time    0.0041
    CHARGE:  cpu time    0.7521: real time    0.7521
    MIXING:  cpu time    0.0051: real time    0.0051
    --------------------------------------------
      LOOP:  cpu time   31.4815: real time   31.4833

 eigenvalue-minimisations  : 18400
 total energy-change (2. order) :-0.4068595E-03  (-0.3306378E-04)
 number of electron     255.9999995 magnetization 
 augmentation part        6.5287227 magnetization 

 Broyden mixing:
  rms(total) = 0.85991E-03    rms(broyden)= 0.84140E-03
  rms(prec ) = 0.12427E-02
  weight for this iteration     100.00

 eigenvalues of (default mixing * dielectric matrix)
  average eigenvalue GAMMA=   1.9443
  2.9023  2.5455  2.0575  0.9980  1.2183

 Free energy of the ion-electron system (eV)
  ---------------------------------------------------
  alpha Z        PSCENC =      1001.83506926
  Ewald energy   TEWEN  =    -11463.00659502
  -Hartree energ DENC   =      -802.54017531
  -exchange      EXHF   =         0.00000000
  -V(xc)+E(xc)   XCENC  =       961.40933664
  PAW double counting   =      4590.06160822    -4672.90580541
  entropy T*S    EENTRO =        -0.00000000
  eigenvalues    EBANDS =       393.30935303
  atomic energy  EATOM  =      9416.14232778
  Solvation  Ediel_sol  =         0.00000000
  ---------------------------------------------------
  free energy    TOTEN  =      -575.69488082 eV

  energy without entropy =     -575.69488082  energy(sigma->0) =     -575.69488082


--------------------------------------------------------------------------------------------------------




--------------------------------------- Iteration      1(  11)  ---------------------------------------


    POTLOK:  cpu time    0.0563: real time    0.0563
    SETDIJ:  cpu time    0.0431: real time    0.0431
     EDDAV:  cpu time   32.1385: real time   32.1404
       DOS:  cpu time    0.0048: real time    0.0048
    CHARGE:  cpu time    0.7469: real time    0.7470
    MIXING:  cpu time    0.0051: real time    0.0051
    --------------------------------------------
      LOOP:  cpu time   32.9947: real time   32.9967

 eigenvalue-minimisations  : 20000
 total energy-change (2. order) :-0.7283154E-05  (-0.1023693E-05)
 number of electron     255.9999995 magnetization 
 augmentation part        6.5285604 magnetization 

 Broyden mixing:
  rms(total) = 0.22086E-03    rms(broyden)= 0.21540E-03
  rms(prec ) = 0.27759E-03
  weight for this iteration     100.00

 eigenvalues of (default mixing * dielectric matrix)
  average eigenvalue GAMMA=   2.0001
  2.9461  2.5761  2.4528  2.0329  0.9963  0.9963

 Free energy of the ion-electron system (eV)
  ---------------------------------------------------
  alpha Z        PSCENC =      1001.83506926
  Ewald energy   TEWEN  =    -11463.00659502
  -Hartree energ DENC   =      -802.65595879
  -exchange      EXHF   =         0.00000000
  -V(xc)+E(xc)   XCENC  =       961.42001506
  PAW double counting   =      4590.19407705    -4673.04286664
  entropy T*S    EENTRO =        -0.00000000
  eigenvalues    EBANDS =       393.41904320
  atomic energy  EATOM  =      9416.14232778
  Solvation  Ediel_sol  =         0.00000000
  ---------------------------------------------------
  free energy    TOTEN  =      -575.69488810 eV

  energy without entropy =     -575.69488810  energy(sigma->0) =     -575.69488810


--------------------------------------------------------------------------------------------------------




--------------------------------------- Iteration      1(  12)  ---------------------------------------


    POTLOK:  cpu time    0.0571: real time    0.0571
    SETDIJ:  cpu time    0.0435: real time    0.0435
     EDDAV:  cpu time   31.4226: real time   31.4244
       DOS:  cpu time    0.0043: real time    0.0043
    CHARGE:  cpu time    0.7453: real time    0.7454
    MIXING:  cpu time    0.0052: real time    0.0052
    --------------------------------------------
      LOOP:  cpu time   32.2779: real time   32.2798

 eigenvalue-minimisations  : 19456
 total energy-change (2. order) : 0.3519035E-06  (-0.2519291E-07)
 number of electron     255.9999995 magnetization 
 augmentation part        6.5285716 magnetization 

 Broyden mixing:
  rms(total) = 0.28048E-04    rms(broyden)= 0.26719E-04
  rms(prec ) = 0.40193E-04
  weight for this iteration     100.00

 eigenvalues of (default mixing * dielectric matrix)
  average eigenvalue GAMMA=   1.8666
  2.9147  2.6097  2.4776  2.0399  0.9747  1.0248  1.0248

 Free energy of the ion-electron system (eV)
  ---------------------------------------------------
  alpha Z        PSCENC =      1001.83506926
  Ewald energy   TEWEN  =    -11463.00659502
  -Hartree energ DENC   =      -802.64308294
  -exchange      EXHF   =         0.00000000
  -V(xc)+E(xc)   XCENC  =       961.41882905
  PAW double counting   =      4590.29734414    -4673.14487110
  entropy T*S    EENTRO =        -0.00000000
  eigenvalues    EBANDS =       393.40609108
  atomic energy  EATOM  =      9416.14232778
  Solvation  Ediel_sol  =         0.00000000
  ---------------------------------------------------
  free energy    TOTEN  =      -575.69488775 eV

  energy without entropy =     -575.69488775  energy(sigma->0) =     -575.69488775


--------------------------------------------------------------------------------------------------------




--------------------------------------- Iteration      1(  13)  ---------------------------------------


    POTLOK:  cpu time    0.0568: real time    0.0568
    SETDIJ:  cpu time    0.0426: real time    0.0426
     EDDAV:  cpu time   26.4258: real time   26.4274
       DOS:  cpu time    0.0042: real time    0.0042
    CHARGE:  cpu time    0.7492: real time    0.7492
    MIXING:  cpu time    0.0053: real time    0.0053
    --------------------------------------------
      LOOP:  cpu time   27.2839: real time   27.2855

 eigenvalue-minimisations  : 14720
 total energy-change (2. order) :-0.1747503E-07  (-0.4971031E-09)
 number of electron     255.9999995 magnetization 
 augmentation part        6.5285717 magnetization 

 Broyden mixing:
  rms(total) = 0.57044E-05    rms(broyden)= 0.54884E-05
  rms(prec ) = 0.69654E-05
  weight for this iteration     100.00

 eigenvalues of (default mixing * dielectric matrix)
  average eigenvalue GAMMA=   1.9694
  2.0402  2.8407  2.8407  2.5531  2.5092  1.0030  1.0030  0.9653

 Free energy of the ion-electron system (eV)
  ---------------------------------------------------
  alpha Z        PSCENC =      1001.83506926
  Ewald energy   TEWEN  =    -11463.00659502
  -Hartree energ DENC   =      -802.64001390
  -exchange      EXHF   =         0.00000000
  -V(xc)+E(xc)   XCENC  =       961.41853826
  PAW double counting   =      4590.28615815    -4673.13355645
  entropy T*S    EENTRO =        -0.00000000
  eigenvalues    EBANDS =       393.40318415
  atomic energy  EATOM  =      9416.14232778
  Solvation  Ediel_sol  =         0.00000000
  ---------------------------------------------------
  free energy    TOTEN  =      -575.69488777 eV

  energy without entropy =     -575.69488777  energy(sigma->0) =     -575.69488777


--------------------------------------------------------------------------------------------------------




--------------------------------------- Iteration      1(  14)  ---------------------------------------


    POTLOK:  cpu time    0.0578: real time    0.0578
    SETDIJ:  cpu time    0.0438: real time    0.0438
     EDDAV:  cpu time   23.3336: real time   23.3350
       DOS:  cpu time    0.0044: real time    0.0044
    CHARGE:  cpu time    0.7591: real time    0.7592
    MIXING:  cpu time    0.0056: real time    0.0056
    --------------------------------------------
      LOOP:  cpu time   24.2043: real time   24.2058

 eigenvalue-minimisations  : 12192
 total energy-change (2. order) :-0.1885201E-07  (-0.7432095E-10)
 number of electron     255.9999995 magnetization 
 augmentation part        6.5285723 magnetization 

 Broyden mixing:
  rms(total) = 0.21466E-05    rms(broyden)= 0.21348E-05
  rms(prec ) = 0.28487E-05
  weight for this iteration     100.00

 eigenvalues of (default mixing * dielectric matrix)
  average eigenvalue GAMMA=   1.8721
  2.0444  2.8572  2.8572  2.5408  2.5198  1.0692  1.0332  0.9634  0.9634

 Free energy of the ion-electron system (eV)
  ---------------------------------------------------
  alpha Z        PSCENC =      1001.83506926
  Ewald energy   TEWEN  =    -11463.00659502
  -Hartree energ DENC   =      -802.63943782
  -exchange      EXHF   =         0.00000000
  -V(xc)+E(xc)   XCENC  =       961.41848585
  PAW double counting   =      4590.28263629    -4673.12999518
  entropy T*S    EENTRO =        -0.00000000
  eigenvalues    EBANDS =       393.40262104
  atomic energy  EATOM  =      9416.14232778
  Solvation  Ediel_sol  =         0.00000000
  ---------------------------------------------------
  free energy    TOTEN  =      -575.69488779 eV

  energy without entropy =     -575.69488779  energy(sigma->0) =     -575.69488779


--------------------------------------------------------------------------------------------------------




--------------------------------------- Iteration      1(  15)  ---------------------------------------


    POTLOK:  cpu time    0.0567: real time    0.0567
    SETDIJ:  cpu time    0.0426: real time    0.0426
     EDDAV:  cpu time   22.7446: real time   22.7459
       DOS:  cpu time    0.0038: real time    0.0038
    --------------------------------------------
      LOOP:  cpu time   22.8477: real time   22.8491

 eigenvalue-minimisations  : 11488
 total energy-change (2. order) :-0.1859007E-08  (-0.8663845E-11)
 number of electron     255.9999995 magnetization 
 augmentation part        6.5285723 magnetization 

 Free energy of the ion-electron system (eV)
  ---------------------------------------------------
  alpha Z        PSCENC =      1001.83506926
  Ewald energy   TEWEN  =    -11463.00659502
  -Hartree energ DENC   =      -802.63959760
  -exchange      EXHF   =         0.00000000
  -V(xc)+E(xc)   XCENC  =       961.41850069
  PAW double counting   =      4590.28323664    -4673.13061116
  entropy T*S    EENTRO =        -0.00000000
  eigenvalues    EBANDS =       393.40278162
  atomic energy  EATOM  =      9416.14232778
  Solvation  Ediel_sol  =         0.00000000
  ---------------------------------------------------
  free energy    TOTEN  =      -575.69488779 eV

  energy without entropy =     -575.69488779  energy(sigma->0) =     -575.69488779


--------------------------------------------------------------------------------------------------------




 average (electrostatic) potential at core
  the test charge radii are     0.6991
  (the norm of the test charge is              1.0000)
       1 -44.1095       2 -44.1095       3 -44.1095       4 -44.1095       5 -44.1095
       6 -44.1095       7 -44.1095       8 -44.1095       9 -44.1095      10 -44.1095
      11 -44.1095      12 -44.1095      13 -44.1095      14 -44.1095      15 -44.1095
      16 -44.1095      17 -44.1095      18 -44.1095      19 -44.1095      20 -44.1095
      21 -44.1095      22 -44.1095      23 -44.1095      24 -44.1095      25 -44.1095
      26 -44.1095      27 -44.1095      28 -44.1095      29 -44.1095      30 -44.1095
      31 -44.1095      32 -44.1095      33 -44.1095      34 -44.1095      35 -44.1095
      36 -44.1095      37 -44.1095      38 -44.1095      39 -44.1095      40 -44.1095
      41 -44.1095      42 -44.1095      43 -44.1095      44 -44.1095      45 -44.1095
      46 -44.1095      47 -44.1095      48 -44.1095      49 -44.1095      50 -44.1095
      51 -44.1095      52 -44.1095      53 -44.1095      54 -44.1095      55 -44.1095
      56 -44.1095      57 -44.1095      58 -44.1095      59 -44.1095      60 -44.1095
      61 -44.1095      62 -44.1095      63 -44.1095      64 -44.1095
 
 
 
 E-fermi :  11.6282     XC(G=0): -13.6611     alpha+bet :-19.2865


 k-point     1 :       0.0000    0.0000    0.0000
  band No.  band energies     occupation 
      1     -11.6214      2.00000
      2      -9.3633      2.00000
      3      -9.3633      2.00000
      4      -9.1101      2.00000
      5      -9.1101      2.00000
      6      -9.1101      2.00000
      7      -9.1101      2.00000
      8      -6.9362      2.00000
[...]
      4.257216  0.851443  6.282499     0.131021    0.074115    0.000000  
      0.851443  4.257216  6.282499     0.131021    0.074115   -0.000000  
      4.257216  4.257216  6.282499    -0.131021   -0.074115   -0.000000  
      0.000000  1.702886  0.000000    -0.067796   -0.010889    0.000000  
      3.405772  1.702886  0.000000     0.067796    0.010889   -0.000000  
      0.000000  5.108659  0.000000     0.067796    0.010889   -0.000000  
      3.405772  5.108659  0.000000    -0.067796   -0.010889   -0.000000  
      0.000000  1.702886  3.589999     0.067796    0.010889    0.000000  
      3.405772  1.702886  3.589999    -0.067796   -0.010889    0.000000  
      0.000000  5.108659  3.589999    -0.067796   -0.010889    0.000000  
      3.405772  5.108659  3.589999     0.067796    0.010889   -0.000000  
      2.554329  2.554329  2.692500     0.074115    0.131021   -0.000000  
      5.960102  2.554329  2.692500    -0.074115   -0.131021   -0.000000  
      2.554329  5.960102  2.692500    -0.074115   -0.131021    0.000000  
      5.960102  5.960102  2.692500     0.074115    0.131021    0.000000  
      2.554329  2.554329  6.282499    -0.074115   -0.131021   -0.000000  
      5.960102  2.554329  6.282499     0.074115    0.131021   -0.000000  
      2.554329  5.960102  6.282499     0.074115    0.131021    0.000000  
      5.960102  5.960102  6.282499    -0.074115   -0.131021    0.000000  
      1.702886  0.000000  0.000000     0.010889    0.067796    0.000000  
      5.108659  0.000000  0.000000    -0.010889   -0.067796    0.000000  
      1.702886  3.405772  0.000000    -0.010889   -0.067796   -0.000000  
      5.108659  3.405772  0.000000     0.010889    0.067796   -0.000000  
      1.702886  0.000000  3.589999    -0.010889   -0.067796    0.000000  
      5.108659  0.000000  3.589999     0.010889    0.067796    0.000000  
      1.702886  3.405772  3.589999     0.010889    0.067796   -0.000000  
      5.108659  3.405772  3.589999    -0.010889   -0.067796   -0.000000  
      2.554329  0.851443  0.897500    -0.013073    0.091758    0.000000  
      5.960102  0.851443  0.897500     0.013073   -0.091758    0.000000  
      2.554329  4.257216  0.897500     0.013073   -0.091758   -0.000000  
      5.960102  4.257216  0.897500    -0.013073    0.091758   -0.000000  
      2.554329  0.851443  4.487499     0.013073   -0.091758    0.000000  
      5.960102  0.851443  4.487499    -0.013073    0.091758    0.000000  
      2.554329  4.257216  4.487499    -0.013073    0.091758   -0.000000  
      5.960102  4.257216  4.487499     0.013073   -0.091758    0.000000  
      1.702886  1.702886  1.795000     0.050152    0.154984    0.000000  
      5.108659  1.702886  1.795000    -0.050152   -0.154984    0.000000  
      1.702886  5.108659  1.795000    -0.050152   -0.154984   -0.000000  
      5.108659  5.108659  1.795000     0.050152    0.154984   -0.000000  
      1.702886  1.702886  5.384999    -0.050152   -0.154984    0.000000  
      5.108659  1.702886  5.384999     0.050152    0.154984    0.000000  
      1.702886  5.108659  5.384999     0.050152    0.154984   -0.000000  
      5.108659  5.108659  5.384999    -0.050152   -0.154984   -0.000000  
 
 190 f  =    0.000004 THz     0.000026 2PiTHz    0.000137 cm-1     0.000017 meV
             X         Y         Z           dx          dy          dz
      0.851443  2.554329  0.897500     0.090471    0.086255    0.000048  
      4.257216  2.554329  0.897500     0.090471    0.086255    0.000048  
      0.851443  5.960102  0.897500     0.090471    0.086255    0.000048  
      4.257216  5.960102  0.897500     0.090471    0.086255    0.000048  
      0.851443  2.554329  4.487499     0.090471    0.086255    0.000048  
      4.257216  2.554329  4.487499     0.090471    0.086255    0.000048  
      0.851443  5.960102  4.487499     0.090471    0.086255    0.000048  
      4.257216  5.960102  4.487499     0.090471    0.086255    0.000048  
      0.000000  0.000000  1.795000     0.090471    0.086255    0.000048  
      3.405772  0.000000  1.795000     0.090471    0.086255    0.000048  
      0.000000  3.405772  1.795000     0.090471    0.086255    0.000048  
      3.405772  3.405772  1.795000     0.090471    0.086255    0.000048  
      0.000000  0.000000  5.384999     0.090471    0.086255    0.000048  
      3.405772  0.000000  5.384999     0.090471    0.086255    0.000048  
      0.000000  3.405772  5.384999     0.090471    0.086255    0.000048  
      3.405772  3.405772  5.384999     0.090471    0.086255    0.000048  
      0.851443  0.851443  2.692500     0.090471    0.086255    0.000048  
      4.257216  0.851443  2.692500     0.090471    0.086255    0.000048  
      0.851443  4.257216  2.692500     0.090471    0.086255    0.000048  
      4.257216  4.257216  2.692500     0.090471    0.086255    0.000048  
      0.851443  0.851443  6.282499     0.090471    0.086255    0.000048  
      4.257216  0.851443  6.282499     0.090471    0.086255    0.000048  
      0.851443  4.257216  6.282499     0.090471    0.086255    0.000048  
      4.257216  4.257216  6.282499     0.090471    0.086255    0.000048  
      0.000000  1.702886  0.000000     0.090471    0.086255    0.000048  
      3.405772  1.702886  0.000000     0.090471    0.086255    0.000048  
      0.000000  5.108659  0.000000     0.090471    0.086255    0.000048  
      3.405772  5.108659  0.000000     0.090471    0.086255    0.000048  
      0.000000  1.702886  3.589999     0.090471    0.086255    0.000048  
      3.405772  1.702886  3.589999     0.090471    0.086255    0.000048  
      0.000000  5.108659  3.589999     0.090471    0.086255    0.000048  
      3.405772  5.108659  3.589999     0.090471    0.086255    0.000048  
      2.554329  2.554329  2.692500     0.090471    0.086255    0.000048  
      5.960102  2.554329  2.692500     0.090471    0.086255    0.000048  
      2.554329  5.960102  2.692500     0.090471    0.086255    0.000048  
      5.960102  5.960102  2.692500     0.090471    0.086255    0.000048  
      2.554329  2.554329  6.282499     0.090471    0.086255    0.000048  
      5.960102  2.554329  6.282499     0.090471    0.086255    0.000048  
      2.554329  5.960102  6.282499     0.090471    0.086255    0.000048  
      5.960102  5.960102  6.282499     0.090471    0.086255    0.000048  
      1.702886  0.000000  0.000000     0.090471    0.086255    0.000048  
      5.108659  0.000000  0.000000     0.090471    0.086255    0.000048  
      1.702886  3.405772  0.000000     0.090471    0.086255    0.000048  
      5.108659  3.405772  0.000000     0.090471    0.086255    0.000048  
      1.702886  0.000000  3.589999     0.090471    0.086255    0.000048  
      5.108659  0.000000  3.589999     0.090471    0.086255    0.000048  
      1.702886  3.405772  3.589999     0.090471    0.086255    0.000048  
      5.108659  3.405772  3.589999     0.090471    0.086255    0.000048  
      2.554329  0.851443  0.897500     0.090471    0.086255    0.000048  
      5.960102  0.851443  0.897500     0.090471    0.086255    0.000048  
      2.554329  4.257216  0.897500     0.090471    0.086255    0.000048  
      5.960102  4.257216  0.897500     0.090471    0.086255    0.000048  
      2.554329  0.851443  4.487499     0.090471    0.086255    0.000048  
      5.960102  0.851443  4.487499     0.090471    0.086255    0.000048  
      2.554329  4.257216  4.487499     0.090471    0.086255    0.000048  
      5.960102  4.257216  4.487499     0.090471    0.086255    0.000048  
      1.702886  1.702886  1.795000     0.090471    0.086255    0.000048  
      5.108659  1.702886  1.795000     0.090471    0.086255    0.000048  
      1.702886  5.108659  1.795000     0.090471    0.086255    0.000048  
      5.108659  5.108659  1.795000     0.090471    0.086255    0.000048  
      1.702886  1.702886  5.384999     0.090471    0.086255    0.000048  
      5.108659  1.702886  5.384999     0.090471    0.086255    0.000048  
      1.702886  5.108659  5.384999     0.090471    0.086255    0.000048  
      5.108659  5.108659  5.384999     0.090471    0.086255    0.000048  
 
 191 f  =    0.000004 THz     0.000023 2PiTHz    0.000124 cm-1     0.000015 meV
             X         Y         Z           dx          dy          dz
      0.851443  2.554329  0.897500     0.086255   -0.090471    0.000003  
      4.257216  2.554329  0.897500     0.086255   -0.090471    0.000003  
      0.851443  5.960102  0.897500     0.086255   -0.090471    0.000003  
      4.257216  5.960102  0.897500     0.086255   -0.090471    0.000003  
      0.851443  2.554329  4.487499     0.086255   -0.090471    0.000003  
      4.257216  2.554329  4.487499     0.086255   -0.090471    0.000003  
      0.851443  5.960102  4.487499     0.086255   -0.090471    0.000003  
      4.257216  5.960102  4.487499     0.086255   -0.090471    0.000003  
      0.000000  0.000000  1.795000     0.086255   -0.090471    0.000003  
      3.405772  0.000000  1.795000     0.086255   -0.090471    0.000003  
      0.000000  3.405772  1.795000     0.086255   -0.090471    0.000003  
      3.405772  3.405772  1.795000     0.086255   -0.090471    0.000003  
      0.000000  0.000000  5.384999     0.086255   -0.090471    0.000003  
      3.405772  0.000000  5.384999     0.086255   -0.090471    0.000003  
      0.000000  3.405772  5.384999     0.086255   -0.090471    0.000003  
      3.405772  3.405772  5.384999     0.086255   -0.090471    0.000003  
      0.851443  0.851443  2.692500     0.086255   -0.090471    0.000003  
      4.257216  0.851443  2.692500     0.086255   -0.090471    0.000003  
      0.851443  4.257216  2.692500     0.086255   -0.090471    0.000003  
      4.257216  4.257216  2.692500     0.086255   -0.090471    0.000003  
      0.851443  0.851443  6.282499     0.086255   -0.090471    0.000003  
      4.257216  0.851443  6.282499     0.086255   -0.090471    0.000003  
      0.851443  4.257216  6.282499     0.086255   -0.090471    0.000003  
      4.257216  4.257216  6.282499     0.086255   -0.090471    0.000003  
      0.000000  1.702886  0.000000     0.086255   -0.090471    0.000003  
      3.405772  1.702886  0.000000     0.086255   -0.090471    0.000003  
      0.000000  5.108659  0.000000     0.086255   -0.090471    0.000003  
      3.405772  5.108659  0.000000     0.086255   -0.090471    0.000003  
      0.000000  1.702886  3.589999     0.086255   -0.090471    0.000003  
      3.405772  1.702886  3.589999     0.086255   -0.090471    0.000003  
      0.000000  5.108659  3.589999     0.086255   -0.090471    0.000003  
      3.405772  5.108659  3.589999     0.086255   -0.090471    0.000003  
      2.554329  2.554329  2.692500     0.086255   -0.090471    0.000003  
      5.960102  2.554329  2.692500     0.086255   -0.090471    0.000003  
      2.554329  5.960102  2.692500     0.086255   -0.090471    0.000003  
      5.960102  5.960102  2.692500     0.086255   -0.090471    0.000003  
      2.554329  2.554329  6.282499     0.086255   -0.090471    0.000003  
      5.960102  2.554329  6.282499     0.086255   -0.090471    0.000003  
      2.554329  5.960102  6.282499     0.086255   -0.090471    0.000003  
      5.960102  5.960102  6.282499     0.086255   -0.090471    0.000003  
      1.702886  0.000000  0.000000     0.086255   -0.090471    0.000003  
      5.108659  0.000000  0.000000     0.086255   -0.090471    0.000003  
      1.702886  3.405772  0.000000     0.086255   -0.090471    0.000003  
      5.108659  3.405772  0.000000     0.086255   -0.090471    0.000003  
      1.702886  0.000000  3.589999     0.086255   -0.090471    0.000003  
      5.108659  0.000000  3.589999     0.086255   -0.090471    0.000003  
      1.702886  3.405772  3.589999     0.086255   -0.090471    0.000003  
      5.108659  3.405772  3.589999     0.086255   -0.090471    0.000003  
      2.554329  0.851443  0.897500     0.086255   -0.090471    0.000003  
      5.960102  0.851443  0.897500     0.086255   -0.090471    0.000003  
      2.554329  4.257216  0.897500     0.086255   -0.090471    0.000003  
      5.960102  4.257216  0.897500     0.086255   -0.090471    0.000003  
      2.554329  0.851443  4.487499     0.086255   -0.090471    0.000003  
      5.960102  0.851443  4.487499     0.086255   -0.090471    0.000003  
      2.554329  4.257216  4.487499     0.086255   -0.090471    0.000003  
      5.960102  4.257216  4.487499     0.086255   -0.090471    0.000003  
      1.702886  1.702886  1.795000     0.086255   -0.090471    0.000003  
      5.108659  1.702886  1.795000     0.086255   -0.090471    0.000003  
      1.702886  5.108659  1.795000     0.086255   -0.090471    0.000003  
      5.108659  5.108659  1.795000     0.086255   -0.090471    0.000003  
      1.702886  1.702886  5.384999     0.086255   -0.090471    0.000003  
      5.108659  1.702886  5.384999     0.086255   -0.090471    0.000003  
      1.702886  5.108659  5.384999     0.086255   -0.090471    0.000003  
      5.108659  5.108659  5.384999     0.086255   -0.090471    0.000003  
 
 192 f/i=    0.000003 THz     0.000016 2PiTHz    0.000086 cm-1     0.000011 meV
             X         Y         Z           dx          dy          dz
      0.851443  2.554329  0.897500    -0.000037   -0.000031    0.125000  
      4.257216  2.554329  0.897500    -0.000037   -0.000031    0.125000  
      0.851443  5.960102  0.897500    -0.000037   -0.000031    0.125000  
      4.257216  5.960102  0.897500    -0.000037   -0.000031    0.125000  
      0.851443  2.554329  4.487499    -0.000037   -0.000031    0.125000  
      4.257216  2.554329  4.487499    -0.000037   -0.000031    0.125000  
      0.851443  5.960102  4.487499    -0.000037   -0.000031    0.125000  
      4.257216  5.960102  4.487499    -0.000037   -0.000031    0.125000  
      0.000000  0.000000  1.795000    -0.000037   -0.000031    0.125000  
      3.405772  0.000000  1.795000    -0.000037   -0.000031    0.125000  
      0.000000  3.405772  1.795000    -0.000037   -0.000031    0.125000  
      3.405772  3.405772  1.795000    -0.000037   -0.000031    0.125000  
      0.000000  0.000000  5.384999    -0.000037   -0.000031    0.125000  
      3.405772  0.000000  5.384999    -0.000037   -0.000031    0.125000  
      0.000000  3.405772  5.384999    -0.000037   -0.000031    0.125000  
      3.405772  3.405772  5.384999    -0.000037   -0.000031    0.125000  
      0.851443  0.851443  2.692500    -0.000037   -0.000031    0.125000  
      4.257216  0.851443  2.692500    -0.000037   -0.000031    0.125000  
      0.851443  4.257216  2.692500    -0.000037   -0.000031    0.125000  
      4.257216  4.257216  2.692500    -0.000037   -0.000031    0.125000  
      0.851443  0.851443  6.282499    -0.000037   -0.000031    0.125000  
      4.257216  0.851443  6.282499    -0.000037   -0.000031    0.125000  
      0.851443  4.257216  6.282499    -0.000037   -0.000031    0.125000  
      4.257216  4.257216  6.282499    -0.000037   -0.000031    0.125000  
      0.000000  1.702886  0.000000    -0.000037   -0.000031    0.125000  
      3.405772  1.702886  0.000000    -0.000037   -0.000031    0.125000  
      0.000000  5.108659  0.000000    -0.000037   -0.000031    0.125000  
      3.405772  5.108659  0.000000    -0.000037   -0.000031    0.125000  
      0.000000  1.702886  3.589999    -0.000037   -0.000031    0.125000  
      3.405772  1.702886  3.589999    -0.000037   -0.000031    0.125000  
      0.000000  5.108659  3.589999    -0.000037   -0.000031    0.125000  
      3.405772  5.108659  3.589999    -0.000037   -0.000031    0.125000  
      2.554329  2.554329  2.692500    -0.000037   -0.000031    0.125000  
      5.960102  2.554329  2.692500    -0.000037   -0.000031    0.125000  
      2.554329  5.960102  2.692500    -0.000037   -0.000031    0.125000  
      5.960102  5.960102  2.692500    -0.000037   -0.000031    0.125000  
      2.554329  2.554329  6.282499    -0.000037   -0.000031    0.125000  
      5.960102  2.554329  6.282499    -0.000037   -0.000031    0.125000  
      2.554329  5.960102  6.282499    -0.000037   -0.000031    0.125000  
      5.960102  5.960102  6.282499    -0.000037   -0.000031    0.125000  
      1.702886  0.000000  0.000000    -0.000037   -0.000031    0.125000  
      5.108659  0.000000  0.000000    -0.000037   -0.000031    0.125000  
      1.702886  3.405772  0.000000    -0.000037   -0.000031    0.125000  
      5.108659  3.405772  0.000000    -0.000037   -0.000031    0.125000  
      1.702886  0.000000  3.589999    -0.000037   -0.000031    0.125000  
      5.108659  0.000000  3.589999    -0.000037   -0.000031    0.125000  
      1.702886  3.405772  3.589999    -0.000037   -0.000031    0.125000  
      5.108659  3.405772  3.589999    -0.000037   -0.000031    0.125000  
      2.554329  0.851443  0.897500    -0.000037   -0.000031    0.125000  
      5.960102  0.851443  0.897500    -0.000037   -0.000031    0.125000  
      2.554329  4.257216  0.897500    -0.000037   -0.000031    0.125000  
      5.960102  4.257216  0.897500    -0.000037   -0.000031    0.125000  
      2.554329  0.851443  4.487499    -0.000037   -0.000031    0.125000  
      5.960102  0.851443  4.487499    -0.000037   -0.000031    0.125000  
      2.554329  4.257216  4.487499    -0.000037   -0.000031    0.125000  
      5.960102  4.257216  4.487499    -0.000037   -0.000031    0.125000  
      1.702886  1.702886  1.795000    -0.000037   -0.000031    0.125000  
      5.108659  1.702886  1.795000    -0.000037   -0.000031    0.125000  
      1.702886  5.108659  1.795000    -0.000037   -0.000031    0.125000  
      5.108659  5.108659  1.795000    -0.000037   -0.000031    0.125000  
      1.702886  1.702886  5.384999    -0.000037   -0.000031    0.125000  
      5.108659  1.702886  5.384999    -0.000037   -0.000031    0.125000  
      1.702886  5.108659  5.384999    -0.000037   -0.000031    0.125000  
      5.108659  5.108659  5.384999    -0.000037   -0.000031    0.125000  
 


--------------------------------------------------------------------------------------------------------



 ELASTIC MODULI CONTR FROM IONIC RELAXATION (kBar)
 Direction    XX          YY          ZZ          XY          YZ          ZX
 --------------------------------------------------------------------------------
 XX          -0.0000     -0.0000      0.0000      0.0000      0.0000     -0.0000
 YY          -0.0000     -0.0000      0.0000     -0.0000      0.0000     -0.0000
 ZZ           0.0000      0.0000     -0.0000     -0.0000     -0.0000      0.0000
 XY           0.0000     -0.0000     -0.0000   -222.7904     -0.0000      0.0000
 YZ           0.0000      0.0000     -0.0000     -0.0000   -273.0268     -0.0000
 ZX          -0.0000     -0.0000      0.0000      0.0000     -0.0000   -273.0255
 --------------------------------------------------------------------------------



--------------------------------------------------------------------------------------------------------


     LOOP+:  cpu time 1902.2519: real time 1902.7198
    4ORBIT:  cpu time    0.0000: real time    0.0000

 total amount of memory used by VASP MPI-rank0    87880. kBytes
=======================================================================

   base      :      30000. kBytes
   nonl-proj :      21905. kBytes
   fftplans  :       4537. kBytes
   grid      :       5806. kBytes
   one-center:        196. kBytes
   wavefun   :      25436. kBytes
 
  
  
 General timing and accounting informations for this job:
 ========================================================
  
                  Total CPU time used (sec):     1915.971
                            User time (sec):     1906.096
                          System time (sec):        9.875
                         Elapsed time (sec):     1917.142
  
                   Maximum memory used (kb):      459088.
                   Average memory used (kb):           0.
  
                          Minor page faults:        39345
                          Major page faults:           35
                 Voluntary context switches:          885
