# Thermal properties / unit cell (natom)

unit:
  temperature:   K
  free_energy:   kJ/mol
  entropy:       J/K/mol
  heat_capacity: J/K/mol

natom: 8    
cutoff_frequency:    0.000
num_modes: 2654208
num_integrated_modes: 2654208

zero_point_energy:     150.6096246
high_T_entropy:        417.6939801

thermal_properties:
- temperature:         0.0000000
  free_energy:       150.6096246
  entropy:             0.0000000
  heat_capacity:       0.0000000
  energy:            150.6096246

- temperature:         2.0000000
  free_energy:       150.6096246
  entropy:             0.0000000
  heat_capacity:       0.0000000
  energy:            150.6096246

- temperature:         4.0000000
  free_energy:       150.6096246
  entropy:             0.0000061
  heat_capacity:       0.0000400
  energy:            150.6096246

- temperature:         6.0000000
  free_energy:       150.6096246
  entropy:             0.0000544
  heat_capacity:       0.0002423
  energy:            150.6096249

- temperature:         8.0000000
  free_energy:       150.6096243
  entropy:             0.0001726
  heat_capacity:       0.0006314
  energy:            150.6096257

- temperature:        10.0000000
  free_energy:       150.6096238
  entropy:             0.0003754
  heat_capacity:       0.0012537
  energy:            150.6096276

- temperature:        12.0000000
  free_energy:       150.6096228
  entropy:             0.0006804
  heat_capacity:       0.0021752
  energy:            150.6096309

- temperature:        14.0000000
  free_energy:       150.6096210
  entropy:             0.0011072
  heat_capacity:       0.0034605
  energy:            150.6096365

- temperature:        16.0000000
  free_energy:       150.6096183
  entropy:             0.0016759
  heat_capacity:       0.0051733
  energy:            150.6096451

- temperature:        18.0000000
  free_energy:       150.6096142
  entropy:             0.0024074
  heat_capacity:       0.0073773
  energy:            150.6096575

- temperature:        20.0000000
  free_energy:       150.6096085
  entropy:             0.0033223
  heat_capacity:       0.0101371
  energy:            150.6096749

- temperature:        22.0000000
  free_energy:       150.6096008
  entropy:             0.0044419
  heat_capacity:       0.0135180
  energy:            150.6096985

- temperature:        24.0000000
  free_energy:       150.6095906
  entropy:             0.0057873
  heat_capacity:       0.0175868
  energy:            150.6097295

- temperature:        26.0000000
  free_energy:       150.6095775
  entropy:             0.0073802
  heat_capacity:       0.0224114
  energy:            150.6097693

- temperature:        28.0000000
  free_energy:       150.6095609
  entropy:             0.0092425
  heat_capacity:       0.0280612
  energy:            150.6098197

- temperature:        30.0000000
  free_energy:       150.6095403
  entropy:             0.0113964
  heat_capacity:       0.0346078
  energy:            150.6098822

- temperature:        32.0000000
  free_energy:       150.6095151
  entropy:             0.0138645
  heat_capacity:       0.0421245
  energy:            150.6099587

- temperature:        34.0000000
  free_energy:       150.6094846
  entropy:             0.0166697
  heat_capacity:       0.0506868
  energy:            150.6100514

- temperature:        36.0000000
  free_energy:       150.6094482
  entropy:             0.0198356
  heat_capacity:       0.0603733
  energy:            150.6101622

- temperature:        38.0000000
  free_energy:       150.6094050
  entropy:             0.0233860
  heat_capacity:       0.0712651
  energy:            150.6102937

- temperature:        40.0000000
  free_energy:       150.6093543
  entropy:             0.0273454
  heat_capacity:       0.0834474
  energy:            150.6104482

- temperature:        42.0000000
  free_energy:       150.6092953
  entropy:             0.0317392
  heat_capacity:       0.0970089
  energy:            150.6106284

- temperature:        44.0000000
  free_energy:       150.6092271
  entropy:             0.0365932
  heat_capacity:       0.1120433
  energy:            150.6108372

- temperature:        46.0000000
  free_energy:       150.6091486
  entropy:             0.0419340
  heat_capacity:       0.1286498
  energy:            150.6110776

- temperature:        48.0000000
  free_energy:       150.6090590
  entropy:             0.0477895
  heat_capacity:       0.1469335
  energy:            150.6113529

- temperature:        50.0000000
  free_energy:       150.6089571
  entropy:             0.0541882
  heat_capacity:       0.1670063
  energy:            150.6116665

- temperature:        52.0000000
  free_energy:       150.6088419
  entropy:             0.0611601
  heat_capacity:       0.1889878
  energy:            150.6120222

- temperature:        54.0000000
  free_energy:       150.6087121
  entropy:             0.0687364
  heat_capacity:       0.2130056
  energy:            150.6124238

- temperature:        56.0000000
  free_energy:       150.6085665
  entropy:             0.0769494
  heat_capacity:       0.2391958
  energy:            150.6128757

- temperature:        58.0000000
  free_energy:       150.6084038
  entropy:             0.0858334
  heat_capacity:       0.2677034
  energy:            150.6133822

- temperature:        60.0000000
  free_energy:       150.6082227
  entropy:             0.0954239
  heat_capacity:       0.2986826
  energy:            150.6139481

- temperature:        62.0000000
  free_energy:       150.6080216
  entropy:             0.1057583
  heat_capacity:       0.3322962
  energy:            150.6145787

- temperature:        64.0000000
  free_energy:       150.6077991
  entropy:             0.1168757
  heat_capacity:       0.3687158
  energy:            150.6152792

- temperature:        66.0000000
  free_energy:       150.6075536
  entropy:             0.1288170
  heat_capacity:       0.4081212
  energy:            150.6160555

- temperature:        68.0000000
  free_energy:       150.6072833
  entropy:             0.1416249
  heat_capacity:       0.4506997
  energy:            150.6169138

- temperature:        70.0000000
  free_energy:       150.6069865
  entropy:             0.1553439
  heat_capacity:       0.4966451
  energy:            150.6178606

- temperature:        72.0000000
  free_energy:       150.6066613
  entropy:             0.1700203
  heat_capacity:       0.5461566
  energy:            150.6189027

- temperature:        74.0000000
  free_energy:       150.6063057
  entropy:             0.1857022
  heat_capacity:       0.5994383
  energy:            150.6200477

- temperature:        76.0000000
  free_energy:       150.6059178
  entropy:             0.2024392
  heat_capacity:       0.6566971
  energy:            150.6213031

- temperature:        78.0000000
  free_energy:       150.6054952
  entropy:             0.2202825
  heat_capacity:       0.7181420
  energy:            150.6226773

- temperature:        80.0000000
  free_energy:       150.6050359
  entropy:             0.2392847
  heat_capacity:       0.7839826
  energy:            150.6241786

- temperature:        82.0000000
  free_energy:       150.6045373
  entropy:             0.2594998
  heat_capacity:       0.8544277
  energy:            150.6258163

- temperature:        84.0000000
  free_energy:       150.6039970
  entropy:             0.2809826
  heat_capacity:       0.9296841
  energy:            150.6275996

- temperature:        86.0000000
  free_energy:       150.6034125
  entropy:             0.3037892
  heat_capacity:       1.0099552
  energy:            150.6295384

- temperature:        88.0000000
  free_energy:       150.6027809
  entropy:             0.3279763
  heat_capacity:       1.0954399
  energy:            150.6316429

- temperature:        90.0000000
  free_energy:       150.6020996
  entropy:             0.3536011
  heat_capacity:       1.1863317
  energy:            150.6339237

- temperature:        92.0000000
  free_energy:       150.6013655
  entropy:             0.3807215
  heat_capacity:       1.2828173
  energy:            150.6363919

- temperature:        94.0000000
  free_energy:       150.6005757
  entropy:             0.4093951
  heat_capacity:       1.3850757
  energy:            150.6390588

- temperature:        96.0000000
  free_energy:       150.5997269
  entropy:             0.4396801
  heat_capacity:       1.4932780
  energy:            150.6419362

- temperature:        98.0000000
  free_energy:       150.5988159
  entropy:             0.4716343
  heat_capacity:       1.6075860
  energy:            150.6450360

- temperature:       100.0000000
  free_energy:       150.5978392
  entropy:             0.5053150
  heat_capacity:       1.7281520
  energy:            150.6483707

- temperature:       102.0000000
  free_energy:       150.5967934
  entropy:             0.5407792
  heat_capacity:       1.8551184
  energy:            150.6519529

- temperature:       104.0000000
  free_energy:       150.5956749
  entropy:             0.5780834
  heat_capacity:       1.9886174
  energy:            150.6557955

- temperature:       106.0000000
  free_energy:       150.5944798
  entropy:             0.6172829
  heat_capacity:       2.1287703
  energy:            150.6599118

- temperature:       108.0000000
  free_energy:       150.5932044
  entropy:             0.6584324
  heat_capacity:       2.2756882
  energy:            150.6643151

- temperature:       110.0000000
  free_energy:       150.5918447
  entropy:             0.7015853
  heat_capacity:       2.4294714
  energy:            150.6690191

- temperature:       112.0000000
  free_energy:       150.5903967
  entropy:             0.7467940
  heat_capacity:       2.5902094
  energy:            150.6740376

- temperature:       114.0000000
  free_energy:       150.5888562
  entropy:             0.7941095
  heat_capacity:       2.7579816
  energy:            150.6793847

- temperature:       116.0000000
  free_energy:       150.5872188
  entropy:             0.8435816
  heat_capacity:       2.9328569
  energy:            150.6850743

- temperature:       118.0000000
  free_energy:       150.5854804
  entropy:             0.8952584
  heat_capacity:       3.1148944
  energy:            150.6911209

- temperature:       120.0000000
  free_energy:       150.5836363
  entropy:             0.9491865
  heat_capacity:       3.3041434
  energy:            150.6975387

- temperature:       122.0000000
  free_energy:       150.5816821
  entropy:             1.0054113
  heat_capacity:       3.5006441
  energy:            150.7043423

- temperature:       124.0000000
  free_energy:       150.5796131
  entropy:             1.0639760
  heat_capacity:       3.7044275
  energy:            150.7115461

- temperature:       126.0000000
  free_energy:       150.5774246
  entropy:             1.1249226
  heat_capacity:       3.9155165
  energy:            150.7191648

- temperature:       128.0000000
  free_energy:       150.5751118
  entropy:             1.1882912
  heat_capacity:       4.1339256
  energy:            150.7272131

- temperature:       130.0000000
  free_energy:       150.5726698
  entropy:             1.2541203
  heat_capacity:       4.3596619
  energy:            150.7357054

- temperature:       132.0000000
  free_energy:       150.5700936
  entropy:             1.3224466
  heat_capacity:       4.5927251
  energy:            150.7446566

- temperature:       134.0000000
  free_energy:       150.5673783
  entropy:             1.3933052
  heat_capacity:       4.8331084
  energy:            150.7540812

- temperature:       136.0000000
  free_energy:       150.5645187
  entropy:             1.4667293
  heat_capacity:       5.0807987
  energy:            150.7639939

- temperature:       138.0000000
  free_energy:       150.5615097
  entropy:             1.5427507
  heat_capacity:       5.3357768
  energy:            150.7744093

- temperature:       140.0000000
  free_energy:       150.5583460
  entropy:             1.6213992
  heat_capacity:       5.5980184
  energy:            150.7853419

- temperature:       142.0000000
  free_energy:       150.5550223
  entropy:             1.7027032
  heat_capacity:       5.8674939
  energy:            150.7968062

- temperature:       144.0000000
  free_energy:       150.5515334
  entropy:             1.7866894
  heat_capacity:       6.1441693
  energy:            150.8088166

- temperature:       146.0000000
  free_energy:       150.5478737
  entropy:             1.8733827
  heat_capacity:       6.4280062
  energy:            150.8213876

- temperature:       148.0000000
  free_energy:       150.5440380
  entropy:             1.9628067
  heat_capacity:       6.7189622
  energy:            150.8345334

- temperature:       150.0000000
  free_energy:       150.5400207
  entropy:             2.0549833
  heat_capacity:       7.0169914
  energy:            150.8482682

- temperature:       152.0000000
  free_energy:       150.5358162
  entropy:             2.1499330
  heat_capacity:       7.3220446
  energy:            150.8626061

- temperature:       154.0000000
  free_energy:       150.5314191
  entropy:             2.2476748
  heat_capacity:       7.6340697
  energy:            150.8775610

- temperature:       156.0000000
  free_energy:       150.5268237
  entropy:             2.3482262
  heat_capacity:       7.9530116
  energy:            150.8931469

- temperature:       158.0000000
  free_energy:       150.5220243
  entropy:             2.4516033
  heat_capacity:       8.2788129
  energy:            150.9093776

- temperature:       160.0000000
  free_energy:       150.5170153
  entropy:             2.5578211
  heat_capacity:       8.6114139
  energy:            150.9262667

- temperature:       162.0000000
  free_energy:       150.5117911
  entropy:             2.6668930
  heat_capacity:       8.9507526
  energy:            150.9438278

- temperature:       164.0000000
  free_energy:       150.5063459
  entropy:             2.7788312
  heat_capacity:       9.2967654
  energy:            150.9620742

- temperature:       166.0000000
  free_energy:       150.5006739
  entropy:             2.8936468
  heat_capacity:       9.6493866
  energy:            150.9810192

- temperature:       168.0000000
  free_energy:       150.4947694
  entropy:             3.0113496
  heat_capacity:      10.0085493
  energy:            151.0006761

- temperature:       170.0000000
  free_energy:       150.4886265
  entropy:             3.1319483
  heat_capacity:      10.3741847
  energy:            151.0210578

- temperature:       172.0000000
  free_energy:       150.4822396
  entropy:             3.2554504
  heat_capacity:      10.7462230
  energy:            151.0421771

- temperature:       174.0000000
  free_energy:       150.4756028
  entropy:             3.3818625
  heat_capacity:      11.1245930
  energy:            151.0640469

- temperature:       176.0000000
  free_energy:       150.4687102
  entropy:             3.5111898
  heat_capacity:      11.5092222
  energy:            151.0866796

- temperature:       178.0000000
  free_energy:       150.4615561
  entropy:             3.6434370
  heat_capacity:      11.9000372
  energy:            151.1100879

- temperature:       180.0000000
  free_energy:       150.4541345
  entropy:             3.7786074
  heat_capacity:      12.2969634
  energy:            151.1342839

- temperature:       182.0000000
  free_energy:       150.4464397
  entropy:             3.9167035
  heat_capacity:      12.6999254
  energy:            151.1592798

- temperature:       184.0000000
  free_energy:       150.4384658
  entropy:             4.0577270
  heat_capacity:      13.1088469
  energy:            151.1850875

- temperature:       186.0000000
  free_energy:       150.4302069
  entropy:             4.2016786
  heat_capacity:      13.5236504
  energy:            151.2117191

- temperature:       188.0000000
  free_energy:       150.4216571
  entropy:             4.3485580
  heat_capacity:      13.9442580
  energy:            151.2391860

- temperature:       190.0000000
  free_energy:       150.4128107
  entropy:             4.4983645
  heat_capacity:      14.3705907
  energy:            151.2674999

- temperature:       192.0000000
  free_energy:       150.4036617
  entropy:             4.6510961
  heat_capacity:      14.8025688
  energy:            151.2966721

- temperature:       194.0000000
  free_energy:       150.3942043
  entropy:             4.8067503
  heat_capacity:      15.2401119
  energy:            151.3267139

- temperature:       196.0000000
  free_energy:       150.3844327
  entropy:             4.9653240
  heat_capacity:      15.6831389
  energy:            151.3576362

- temperature:       198.0000000
  free_energy:       150.3743411
  entropy:             5.1268129
  heat_capacity:      16.1315678
  energy:            151.3894501

- temperature:       200.0000000
  free_energy:       150.3639236
  entropy:             5.2912125
  heat_capacity:      16.5853161
  energy:            151.4221661

- temperature:       202.0000000
  free_energy:       150.3531743
  entropy:             5.4585173
  heat_capacity:      17.0443007
  energy:            151.4557948

- temperature:       204.0000000
  free_energy:       150.3420876
  entropy:             5.6287213
  heat_capacity:      17.5084376
  energy:            151.4903467

- temperature:       206.0000000
  free_energy:       150.3306575
  entropy:             5.8018177
  heat_capacity:      17.9776423
  energy:            151.5258319

- temperature:       208.0000000
  free_energy:       150.3188784
  entropy:             5.9777992
  heat_capacity:      18.4518298
  energy:            151.5622606

- temperature:       210.0000000
  free_energy:       150.3067444
  entropy:             6.1566578
  heat_capacity:      18.9309143
  energy:            151.5996425

- temperature:       212.0000000
  free_energy:       150.2942498
  entropy:             6.3383851
  heat_capacity:      19.4148096
  energy:            151.6379875

- temperature:       214.0000000
  free_energy:       150.2813889
  entropy:             6.5229719
  heat_capacity:      19.9034287
  energy:            151.6773049

- temperature:       216.0000000
  free_energy:       150.2681560
  entropy:             6.7104085
  heat_capacity:      20.3966844
  energy:            151.7176043

- temperature:       218.0000000
  free_energy:       150.2545454
  entropy:             6.9006847
  heat_capacity:      20.8944887
  energy:            151.7588947

- temperature:       220.0000000
  free_energy:       150.2405514
  entropy:             7.0937899
  heat_capacity:      21.3967532
  energy:            151.8011852

- temperature:       222.0000000
  free_energy:       150.2261684
  entropy:             7.2897128
  heat_capacity:      21.9033892
  energy:            151.8444846

- temperature:       224.0000000
  free_energy:       150.2113907
  entropy:             7.4884416
  heat_capacity:      22.4143072
  energy:            151.8888016

- temperature:       226.0000000
  free_energy:       150.1962127
  entropy:             7.6899641
  heat_capacity:      22.9294177
  energy:            151.9341446

- temperature:       228.0000000
  free_energy:       150.1806290
  entropy:             7.8942677
  heat_capacity:      23.4486305
  energy:            151.9805220

- temperature:       230.0000000
  free_energy:       150.1646338
  entropy:             8.1013392
  heat_capacity:      23.9718552
  energy:            152.0279418

- temperature:       232.0000000
  free_energy:       150.1482218
  entropy:             8.3111649
  heat_capacity:      24.4990011
  energy:            152.0764120

- temperature:       234.0000000
  free_energy:       150.1313873
  entropy:             8.5237310
  heat_capacity:      25.0299770
  energy:            152.1259404

- temperature:       236.0000000
  free_energy:       150.1141250
  entropy:             8.7390229
  heat_capacity:      25.5646918
  energy:            152.1765344

- temperature:       238.0000000
  free_energy:       150.0964294
  entropy:             8.9570258
  heat_capacity:      26.1030539
  energy:            152.2282016

- temperature:       240.0000000
  free_energy:       150.0782951
  entropy:             9.1777245
  heat_capacity:      26.6449716
  energy:            152.2809490

- temperature:       242.0000000
  free_energy:       150.0597168
  entropy:             9.4011034
  heat_capacity:      27.1903530
  energy:            152.3347838

- temperature:       244.0000000
  free_energy:       150.0406889
  entropy:             9.6271465
  heat_capacity:      27.7391063
  energy:            152.3897127

- temperature:       246.0000000
  free_energy:       150.0212064
  entropy:             9.8558374
  heat_capacity:      28.2911394
  energy:            152.4457424

- temperature:       248.0000000
  free_energy:       150.0012638
  entropy:            10.0871594
  heat_capacity:      28.8463603
  energy:            152.5028794

- temperature:       250.0000000
  free_energy:       149.9808560
  entropy:            10.3210955
  heat_capacity:      29.4046769
  energy:            152.5611299

- temperature:       252.0000000
  free_energy:       149.9599777
  entropy:            10.5576284
  heat_capacity:      29.9659973
  energy:            152.6205001

- temperature:       254.0000000
  free_energy:       149.9386238
  entropy:            10.7967403
  heat_capacity:      30.5302295
  energy:            152.6809958

- temperature:       256.0000000
  free_energy:       149.9167891
  entropy:            11.0384133
  heat_capacity:      31.0972818
  energy:            152.7426229

- temperature:       258.0000000
  free_energy:       149.8944684
  entropy:            11.2826292
  heat_capacity:      31.6670627
  energy:            152.8053868

- temperature:       260.0000000
  free_energy:       149.8716569
  entropy:            11.5293693
  heat_capacity:      32.2394806
  energy:            152.8692929

- temperature:       262.0000000
  free_energy:       149.8483493
  entropy:            11.7786149
  heat_capacity:      32.8144445
  energy:            152.9343464

- temperature:       264.0000000
  free_energy:       149.8245407
  entropy:            12.0303468
  heat_capacity:      33.3918636
  energy:            153.0005523

- temperature:       266.0000000
  free_energy:       149.8002263
  entropy:            12.2845457
  heat_capacity:      33.9716473
  energy:            153.0679154

- temperature:       268.0000000
  free_energy:       149.7754009
  entropy:            12.5411921
  heat_capacity:      34.5537054
  energy:            153.1364404

- temperature:       270.0000000
  free_energy:       149.7500599
  entropy:            12.8002660
  heat_capacity:      35.1379483
  energy:            153.2061317

- temperature:       272.0000000
  free_energy:       149.7241983
  entropy:            13.0617476
  heat_capacity:      35.7242866
  energy:            153.2769936

- temperature:       274.0000000
  free_energy:       149.6978113
  entropy:            13.3256164
  heat_capacity:      36.3126316
  energy:            153.3490302

- temperature:       276.0000000
  free_energy:       149.6708942
  entropy:            13.5918521
  heat_capacity:      36.9028948
  energy:            153.4222454

- temperature:       278.0000000
  free_energy:       149.6434423
  entropy:            13.8604341
  heat_capacity:      37.4949886
  energy:            153.4966430

- temperature:       280.0000000
  free_energy:       149.6154509
  entropy:            14.1313414
  heat_capacity:      38.0888258
  energy:            153.5722265

- temperature:       282.0000000
  free_energy:       149.5869154
  entropy:            14.4045531
  heat_capacity:      38.6843198
  energy:            153.6489994

- temperature:       284.0000000
  free_energy:       149.5578312
  entropy:            14.6800481
  heat_capacity:      39.2813848
  energy:            153.7269648

- temperature:       286.0000000
  free_energy:       149.5281937
  entropy:            14.9578049
  heat_capacity:      39.8799355
  energy:            153.8061259

- temperature:       288.0000000
  free_energy:       149.4979985
  entropy:            15.2378022
  heat_capacity:      40.4798875
  energy:            153.8864855

- temperature:       290.0000000
  free_energy:       149.4672410
  entropy:            15.5200184
  heat_capacity:      41.0811569
  energy:            153.9680464

- temperature:       292.0000000
  free_energy:       149.4359169
  entropy:            15.8044316
  heat_capacity:      41.6836609
  energy:            154.0508110

- temperature:       294.0000000
  free_energy:       149.4040219
  entropy:            16.0910201
  heat_capacity:      42.2873171
  energy:            154.1347818

- temperature:       296.0000000
  free_energy:       149.3715514
  entropy:            16.3797619
  heat_capacity:      42.8920444
  energy:            154.2199610

- temperature:       298.0000000
  free_energy:       149.3385014
  entropy:            16.6706350
  heat_capacity:      43.4977621
  energy:            154.3063506

- temperature:       300.0000000
  free_energy:       149.3048675
  entropy:            16.9636171
  heat_capacity:      44.1043906
  energy:            154.3939526

- temperature:       302.0000000
  free_energy:       149.2706455
  entropy:            17.2586861
  heat_capacity:      44.7118511
  energy:            154.4827687

- temperature:       304.0000000
  free_energy:       149.2358314
  entropy:            17.5558196
  heat_capacity:      45.3200660
  energy:            154.5728005

- temperature:       306.0000000
  free_energy:       149.2004209
  entropy:            17.8549953
  heat_capacity:      45.9289582
  energy:            154.6640494

- temperature:       308.0000000
  free_energy:       149.1644100
  entropy:            18.1561906
  heat_capacity:      46.5384518
  energy:            154.7565168

- temperature:       310.0000000
  free_energy:       149.1277948
  entropy:            18.4593832
  heat_capacity:      47.1484719
  energy:            154.8502036

- temperature:       312.0000000
  free_energy:       149.0905712
  entropy:            18.7645505
  heat_capacity:      47.7589444
  energy:            154.9451109

- temperature:       314.0000000
  free_energy:       149.0527353
  entropy:            19.0716699
  heat_capacity:      48.3697966
  energy:            155.0412396

- temperature:       316.0000000
  free_energy:       149.0142832
  entropy:            19.3807187
  heat_capacity:      48.9809563
  energy:            155.1385903

- temperature:       318.0000000
  free_energy:       148.9752111
  entropy:            19.6916744
  heat_capacity:      49.5923527
  energy:            155.2371636

- temperature:       320.0000000
  free_energy:       148.9355153
  entropy:            20.0045143
  heat_capacity:      50.2039159
  energy:            155.3369599

- temperature:       322.0000000
  free_energy:       148.8951918
  entropy:            20.3192158
  heat_capacity:      50.8155771
  energy:            155.4379793

- temperature:       324.0000000
  free_energy:       148.8542372
  entropy:            20.6357562
  heat_capacity:      51.4272686
  energy:            155.5402222

- temperature:       326.0000000
  free_energy:       148.8126476
  entropy:            20.9541128
  heat_capacity:      52.0389237
  energy:            155.6436884

- temperature:       328.0000000
  free_energy:       148.7704195
  entropy:            21.2742630
  heat_capacity:      52.6504768
  energy:            155.7483778

- temperature:       330.0000000
  free_energy:       148.7275494
  entropy:            21.5961843
  heat_capacity:      53.2618633
  energy:            155.8542902

- temperature:       332.0000000
  free_energy:       148.6840336
  entropy:            21.9198539
  heat_capacity:      53.8730199
  energy:            155.9614251

- temperature:       334.0000000
  free_energy:       148.6398688
  entropy:            22.2452493
  heat_capacity:      54.4838843
  energy:            156.0697821

- temperature:       336.0000000
  free_energy:       148.5950515
  entropy:            22.5723480
  heat_capacity:      55.0943953
  energy:            156.1793604

- temperature:       338.0000000
  free_energy:       148.5495783
  entropy:            22.9011274
  heat_capacity:      55.7044927
  energy:            156.2901594

- temperature:       340.0000000
  free_energy:       148.5034459
  entropy:            23.2315653
  heat_capacity:      56.3141176
  energy:            156.4021781

- temperature:       342.0000000
  free_energy:       148.4566509
  entropy:            23.5636390
  heat_capacity:      56.9232121
  energy:            156.5154155

- temperature:       344.0000000
  free_energy:       148.4091902
  entropy:            23.8973264
  heat_capacity:      57.5317194
  energy:            156.6298705

- temperature:       346.0000000
  free_energy:       148.3610606
  entropy:            24.2326051
  heat_capacity:      58.1395838
  energy:            156.7455419

- temperature:       348.0000000
  free_energy:       148.3122588
  entropy:            24.5694529
  heat_capacity:      58.7467508
  energy:            156.8624284

- temperature:       350.0000000
  free_energy:       148.2627817
  entropy:            24.9078477
  heat_capacity:      59.3531669
  energy:            156.9805284

- temperature:       352.0000000
  free_energy:       148.2126264
  entropy:            25.2477675
  heat_capacity:      59.9587798
  energy:            157.0998405

- temperature:       354.0000000
  free_energy:       148.1617897
  entropy:            25.5891902
  heat_capacity:      60.5635382
  energy:            157.2203630

- temperature:       356.0000000
  free_energy:       148.1102686
  entropy:            25.9320940