<?xml version="1.0" encoding="ISO-8859-1"?>
<modeling>
 <generator>
  <i name="program" type="string">vasp </i>
  <i name="version" type="string">5.4.4.18Apr17-6-g9f103f2a35  </i>
  <i name="subversion" type="string">(build Mar 12 2022 03:36:41) complex            parallel </i>
  <i name="platform" type="string">IFC19.0.3.199_CrayMPICH7.7.19 </i>
  <i name="date" type="string">2022 12 02 </i>
  <i name="time" type="string">01:08:39 </i>
 </generator>
 <incar>
  <i type="string" name="PREC">accurate</i>
  <i type="int" name="IALGO">    38</i>
  <i type="logical" name="ADDGRID"> T  </i>
  <i type="int" name="IBRION">     8</i>
  <i name="EDIFF">      0.00000001</i>
  <i type="logical" name="LREAL"> F  </i>
  <i type="int" name="ISMEAR">     0</i>
  <i name="SIGMA">      0.06000000</i>
  <i type="logical" name="LWAVE"> F  </i>
  <i type="logical" name="LCHARG"> F  </i>
  <v type="int" name="KPOINT_BSE">    -1     0     0     0</v>
 </incar>
 <structure name="primitive_cell" >
  <crystal>
   <varray name="basis" >
    <v>       0.00000000      -1.70288622       1.79499968 </v>
    <v>       0.00000000       1.70288622       1.79499968 </v>
    <v>      -1.70288622       0.00000000      -1.79499968 </v>
   </varray>
   <i name="volume">     10.41035727 </i>
   <varray name="rec_basis" >
    <v>      -0.29361915      -0.29361915       0.27855158 </v>
    <v>      -0.29361915       0.29361915       0.27855158 </v>
    <v>      -0.58723829       0.00000000       0.00000000 </v>
   </varray>
  </crystal>
  <varray name="positions" >
   <v>       0.25000000      -0.25000000      -0.50000000 </v>
   <v>      -0.50000000      -0.50000000       0.00000000 </v>
  </varray>
 </structure>
 <varray name="primitive_index" >
  <v type="int" >        1 </v>
  <v type="int" >       11 </v>
 </varray>
 <kpoints>
  <generation param="Gamma">
   <v type="int" name="divisions">       6        6        6 </v>
   <v name="usershift">      0.00000000       0.00000000       0.00000000 </v>
   <v name="genvec1">      0.16666667       0.00000000       0.00000000 </v>
   <v name="genvec2">      0.00000000       0.16666667       0.00000000 </v>
   <v name="genvec3">      0.00000000       0.00000000       0.16666667 </v>
   <v name="shift">      0.00000000       0.00000000       0.00000000 </v>
  </generation>
  <varray name="kpointlist" >
   <v>       0.00000000       0.00000000       0.00000000 </v>
   <v>       0.16666667       0.00000000       0.00000000 </v>
   <v>       0.33333333       0.00000000       0.00000000 </v>
   <v>       0.50000000       0.00000000       0.00000000 </v>
   <v>       0.16666667       0.16666667       0.00000000 </v>
   <v>       0.33333333       0.16666667       0.00000000 </v>
   <v>       0.50000000       0.16666667       0.00000000 </v>
   <v>       0.33333333       0.33333333       0.00000000 </v>
   <v>       0.50000000       0.33333333       0.00000000 </v>
   <v>       0.50000000       0.50000000       0.00000000 </v>
   <v>       0.00000000       0.00000000       0.16666667 </v>
   <v>       0.16666667       0.00000000       0.16666667 </v>
   <v>       0.33333333       0.00000000       0.16666667 </v>
   <v>       0.50000000       0.00000000       0.16666667 </v>
   <v>       0.16666667       0.16666667       0.16666667 </v>
   <v>       0.33333333       0.16666667       0.16666667 </v>
   <v>       0.50000000       0.16666667       0.16666667 </v>
   <v>       0.33333333       0.33333333       0.16666667 </v>
   <v>       0.50000000       0.33333333       0.16666667 </v>
   <v>       0.50000000       0.50000000       0.16666667 </v>
   <v>       0.00000000       0.00000000       0.33333333 </v>
   <v>       0.16666667       0.00000000       0.33333333 </v>
   <v>       0.33333333       0.00000000       0.33333333 </v>
   <v>       0.50000000       0.00000000       0.33333333 </v>
   <v>       0.16666667       0.16666667       0.33333333 </v>
   <v>       0.33333333       0.16666667       0.33333333 </v>
   <v>       0.50000000       0.16666667       0.33333333 </v>
   <v>       0.33333333       0.33333333       0.33333333 </v>
   <v>       0.50000000       0.33333333       0.33333333 </v>
   <v>       0.50000000       0.50000000       0.33333333 </v>
   <v>       0.00000000       0.00000000       0.50000000 </v>
   <v>       0.16666667       0.00000000       0.50000000 </v>
   <v>       0.33333333       0.00000000       0.50000000 </v>
   <v>       0.50000000       0.00000000       0.50000000 </v>
   <v>       0.16666667       0.16666667       0.50000000 </v>
   <v>       0.33333333       0.16666667       0.50000000 </v>
   <v>       0.50000000       0.16666667       0.50000000 </v>
   <v>       0.33333333       0.33333333       0.50000000 </v>
   <v>       0.50000000       0.33333333       0.50000000 </v>
   <v>       0.50000000       0.50000000       0.50000000 </v>
  </varray>
  <varray name="weights" >
   <v>       0.00462963 </v>
   <v>       0.01851852 </v>
   <v>       0.01851852 </v>
   <v>       0.00925926 </v>
   <v>       0.01851852 </v>
   <v>       0.03703704 </v>
   <v>       0.01851852 </v>
   <v>       0.01851852 </v>
   <v>       0.01851852 </v>
   <v>       0.00462963 </v>
   <v>       0.00925926 </v>
   <v>       0.03703704 </v>
   <v>       0.03703704 </v>
   <v>       0.01851852 </v>
   <v>       0.03703704 </v>
   <v>       0.07407407 </v>
   <v>       0.03703704 </v>
   <v>       0.03703704 </v>
   <v>       0.03703704 </v>
   <v>       0.00925926 </v>
   <v>       0.00925926 </v>
   <v>       0.03703704 </v>
   <v>       0.03703704 </v>
   <v>       0.01851852 </v>
   <v>       0.03703704 </v>
   <v>       0.07407407 </v>
   <v>       0.03703704 </v>
   <v>       0.03703704 </v>
   <v>       0.03703704 </v>
   <v>       0.00925926 </v>
   <v>       0.00462963 </v>
   <v>       0.01851852 </v>
   <v>       0.01851852 </v>
   <v>       0.00925926 </v>
   <v>       0.01851852 </v>
   <v>       0.03703704 </v>
   <v>       0.01851852 </v>
   <v>       0.01851852 </v>
   <v>       0.01851852 </v>
   <v>       0.00462963 </v>
  </varray>
 </kpoints>
 <parameters>
  <separator name="general" >
   <i type="string" name="SYSTEM">unknown system</i>
   <i type="logical" name="LCOMPAT"> F  </i>
  </separator>
  <separator name="electronic" >
   <i type="string" name="PREC">accura</i>
   <i name="ENMAX">    400.00000000</i>
   <i name="ENAUG">    644.87300000</i>
   <i name="EDIFF">      0.00000001</i>
   <i type="int" name="IALGO">    38</i>
   <i type="int" name="IWAVPR">    11</i>
   <i type="int" name="NBANDS">   192</i>
   <i name="NELECT">    256.00000000</i>
   <i type="int" name="TURBO">     0</i>
   <i type="int" name="IRESTART">     0</i>
   <i type="int" name="NREBOOT">     0</i>
   <i type="int" name="NMIN">     0</i>
   <i name="EREF">      0.00000000</i>
   <separator name="electronic smearing" >
    <i type="int" name="ISMEAR">     0</i>
    <i name="SIGMA">      0.06000000</i>
    <i name="KSPACING">      0.50000000</i>
    <i type="logical" name="KGAMMA"> T  </i>
   </separator>
   <separator name="electronic projectors" >
    <i type="logical" name="LREAL"> F  </i>
    <v name="ROPT">      0.00000000</v>
    <i type="int" name="LMAXPAW">  -100</i>
    <i type="int" name="LMAXMIX">     2</i>
    <i type="logical" name="NLSPLINE"> F  </i>
   </separator>
   <separator name="electronic startup" >
    <i type="int" name="ISTART">     0</i>
    <i type="int" name="ICHARG">     2</i>
    <i type="int" name="INIWAV">     1</i>
   </separator>
   <separator name="electronic spin" >
    <i type="int" name="ISPIN">     1</i>
    <i type="logical" name="LNONCOLLINEAR"> F  </i>
    <v name="MAGMOM">      1.00000000      1.00000000      1.00000000      1.00000000      1.00000000      1.00000000      1.00000000      1.00000000      1.00000000      1.00000000      1.00000000      1.00000000      1.00000000      1.00000000      1.00000000      1.00000000      1.00000000      1.00000000      1.00000000      1.00000000
      1.00000000      1.00000000      1.00000000      1.00000000      1.00000000      1.00000000      1.00000000      1.00000000      1.00000000      1.00000000      1.00000000      1.00000000      1.00000000      1.00000000      1.00000000      1.00000000      1.00000000      1.00000000      1.00000000      1.00000000
      1.00000000      1.00000000      1.00000000      1.00000000      1.00000000      1.00000000      1.00000000      1.00000000      1.00000000      1.00000000      1.00000000      1.00000000      1.00000000      1.00000000      1.00000000      1.00000000      1.00000000      1.00000000      1.00000000      1.00000000
      1.00000000      1.00000000      1.00000000      1.00000000</v>
    <i name="NUPDOWN">     -1.00000000</i>
    <i type="logical" name="LSORBIT"> F  </i>
    <v name="SAXIS">      0.00000000      0.00000000      1.00000000</v>
    <i type="logical" name="LSPIRAL"> F  </i>
    <v name="QSPIRAL">      0.00000000      0.00000000      0.00000000</v>
    <i type="logical" name="LZEROZ"> F  </i>
   </separator>
   <separator name="electronic exchange-correlation" >
    <i type="logical" name="LASPH"> F  </i>
    <i type="logical" name="LMETAGGA"> F  </i>
   </separator>
   <separator name="electronic convergence" >
    <i type="int" name="NELM">    60</i>
    <i type="int" name="NELMDL">     0</i>
    <i type="int" name="NELMIN">     2</i>
    <i name="ENINI">    400.00000000</i>
    <separator name="electronic convergence detail" >
     <i type="logical" name="LDIAG"> T  </i>
     <i type="logical" name="LSUBROT"> F  </i>
     <i name="WEIMIN">      0.00100000</i>
     <i name="EBREAK">      0.00000000</i>
     <i name="DEPER">      0.30000000</i>
     <i type="int" name="NRMM">     4</i>
     <i name="TIME">      0.40000000</i>
    </separator>
   </separator>
   <separator name="electronic mixer" >
    <i name="AMIX">      0.40000000</i>
    <i name="BMIX">      1.00000000</i>
    <i name="AMIN">      0.10000000</i>
    <i name="AMIX_MAG">      1.60000000</i>
    <i name="BMIX_MAG">      1.00000000</i>
    <separator name="electronic mixer details" >
     <i type="int" name="IMIX">     4</i>
     <i type="logical" name="MIXFIRST"> F  </i>
     <i type="int" name="MAXMIX">   -45</i>
     <i name="WC">    100.00000000</i>
     <i type="int" name="INIMIX">     1</i>
     <i type="int" name="MIXPRE">     1</i>
     <i type="int" name="MREMOVE">     5</i>
    </separator>
   </separator>
   <separator name="electronic dipolcorrection" >
    <i type="logical" name="LDIPOL"> F  </i>
    <i type="logical" name="LMONO"> F  </i>
    <i type="int" name="IDIPOL">     0</i>
    <i name="EPSILON">      1.00000000</i>
    <v name="DIPOL">   -100.00000000   -100.00000000   -100.00000000</v>
    <i name="EFIELD">      0.00000000</i>
   </separator>
  </separator>
  <separator name="grids" >
   <i type="int" name="NGX">    48</i>
   <i type="int" name="NGY">    48</i>
   <i type="int" name="NGZ">    48</i>
   <i type="int" name="NGXF">    96</i>
   <i type="int" name="NGYF">    96</i>
   <i type="int" name="NGZF">    96</i>
   <i type="logical" name="ADDGRID"> T  </i>
  </separator>
  <separator name="ionic" >
   <i type="int" name="NSW">     1</i>
   <i type="int" name="IBRION">     8</i>
   <i type="int" name="MDALGO">     0</i>
   <i type="int" name="ISIF">     2</i>
   <i name="PSTRESS">      0.00000000</i>
   <i name="EDIFFG">      0.00000010</i>
   <i type="int" name="NFREE">     0</i>
   <i name="POTIM">      0.50000000</i>
   <i name="SMASS">     -3.00000000</i>
   <i name="SCALEE">      1.00000000</i>
  </separator>
  <separator name="ionic md" >
   <i name="TEBEG">      0.00010000</i>
   <i name="TEEND">      0.00010000</i>
   <i type="int" name="NBLOCK">     1</i>
   <i type="int" name="KBLOCK">     1</i>
   <i type="int" name="NPACO">   256</i>
   <i name="APACO">     16.00000000</i>
  </separator>
  <separator name="symmetry" >
   <i type="int" name="ISYM">     2</i>
   <i name="SYMPREC">      0.00001000</i>
  </separator>
  <separator name="dos" >
   <i type="int" name="LORBIT">     0</i>
   <v name="RWIGS">     -1.00000000</v>
   <i type="int" name="NEDOS">   301</i>
   <i name="EMIN">     10.00000000</i>
   <i name="EMAX">    -10.00000000</i>
   <i name="EFERMI">      0.00000000</i>
  </separator>
  <separator name="writing" >
   <i type="int" name="NWRITE">     2</i>
   <i type="logical" name="LWAVE"> F  </i>
   <i type="logical" name="LDOWNSAMPLE"> F  </i>
   <i type="logical" name="LCHARG"> F  </i>
   <i type="logical" name="LPARD"> F  </i>
   <i type="logical" name="LVTOT"> F  </i>
   <i type="logical" name="LVHAR"> F  </i>
   <i type="logical" name="LELF"> F  </i>
   <i type="logical" name="LOPTICS"> F  </i>
   <v name="STM">      0.00000000      0.00000000      0.00000000      0.00000000      0.00000000      0.00000000      0.00000000</v>
  </separator>
  <separator name="performance" >
   <i type="int" name="NPAR">    32</i>
   <i type="int" name="NSIM">     4</i>
   <i type="int" name="NBLK">    -1</i>
   <i type="logical" name="LPLANE"> T  </i>
   <i type="logical" name="LSCALAPACK"> T  </i>
   <i type="logical" name="LSCAAWARE"> F  </i>
   <i type="logical" name="LSCALU"> F  </i>
   <i type="logical" name="LASYNC"> F  </i>
   <i type="logical" name="LORBITALREAL"> F  </i>
  </separator>
  <separator name="miscellaneous" >
   <i type="int" name="IDIOT">     3</i>
   <i type="int" name="ISPECIAL">     0</i>
   <i type="logical" name="LMUSIC"> F  </i>
   <v name="POMASS">     12.01100000</v>
   <v name="DARWINR">      0.00000000</v>
   <v name="DARWINV">      1.00000000</v>
   <i type="logical" name="LCORR"> T  </i>
  </separator>
  <i type="logical" name="GGA_COMPAT"> T  </i>
  <i type="logical" name="LBERRY"> F  </i>
  <i type="int" name="ICORELEVEL">     0</i>
  <i type="logical" name="LDAU"> F  </i>
  <i type="int" name="I_CONSTRAINED_M">     0</i>
  <separator name="electronic exchange-correlation" >
   <i type="string" name="GGA">--</i>
   <i type="int" name="VOSKOWN">     0</i>
   <i type="logical" name="LHFCALC"> F  </i>
   <i type="string" name="PRECFOCK"></i>
   <i type="logical" name="LSYMGRAD"> F  </i>
   <i type="logical" name="LHFONE"> F  </i>
   <i type="logical" name="LRHFCALC"> F  </i>
   <i type="logical" name="LTHOMAS"> F  </i>
   <i type="logical" name="LMODELHF"> F  </i>
   <i name="ENCUT4O">     -1.00000000</i>
   <i type="int" name="EXXOEP">     0</i>
   <i type="int" name="FOURORBIT">     0</i>
   <i name="AEXX">      0.00000000</i>
   <i name="HFALPHA">      0.00000000</i>
   <i name="MCALPHA">      0.00000000</i>
   <i name="ALDAX">      1.00000000</i>
   <i name="AGGAX">      1.00000000</i>
   <i name="ALDAC">      1.00000000</i>
   <i name="AGGAC">      1.00000000</i>
   <i type="int" name="NKREDX">     1</i>
   <i type="int" name="NKREDY">     1</i>
   <i type="int" name="NKREDZ">     1</i>
   <i type="logical" name="SHIFTRED"> F  </i>
   <i type="logical" name="ODDONLY"> F  </i>
   <i type="logical" name="EVENONLY"> F  </i>
   <i type="int" name="LMAXFOCK">     0</i>
   <i type="int" name="NMAXFOCKAE">     0</i>
   <i type="logical" name="LFOCKAEDFT"> F  </i>
   <i name="HFSCREEN">      0.00000000</i>
   <i name="HFSCREENC">      0.00000000</i>
   <i type="int" name="NBANDSGWLOW">     0</i>
  </separator>
  <separator name="vdW DFT" >
   <i type="logical" name="LUSE_VDW"> F  </i>
   <i name="Zab_VDW">     -0.84910000</i>
   <i name="PARAM1">      0.12340000</i>
   <i name="PARAM2">      1.00000000</i>
   <i name="PARAM3">      0.00000000</i>
  </separator>
  <separator name="model GW" >
   <i type="int" name="MODEL_GW">     0</i>
   <i name="MODEL_EPS0">      3.12310718</i>
   <i name="MODEL_ALPHA">      1.00000000</i>
  </separator>
  <separator name="linear response parameters" >
   <i type="logical" name="LEPSILON"> F  </i>
   <i type="logical" name="LRPA"> F  </i>
   <i type="logical" name="LNABLA"> F  </i>
   <i type="logical" name="LVEL"> F  </i>
   <i type="int" name="KINTER">     0</i>
   <i name="CSHIFT">      0.10000000</i>
   <i name="OMEGAMAX">     -1.00000000</i>
   <i name="DEG_THRESHOLD">      0.00200000</i>
   <i name="RTIME">     -0.10000000</i>
   <i name="WPLASMAI">      0.00000000</i>
   <v name="DFIELD">      0.00000000      0.00000000      0.00000000</v>
   <v name="WPLASMA">      0.00000000      0.00000000      0.00000000      0.00000000      0.00000000      0.00000000      0.00000000      0.00000000      0.00000000</v>
  </separator>
  <separator name="orbital magnetization" >
   <i type="logical" name="NUCIND"> F  </i>
   <v name="MAGPOS">      0.00000000      0.00000000      0.00000000</v>
   <i type="logical" name="LNICSALL"> T  </i>
   <i type="logical" name="ORBITALMAG"> F  </i>
   <i type="logical" name="LMAGBLOCH"> F  </i>
   <i type="logical" name="LCHIMAG"> F  </i>
   <i type="logical" name="LGAUGE"> T  </i>
   <i type="int" name="MAGATOM">     0</i>
   <v name="MAGDIPOL">      0.00000000      0.00000000      0.00000000</v>
   <v name="AVECCONST">      0.00000000      0.00000000      0.00000000</v>
  </separator>
  <separator name="response functions" >
   <i type="logical" name="LADDER"> F  </i>
   <i type="logical" name="LRPAFORCE"> F  </i>
   <i type="logical" name="LFXC"> F  </i>
   <i type="logical" name="LHARTREE"> T  </i>
   <i type="int" name="IBSE">     0</i>
   <v type="int" name="KPOINT">    -1     0     0     0</v>
   <i type="logical" name="LTCTE"> F  </i>
   <i type="logical" name="LTETE"> F  </i>
   <i type="logical" name="LTRIPLET"> F  </i>
   <i type="logical" name="LFXCEPS"> F  </i>
   <i type="logical" name="LFXHEG"> F  </i>
   <i type="int" name="NATURALO">     2</i>
   <i type="logical" name="L2ORDER"> F  </i>
   <i type="logical" name="LMP2LT"> F  </i>
   <i type="logical" name="LUSEW"> F  </i>
   <i name="ENCUTGW">     -2.00000000</i>
   <i name="ENCUTGWSOFT">     -2.00000000</i>
   <i name="ENCUTLF">     -1.00000000</i>
   <i type="int" name="LMAXMP2">    -1</i>
   <i name="SCISSOR">      0.00000000</i>
   <i type="int" name="NOMEGA">     0</i>
   <i type="int" name="NOMEGAR">     0</i>
   <i type="int" name="NBANDSGW">    -1</i>
   <i type="int" name="NBANDSO">    -1</i>
   <i type="int" name="NBANDSV">    -1</i>
   <i type="int" name="NELM">     1</i>
   <i type="int" name="NELMHF">     1</i>
   <i type="int" name="DIM">     3</i>
   <i type="int" name="ANTIRES">     0</i>
   <i name="OMEGAMAX">    -30.00000000</i>
   <i name="OMEGAMIN">    -30.00000000</i>
   <i name="OMEGATL">   -200.00000000</i>
   <i type="int" name="OMEGAGRID">   140</i>
   <i name="CSHIFT">     -0.10000000</i>
   <i type="logical" name="SELFENERGY"> F  </i>
   <i type="logical" name="LSPECTRAL"> F  </i>
   <i type="logical" name="LSPECTRALGW"> F  </i>
   <i type="logical" name="LSINGLES"> F  </i>
   <i type="logical" name="LFERMIGW"> F  </i>
   <i type="logical" name="ODDONLYGW"> F  </i>
   <i type="logical" name="EVENONLYGW"> F  </i>
   <i type="int" name="NKREDLFX">     1</i>
   <i type="int" name="NKREDLFY">     1</i>
   <i type="int" name="NKREDLFZ">     1</i>
   <i type="int" name="MAXMEM">  2800</i>
   <i type="int" name="TELESCOPE">     0</i>
   <i type="int" name="TAUPAR">     1</i>
   <i type="int" name="OMEGAPAR">    -1</i>
   <i name="LAMBDA">      1.00000000</i>
  </separator>
  <separator name="External order field" >
   <i name="OFIELD_KAPPA">      0.00000000</i>
   <v name="OFIELD_K">      0.00000000      0.00000000      0.00000000</v>
   <i name="OFIELD_Q6_NEAR">      0.00000000</i>
   <i name="OFIELD_Q6_FAR">      0.00000000</i>
   <i name="OFIELD_A">      0.00000000</i>
  </separator>
 </parameters>
 <atominfo>
  <atoms>      64 </atoms>
  <types>       1 </types>
  <array name="atoms" >
   <dimension dim="1">ion</dimension>
   <field type="string">element</field>
   <field type="int">atomtype</field>
   <set>
    <rc><c>C </c><c>   1</c></rc>
    <rc><c>C </c><c>   1</c></rc>
    <rc><c>C </c><c>   1</c></rc>
    <rc><c>C </c><c>   1</c></rc>
    <rc><c>C </c><c>   1</c></rc>
    <rc><c>C </c><c>   1</c></rc>
    <rc><c>C </c><c>   1</c></rc>
    <rc><c>C </c><c>   1</c></rc>
    <rc><c>C </c><c>   1</c></rc>
    <rc><c>C </c><c>   1</c></rc>
    <rc><c>C </c><c>   1</c></rc>
    <rc><c>C </c><c>   1</c></rc>
    <rc><c>C </c><c>   1</c></rc>
    <rc><c>C </c><c>   1</c></rc>
    <rc><c>C </c><c>   1</c></rc>
    <rc><c>C </c><c>   1</c></rc>
    <rc><c>C </c><c>   1</c></rc>
    <rc><c>C </c><c>   1</c></rc>
    <rc><c>C </c><c>   1</c></rc>
    <rc><c>C </c><c>   1</c></rc>
    <rc><c>C </c><c>   1</c></rc>
    <rc><c>C </c><c>   1</c></rc>
    <rc><c>C </c><c>   1</c></rc>
    <rc><c>C </c><c>   1</c></rc>
    <rc><c>C </c><c>   1</c></rc>
    <rc><c>C </c><c>   1</c></rc>
    <rc><c>C </c><c>   1</c></rc>
    <rc><c>C </c><c>   1</c></rc>
    <rc><c>C </c><c>   1</c></rc>
    <rc><c>C </c><c>   1</c></rc>
    <rc><c>C </c><c>   1</c></rc>
    <rc><c>C </c><c>   1</c></rc>
    <rc><c>C </c><c>   1</c></rc>
    <rc><c>C </c><c>   1</c></rc>
    <rc><c>C </c><c>   1</c></rc>
    <rc><c>C </c><c>   1</c></rc>
    <rc><c>C </c><c>   1</c></rc>
    <rc><c>C </c><c>   1</c></rc>
    <rc><c>C </c><c>   1</c></rc>
    <rc><c>C </c><c>   1</c></rc>
    <rc><c>C </c><c>   1</c></rc>
    <rc><c>C </c><c>   1</c></rc>
    <rc><c>C </c><c>   1</c></rc>
    <rc><c>C </c><c>   1</c></rc>
    <rc><c>C </c><c>   1</c></rc>
    <rc><c>C </c><c>   1</c></rc>
    <rc><c>C </c><c>   1</c></rc>
    <rc><c>C </c><c>   1</c></rc>
    <rc><c>C </c><c>   1</c></rc>
    <rc><c>C </c><c>   1</c></rc>
    <rc><c>C </c><c>   1</c></rc>
    <rc><c>C </c><c>   1</c></rc>
    <rc><c>C </c><c>   1</c></rc>
    <rc><c>C </c><c>   1</c></rc>
    <rc><c>C </c><c>   1</c></rc>
    <rc><c>C </c><c>   1</c></rc>
    <rc><c>C </c><c>   1</c></rc>
    <rc><c>C </c><c>   1</c></rc>
    <rc><c>C </c><c>   1</c></rc>
    <rc><c>C </c><c>   1</c></rc>
    <rc><c>C </c><c>   1</c></rc>
    <rc><c>C </c><c>   1</c></rc>
    <rc><c>C </c><c>   1</c></rc>
    <rc><c>C </c><c>   1</c></rc>
   </set>
  </array>
  <array name="atomtypes" >
   <dimension dim="1">type</dimension>
   <field type="int">atomspertype</field>
   <field type="string">element</field>
   <field>mass</field>
   <field>valence</field>
   <field type="string">pseudopotential</field>
   <set>
    <rc><c>  64</c><c>C </c><c>     12.01100000</c><c>      4.00000000</c><c> PAW_PBE C 08Apr2002                    </c></rc>
   </set>
  </array>
 </atominfo>
 <structure name="initialpos" >
  <crystal>
   <varray name="basis" >
    <v>       6.81154489       0.00000000       0.00000000 </v>
    <v>       0.00000000       6.81154489       0.00000000 </v>
    <v>       0.00000000       0.00000000       7.17999872 </v>
   </varray>
   <i name="volume">    333.13143249 </i>
   <varray name="rec_basis" >
    <v>       0.14680957       0.00000000       0.00000000 </v>
    <v>       0.00000000       0.14680957       0.00000000 </v>
    <v>       0.00000000       0.00000000       0.13927579 </v>
   </varray>
  </crystal>
  <varray name="positions" >
   <v>       0.12500000       0.37500000       0.12500000 </v>
   <v>       0.62500000       0.37500000       0.12500000 </v>
   <v>       0.12500000       0.87500000       0.12500000 </v>
   <v>       0.62500000       0.87500000       0.12500000 </v>
   <v>       0.12500000       0.37500000       0.62500000 </v>
   <v>       0.62500000       0.37500000       0.62500000 </v>
   <v>       0.12500000       0.87500000       0.62500000 </v>
   <v>       0.62500000       0.87500000       0.62500000 </v>
   <v>       0.00000000       0.00000000       0.25000000 </v>
   <v>       0.50000000       0.00000000       0.25000000 </v>
   <v>       0.00000000       0.50000000       0.25000000 </v>
   <v>       0.50000000       0.50000000       0.25000000 </v>
   <v>       0.00000000       0.00000000       0.75000000 </v>
   <v>       0.50000000       0.00000000       0.75000000 </v>
   <v>       0.00000000       0.50000000       0.75000000 </v>
   <v>       0.50000000       0.50000000       0.75000000 </v>
   <v>       0.12500000       0.12500000       0.37500000 </v>
   <v>       0.62500000       0.12500000       0.37500000 </v>
   <v>       0.12500000       0.62500000       0.37500000 </v>
   <v>       0.62500000       0.62500000       0.37500000 </v>
   <v>       0.12500000       0.12500000       0.87500000 </v>
   <v>       0.62500000       0.12500000       0.87500000 </v>
   <v>       0.12500000       0.62500000       0.87500000 </v>
   <v>       0.62500000       0.62500000       0.87500000 </v>
   <v>       0.00000000       0.25000000       0.00000000 </v>
   <v>       0.50000000       0.25000000       0.00000000 </v>
   <v>       0.00000000       0.75000000       0.00000000 </v>
   <v>       0.50000000       0.75000000       0.00000000 </v>
   <v>       0.00000000       0.25000000       0.50000000 </v>
   <v>       0.50000000       0.25000000       0.50000000 </v>
   <v>       0.00000000       0.75000000       0.50000000 </v>
   <v>       0.50000000       0.75000000       0.50000000 </v>
   <v>       0.37500000       0.37500000       0.37500000 </v>
   <v>       0.87500000       0.37500000       0.37500000 </v>
   <v>       0.37500000       0.87500000       0.37500000 </v>
   <v>       0.87500000       0.87500000       0.37500000 </v>
   <v>       0.37500000       0.37500000       0.87500000 </v>
   <v>       0.87500000       0.37500000       0.87500000 </v>
   <v>       0.37500000       0.87500000       0.87500000 </v>
   <v>       0.87500000       0.87500000       0.87500000 </v>
   <v>       0.25000000       0.00000000       0.00000000 </v>
   <v>       0.75000000       0.00000000       0.00000000 </v>
   <v>       0.25000000       0.50000000       0.00000000 </v>
   <v>       0.75000000       0.50000000       0.00000000 </v>
   <v>       0.25000000       0.00000000       0.50000000 </v>
   <v>       0.75000000       0.00000000       0.50000000 </v>
   <v>       0.25000000       0.50000000       0.50000000 </v>
   <v>       0.75000000       0.50000000       0.50000000 </v>
   <v>       0.37500000       0.12500000       0.12500000 </v>
   <v>       0.87500000       0.12500000       0.12500000 </v>
   <v>       0.37500000       0.62500000       0.12500000 </v>
   <v>       0.87500000       0.62500000       0.12500000 </v>
   <v>       0.37500000       0.12500000       0.62500000 </v>
   <v>       0.87500000       0.12500000       0.62500000 </v>
   <v>       0.37500000       0.62500000       0.62500000 </v>
   <v>       0.87500000       0.62500000       0.62500000 </v>
   <v>       0.25000000       0.25000000       0.25000000 </v>
   <v>       0.75000000       0.25000000       0.25000000 </v>
   <v>       0.25000000       0.75000000       0.25000000 </v>
   <v>       0.75000000       0.75000000       0.25000000 </v>
   <v>       0.25000000       0.25000000       0.75000000 </v>
   <v>       0.75000000       0.25000000       0.75000000 </v>
   <v>       0.25000000       0.75000000       0.75000000 </v>
   <v>       0.75000000       0.75000000       0.75000000 </v>
  </varray>
 </structure>
 <calculation>
  <scstep>
   <time name="dav">   25.44   25.45</time>
   <time name="total">   25.56   25.62</time>
   <energy>
    <i name="alphaZ">   1001.83506926 </i>
    <i name="ewald"> -11463.00659502 </i>
    <i name="hartreedc">   -503.19290836 </i>
    <i name="XCdc">    932.94645326 </i>
    <i name="pawpsdc">   2421.21235816 </i>
    <i name="pawaedc">  -2494.84305711 </i>
    <i name="eentropy">     -0.00825640 </i>
    <i name="bandstr">   1216.52875558 </i>
    <i name="atom">   9416.14232778 </i>
    <i name="e_fr_energy">    527.61414715 </i>
    <i name="e_wo_entrp">    527.62240354 </i>
    <i name="e_0_energy">    527.61827535 </i>
   </energy>
  </scstep>
  <scstep>
   <time name="dav">   32.14   32.15</time>
   <time name="total">   32.15   32.15</time>
   <energy>
    <i name="e_fr_energy">   -561.37572767 </i>
    <i name="e_wo_entrp">   -561.37572767 </i>
    <i name="e_0_energy">   -561.37572767 </i>
   </energy>
  </scstep>
  <scstep>
   <time name="dav">   32.69   32.70</time>
   <time name="total">   32.70   32.70</time>
   <energy>
    <i name="e_fr_energy">   -601.18181331 </i>
    <i name="e_wo_entrp">   -601.18181331 </i>
    <i name="e_0_energy">   -601.18181331 </i>
   </energy>
  </scstep>
  <scstep>
   <time name="dav">   32.33   32.34</time>
   <time name="total">   32.34   32.34</time>
   <energy>
    <i name="e_fr_energy">   -601.55396220 </i>
    <i name="e_wo_entrp">   -601.55396220 </i>
    <i name="e_0_energy">   -601.55396220 </i>
   </energy>
  </scstep>
  <scstep>
   <time name="dav">   31.52   31.53</time>
   <time name="total">   32.29   32.29</time>
   <energy>
    <i name="e_fr_energy">   -601.56131202 </i>
    <i name="e_wo_entrp">   -601.56131202 </i>
    <i name="e_0_energy">   -601.56131202 </i>
   </energy>
  </scstep>
  <scstep>
   <time name="dav">   29.03   29.03</time>
   <time name="total">   29.89   29.97</time>
   <energy>
    <i name="e_fr_energy">   -582.15480658 </i>
    <i name="e_wo_entrp">   -582.15480658 </i>
    <i name="e_0_energy">   -582.15480658 </i>
   </energy>
  </scstep>
  <scstep>
   <time name="dav">   30.21   30.21</time>
   <time name="total">   31.07   31.07</time>
   <energy>
    <i name="e_fr_energy">   -575.62276583 </i>
    <i name="e_wo_entrp">   -575.62276583 </i>
    <i name="e_0_energy">   -575.62276583 </i>
   </energy>
  </scstep>
  <scstep>
   <time name="dav">   29.87   29.88</time>
   <time name="total">   30.73   30.73</time>
   <energy>
    <i name="e_fr_energy">   -575.69245101 </i>
    <i name="e_wo_entrp">   -575.69245101 </i>
    <i name="e_0_energy">   -575.69245101 </i>
   </energy>
  </scstep>
  <scstep>
   <time name="dav">   31.86   31.86</time>
   <time name="total">   32.71   32.71</time>
   <energy>
    <i name="e_fr_energy">   -575.69447396 </i>
    <i name="e_wo_entrp">   -575.69447396 </i>
    <i name="e_0_energy">   -575.69447396 </i>
   </energy>
  </scstep>
  <scstep>
   <time name="dav">   30.62   30.62</time>
   <time name="total">   31.48   31.48</time>
   <energy>
    <i name="e_fr_energy">   -575.69488082 </i>
    <i name="e_wo_entrp">   -575.69488082 </i>
    <i name="e_0_energy">   -575.69488082 </i>
   </energy>
  </scstep>
  <scstep>
   <time name="dav">   32.14   32.14</time>
   <time name="total">   32.99   33.00</time>
   <energy>
    <i name="e_fr_energy">   -575.69488810 </i>
    <i name="e_wo_entrp">   -575.69488810 </i>
    <i name="e_0_energy">   -575.69488810 </i>
   </energy>
  </scstep>
  <scstep>
   <time name="dav">   31.42   31.42</time>
   <time name="total">   32.28   32.28</time>
   <energy>
    <i name="e_fr_energy">   -575.69488775 </i>
    <i name="e_wo_entrp">   -575.69488775 </i>
    <i name="e_0_energy">   -575.69488775 </i>
   </energy>
  </scstep>
  <scstep>
   <time name="dav">   26.43   26.43</time>
   <time name="total">   27.28   27.29</time>
   <energy>
    <i name="e_fr_energy">   -575.69488777 </i>
    <i name="e_wo_entrp">   -575.69488777 </i>
    <i name="e_0_energy">   -575.69488777 </i>
   </energy>
  </scstep>
  <scstep>
   <time name="dav">   23.33   23.34</time>
   <time name="total">   24.20   24.21</time>
   <energy>
    <i name="e_fr_energy">   -575.69488779 </i>
    <i name="e_wo_entrp">   -575.69488779 </i>
    <i name="e_0_energy">   -575.69488779 </i>
   </energy>
  </scstep>
  <scstep>
   <time name="dav">   22.74   22.75</time>
   <time name="total">   22.85   22.85</time>
   <energy>
    <i name="alphaZ">   1001.83506926 </i>
    <i name="ewald"> -11463.00659502 </i>
    <i name="hartreedc">   -802.63959760 </i>
    <i name="XCdc">    961.41850069 </i>
    <i name="pawpsdc">   4590.28323664 </i>
    <i name="pawaedc">  -4673.13061116 </i>
    <i name="eentropy">     -0.00000000 </i>
    <i name="bandstr">    393.40278162 </i>
    <i name="atom">   9416.14232778 </i>
    <i name="e_fr_energy">   -575.69488779 </i>
    <i name="e_wo_entrp">   -575.69488779 </i>
    <i name="e_0_energy">   -575.69488779 </i>
   </energy>
  </scstep>
  <structure>
   <crystal>
    <varray name="basis" >
     <v>       6.81154489       0.00000000       0.00000000 </v>
     <v>       0.00000000       6.81154489       0.00000000 </v>
     <v>       0.00000000       0.00000000       7.17999872 </v>
    </varray>
    <i name="volume">    333.13143249 </i>
    <varray name="rec_basis" >
     <v>       0.14680957       0.00000000       0.00000000 </v>
     <v>       0.00000000       0.14680957       0.00000000 </v>
     <v>       0.00000000       0.00000000       0.13927579 </v>
    </varray>
   </crystal>
   <varray name="positions" >
    <v>       0.12500000       0.37500000       0.12500000 </v>
    <v>       0.62500000       0.37500000       0.12500000 </v>
    <v>       0.12500000       0.87500000       0.12500000 </v>
    <v>       0.62500000       0.87500000       0.12500000 </v>
    <v>       0.12500000       0.37500000       0.62500000 </v>
    <v>       0.62500000       0.37500000       0.62500000 </v>
    <v>       0.12500000       0.87500000       0.62500000 </v>
    <v>       0.62500000       0.87500000       0.62500000 </v>
    <v>       0.00000000       0.00000000       0.25000000 </v>
    <v>       0.50000000       0.00000000       0.25000000 </v>
    <v>       0.00000000       0.50000000       0.25000000 </v>
    <v>       0.50000000       0.50000000       0.25000000 </v>
    <v>       0.00000000       0.00000000       0.75000000 </v>
    <v>       0.50000000       0.00000000       0.75000000 </v>
    <v>       0.00000000       0.50000000       0.75000000 </v>
    <v>       0.50000000       0.50000000       0.75000000 </v>
    <v>       0.12500000       0.12500000       0.37500000 </v>
    <v>       0.62500000       0.12500000       0.37500000 </v>
    <v>       0.12500000       0.62500000       0.37500000 </v>
    <v>       0.62500000       0.62500000       0.37500000 </v>
    <v>       0.12500000       0.12500000       0.87500000 </v>
    <v>       0.62500000       0.12500000       0.87500000 </v>
    <v>       0.12500000       0.62500000       0.87500000 </v>
    <v>       0.62500000       0.62500000       0.87500000 </v>
    <v>       0.00000000       0.25000000       0.00000000 </v>
    <v>       0.50000000       0.25000000       0.00000000 </v>
    <v>       0.00000000       0.75000000       0.00000000 </v>
    <v>       0.50000000       0.75000000       0.00000000 </v>
    <v>       0.00000000       0.25000000       0.50000000 </v>
    <v>       0.50000000       0.25000000       0.50000000 </v>
    <v>       0.00000000       0.75000000       0.50000000 </v>
    <v>       0.50000000       0.75000000       0.50000000 </v>
    <v>       0.37500000       0.37500000       0.37500000 </v>
    <v>       0.87500000       0.37500000       0.37500000 </v>
    <v>       0.37500000       0.87500000       0.37500000 </v>
    <v>       0.87500000       0.87500000       0.37500000 </v>
    <v>       0.37500000       0.37500000       0.87500000 </v>
    <v>       0.87500000       0.37500000       0.87500000 </v>
    <v>       0.37500000       0.87500000       0.87500000 </v>
    <v>       0.87500000       0.87500000       0.87500000 </v>
    <v>       0.25000000       0.00000000       0.00000000 </v>
    <v>       0.75000000       0.00000000       0.00000000 </v>
    <v>       0.25000000       0.50000000       0.00000000 </v>
    <v>       0.75000000       0.50000000       0.00000000 </v>
    <v>       0.25000000       0.00000000       0.50000000 </v>
    <v>       0.75000000       0.00000000       0.50000000 </v>
    <v>       0.25000000       0.50000000       0.50000000 </v>
    <v>       0.75000000       0.50000000       0.50000000 </v>
    <v>       0.37500000       0.12500000       0.12500000 </v>
    <v>       0.87500000       0.12500000       0.12500000 </v>
    <v>       0.37500000       0.62500000       0.12500000 </v>
    <v>       0.87500000       0.62500000       0.12500000 </v>
    <v>       0.37500000       0.12500000       0.62500000 </v>
    <v>       0.87500000       0.12500000       0.62500000 </v>
    <v>       0.37500000       0.62500000       0.62500000 </v>
    <v>       0.87500000       0.62500000       0.62500000 </v>
    <v>       0.25000000       0.25000000       0.25000000 </v>
    <v>       0.75000000       0.25000000       0.25000000 </v>
    <v>       0.25000000       0.75000000       0.25000000 </v>
    <v>       0.75000000       0.75000000       0.25000000 </v>
    <v>       0.25000000       0.25000000       0.75000000 </v>
    <v>       0.75000000       0.25000000       0.75000000 </v>
    <v>       0.25000000       0.75000000       0.75000000 </v>
    <v>       0.75000000       0.75000000       0.75000000 </v>
   </varray>
  </structure>
  <varray name="forces" >
   <v>      -0.00000000       0.00000000      -0.00000000 </v>
   <v>       0.00000000       0.00000000       0.00000000 </v>
   <v>      -0.00000000       0.00000000       0.00000000 </v>
   <v>      -0.00000000       0.00000000      -0.00000000 </v>
   <v>      -0.00000000       0.00000000      -0.00000000 </v>
   <v>      -0.00000000       0.00000000       0.00000000 </v>
   <v>      -0.00000000       0.00000000      -0.00000000 </v>
   <v>      -0.00000000       0.00000000       0.00000000 </v>
   <v>       0.00000000      -0.00000000       0.00000000 </v>
   <v>      -0.00000000      -0.00000000      -0.00000000 </v>
   <v>      -0.00000000      -0.00000000       0.00000000 </v>
   <v>      -0.00000000      -0.00000000      -0.00000000 </v>
   <v>      -0.00000000      -0.00000000       0.00000000 </v>
   <v>      -0.00000000      -0.00000000       0.00000000 </v>
   <v>       0.00000000      -0.00000000       0.00000000 </v>
   <v>      -0.00000000      -0.00000000       0.00000000 </v>
   <v>      -0.00000000       0.00000000      -0.00000000 </v>
   <v>      -0.00000000       0.00000000       0.00000000 </v>
   <v>      -0.00000000       0.00000000       0.00000000 </v>
   <v>       0.00000000       0.00000000       0.00000000 </v>
   <v>      -0.00000000       0.00000000       0.00000000 </v>
   <v>       0.00000000       0.00000000       0.00000000 </v>
   <v>      -0.00000000       0.00000000      -0.00000000 </v>
   <v>      -0.00000000       0.00000000       0.00000000 </v>
   <v>      -0.00000000      -0.00000000       0.00000000 </v>
   <v>      -0.00000000      -0.00000000      -0.00000000 </v>
   <v>      -0.00000000      -0.00000000      -0.00000000 </v>
   <v>      -0.00000000      -0.00000000      -0.00000000 </v>
   <v>      -0.00000000      -0.00000000      -0.00000000 </v>
   <v>      -0.00000000      -0.00000000      -0.00000000 </v>
   <v>      -0.00000000      -0.00000000       0.00000000 </v>
   <v>      -0.00000000      -0.00000000      -0.00000000 </v>
   <v>       0.00000000       0.00000000       0.00000000 </v>
   <v>      -0.00000000       0.00000000      -0.00000000 </v>
   <v>       0.00000000       0.00000000      -0.00000000 </v>
   <v>       0.00000000       0.00000000      -0.00000000 </v>
   <v>      -0.00000000       0.00000000       0.00000000 </v>
   <v>       0.00000000       0.00000000      -0.00000000 </v>
   <v>       0.00000000      -0.00000000       0.00000000 </v>
   <v>       0.00000000       0.00000000       0.00000000 </v>
   <v>       0.00000000      -0.00000000      -0.00000000 </v>
   <v>      -0.00000000      -0.00000000      -0.00000000 </v>
   <v>       0.00000000      -0.00000000       0.00000000 </v>
   <v>       0.00000000      -0.00000000      -0.00000000 </v>
   <v>       0.00000000      -0.00000000      -0.00000000 </v>
   <v>       0.00000000      -0.00000000       0.00000000 </v>
   <v>       0.00000000      -0.00000000      -0.00000000 </v>
   <v>       0.00000000      -0.00000000      -0.00000000 </v>
   <v>      -0.00000000       0.00000000       0.00000000 </v>
   <v>      -0.00000000       0.00000000       0.00000000 </v>
   <v>       0.00000000       0.00000000      -0.00000000 </v>
   <v>      -0.00000000       0.00000000      -0.00000000 </v>
   <v>       0.00000000       0.00000000      -0.00000000 </v>
   <v>       0.00000000       0.00000000       0.00000000 </v>
   <v>       0.00000000       0.00000000       0.00000000 </v>
   <v>      -0.00000000       0.00000000       0.00000000 </v>
   <v>       0.00000000       0.00000000      -0.00000000 </v>
   <v>       0.00000000      -0.00000000      -0.00000000 </v>
   <v>       0.00000000      -0.00000000      -0.00000000 </v>
   <v>      -0.00000000      -0.00000000       0.00000000 </v>
   <v>       0.00000000      -0.00000000      -0.00000000 </v>
   <v>       0.00000000      -0.00000000       0.00000000 </v>
   <v>       0.00000000      -0.00000000       0.00000000 </v>
   <v>       0.00000000      -0.00000000      -0.00000000 </v>
  </varray>
  <varray name="stress" >
   <v>     617.18195880       0.00000000       0.00000000 </v>
   <v>       0.00000000     617.18195880       0.00000000 </v>
   <v>       0.00000000       0.00000000      51.91232697 </v>
  </varray>
  <energy>
   <i name="e_fr_energy">   -575.69488779 </i>
   <i name="e_wo_entrp">   -575.69488779 </i>
   <i name="e_0_energy">     -0.00000000 </i>
  </energy>
  <kpoints>
   <generation param="Gamma">
    <v type="int" name="divisions">       6        6        6 </v>
    <v name="usershift">      0.00000000       0.00000000       0.00000000 </v>
    <v name="genvec1">      0.16666667       0.00000000       0.00000000 </v>
    <v name="genvec2">      0.00000000       0.16666667       0.00000000 </v>
    <v name="genvec3">      0.00000000       0.00000000       0.16666667 </v>
    <v name="shift">      0.00000000       0.00000000       0.00000000 </v>
   </generation>
   <varray name="kpointlist" >
    <v>       0.00000000       0.00000000       0.00000000 </v>
    <v>       0.16666667       0.00000000       0.00000000 </v>
    <v>       0.33333333       0.00000000       0.00000000 </v>
    <v>       0.50000000       0.00000000       0.00000000 </v>
    <v>       0.00000000       0.16666667       0.00000000 </v>
    <v>       0.16666667       0.16666667       0.00000000 </v>
    <v>       0.33333333       0.16666667       0.00000000 </v>
    <v>       0.50000000       0.16666667       0.00000000 </v>
    <v>       0.00000000       0.33333333       0.00000000 </v>
    <v>       0.16666667       0.33333333       0.00000000 </v>
    <v>       0.33333333       0.33333333       0.00000000 </v>
    <v>       0.50000000       0.33333333       0.00000000 </v>
    <v>       0.00000000       0.50000000       0.00000000 </v>
    <v>       0.16666667       0.50000000       0.00000000 </v>
    <v>       0.33333333       0.50000000       0.00000000 </v>
    <v>       0.50000000       0.50000000       0.00000000 </v>
    <v>       0.00000000       0.00000000       0.16666667 </v>
    <v>       0.16666667       0.00000000       0.16666667 </v>
    <v>       0.33333333       0.00000000       0.16666667 </v>
    <v>       0.50000000       0.00000000       0.16666667 </v>
    <v>       0.00000000       0.16666667       0.16666667 </v>
    <v>       0.16666667       0.16666667       0.16666667 </v>
    <v>       0.33333333       0.16666667       0.16666667 </v>
    <v>       0.50000000       0.16666667       0.16666667 </v>
    <v>       0.00000000       0.33333333       0.16666667 </v>
    <v>       0.16666667       0.33333333       0.16666667 </v>
    <v>       0.33333333       0.33333333       0.16666667 </v>
    <v>       0.50000000       0.33333333       0.16666667 </v>
    <v>       0.00000000       0.50000000       0.16666667 </v>
    <v>       0.16666667       0.50000000       0.16666667 </v>
    <v>       0.33333333       0.50000000       0.16666667 </v>
    <v>       0.50000000       0.50000000       0.16666667 </v>
    <v>       0.00000000      -0.33333333       0.16666667 </v>
    <v>       0.16666667      -0.33333333       0.16666667 </v>
    <v>       0.33333333      -0.33333333       0.16666667 </v>
    <v>       0.50000000      -0.33333333       0.16666667 </v>
    <v>       0.00000000      -0.16666667       0.16666667 </v>
    <v>       0.16666667      -0.16666667       0.16666667 </v>
    <v>       0.33333333      -0.16666667       0.16666667 </v>
    <v>       0.50000000      -0.16666667       0.16666667 </v>
    <v>       0.00000000       0.00000000       0.33333333 </v>
    <v>       0.16666667       0.00000000       0.33333333 </v>
    <v>       0.33333333       0.00000000       0.33333333 </v>
    <v>       0.50000000       0.00000000       0.33333333 </v>
    <v>       0.00000000       0.16666667       0.33333333 </v>
    <v>       0.16666667       0.16666667       0.33333333 </v>
    <v>       0.33333333       0.16666667       0.33333333 </v>
    <v>       0.50000000       0.16666667       0.33333333 </v>
    <v>       0.00000000       0.33333333       0.33333333 </v>
    <v>       0.16666667       0.33333333       0.33333333 </v>
    <v>       0.33333333       0.33333333       0.33333333 </v>
    <v>       0.50000000       0.33333333       0.33333333 </v>
    <v>       0.00000000       0.50000000       0.33333333 </v>
    <v>       0.16666667       0.50000000       0.33333333 </v>
    <v>       0.33333333       0.50000000       0.33333333 </v>
    <v>       0.50000000       0.50000000       0.33333333 </v>
    <v>       0.00000000      -0.33333333       0.33333333 </v>
    <v>       0.16666667      -0.33333333       0.33333333 </v>
    <v>       0.33333333      -0.33333333       0.33333333 </v>
    <v>       0.50000000      -0.33333333       0.33333333 </v>
    <v>       0.00000000      -0.16666667       0.33333333 </v>
    <v>       0.16666667      -0.16666667       0.33333333 </v>
    <v>       0.33333333      -0.16666667       0.33333333 </v>
    <v>       0.50000000      -0.16666667       0.33333333 </v>
    <v>       0.00000000       0.00000000       0.50000000 </v>
    <v>       0.16666667       0.00000000       0.50000000 </v>
    <v>       0.33333333       0.00000000       0.50000000 </v>
    <v>       0.50000000       0.00000000       0.50000000 </v>
    <v>       0.00000000       0.16666667       0.50000000 </v>
    <v>       0.16666667       0.16666667       0.50000000 </v>
    <v>       0.33333333       0.16666667       0.50000000 </v>
    <v>       0.50000000       0.16666667       0.50000000 </v>
    <v>       0.00000000       0.33333333       0.50000000 </v>
    <v>       0.16666667       0.33333333       0.50000000 </v>
    <v>       0.33333333       0.33333333       0.50000000 </v>
    <v>       0.50000000       0.33333333       0.50000000 </v>
    <v>       0.00000000       0.50000000       0.50000000 </v>
    <v>       0.16666667       0.50000000       0.50000000 </v>
    <v>       0.33333333       0.50000000       0.50000000 </v>
    <v>       0.50000000       0.50000000       0.50000000 </v>
   </varray>
   <varray name="weights" >
    <v>       0.00462963 </v>
    <v>       0.00925926 </v>
    <v>       0.00925926 </v>
    <v>       0.00462963 </v>
    <v>       0.00925926 </v>
    <v>       0.01851852 </v>
    <v>       0.01851852 </v>
    <v>       0.00925926 </v>
    <v>       0.00925926 </v>
    <v>       0.01851852 </v>
    <v>       0.01851852 </v>
    <v>       0.00925926 </v>
    <v>       0.00462963 </v>
    <v>       0.00925926 </v>
    <v>       0.00925926 </v>
    <v>       0.00462963 </v>
    <v>       0.00925926 </v>
    <v>       0.01851852 </v>
    <v>       0.01851852 </v>
    <v>       0.00925926 </v>
    <v>       0.00925926 </v>
    <v>       0.01851852 </v>
    <v>       0.01851852 </v>
    <v>       0.00925926 </v>
    <v>       0.00925926 </v>
    <v>       0.01851852 </v>
    <v>       0.01851852 </v>
    <v>       0.00925926 </v>
    <v>       0.00925926 </v>
    <v>       0.01851852 </v>
    <v>       0.01851852 </v>
    <v>       0.00925926 </v>
    <v>       0.00925926 </v>
    <v>       0.01851852 </v>
    <v>       0.01851852 </v>
    <v>       0.00925926 </v>
    <v>       0.00925926 </v>
    <v>       0.01851852 </v>
    <v>       0.01851852 </v>
    <v>       0.00925926 </v>
    <v>       0.00925926 </v>
    <v>       0.01851852 </v>
    <v>       0.01851852 </v>
    <v>       0.00925926 </v>
    <v>       0.00925926 </v>
    <v>       0.01851852 </v>
    <v>       0.01851852 </v>
    <v>       0.00925926 </v>
    <v>       0.00925926 </v>
    <v>       0.01851852 </v>
    <v>       0.01851852 </v>
    <v>       0.00925926 </v>
    <v>       0.00925926 </v>
    <v>       0.01851852 </v>
    <v>       0.01851852 </v>
    <v>       0.00925926 </v>
    <v>       0.00925926 </v>
    <v>       0.01851852 </v>
    <v>       0.01851852 </v>
    <v>       0.00925926 </v>
    <v>       0.00925926 </v>
    <v>       0.01851852 </v>
    <v>       0.01851852 </v>
    <v>       0.00925926 </v>
    <v>       0.00462963 </v>
    <v>       0.00925926 </v>
    <v>       0.00925926 </v>
    <v>       0.00462963 </v>
    <v>       0.00925926 </v>
    <v>       0.01851852 </v>
    <v>       0.01851852 </v>
    <v>       0.00925926 </v>
    <v>       0.00925926 </v>
    <v>       0.01851852 </v>
    <v>       0.01851852 </v>
    <v>       0.00925926 </v>
    <v>       0.00462963 </v>
    <v>       0.00925926 </v>
    <v>       0.00925926 </v>
    <v>       0.00462963 </v>
   </varray>
  </kpoints>
  <scstep>
   <time name="total">   61.62   61.62</time>
   <energy>
    <i name="e_fr_energy">   -379.39602654 </i>
    <i name="e_wo_entrp">   -379.39602654 </i>
    <i name="e_0_energy">   -379.39602654 </i>
   </energy>
  </scstep>
  <scstep>
   <time name="total">   45.97   45.97</time>
   <energy>
    <i name="e_fr_energy">   -319.84305418 </i>
    <i name="e_wo_entrp">   -319.84305418 </i>
    <i name="e_0_energy">   -319.84305418 </i>
   </energy>
  </scstep>
  <scstep>
   <time name="total">   46.92   46.93</time>
   <energy>
    <i name="e_fr_energy">   -319.17883913 </i>
    <i name="e_wo_entrp">   -319.17883913 </i>
    <i name="e_0_energy">   -319.17883913 </i>
   </energy>
  </scstep>
  <scstep>
   <time name="total">   47.40   47.40</time>
   <energy>
    <i name="e_fr_energy">   -320.05943514 </i>
    <i name="e_wo_entrp">   -320.05943514 </i>
    <i name="e_0_energy">   -320.05943514 </i>
   </energy>
  </scstep>
  <scstep>
   <time name="total">   48.10   48.11</time>
   <energy>
    <i name="e_fr_energy">   -320.33254703 </i>
    <i name="e_wo_entrp">   -320.33254703 </i>
    <i name="e_0_energy">   -320.33254703 </i>
   </energy>
  </scstep>
  <scstep>
   <time name="total">   47.05   47.05</time>
   <energy>
    <i name="e_fr_energy">   -320.29599078 </i>
    <i name="e_wo_entrp">   -320.29599078 </i>
    <i name="e_0_energy">   -320.29599078 </i>
   </energy>
  </scstep>
  <scstep>
   <time name="total">   47.42   47.42</time>
   <energy>
    <i name="e_fr_energy">   -320.27600551 </i>
    <i name="e_wo_entrp">   -320.27600551 </i>
    <i name="e_0_energy">   -320.27600551 </i>
   </energy>
  </scstep>
  <scstep>
   <time name="total">   48.05   48.06</time>
   <energy>
    <i name="e_fr_energy">   -320.27449255 </i>
    <i name="e_wo_entrp">   -320.27449255 </i>
    <i name="e_0_energy">   -320.27449255 </i>
   </energy>
  </scstep>
  <scstep>
   <time name="total">   49.49   49.50</time>
   <energy>
    <i name="e_fr_energy">   -320.27358139 </i>
    <i name="e_wo_entrp">   -320.27358139 </i>
    <i name="e_0_energy">   -320.27358139 </i>
   </energy>
  </scstep>
  <scstep>
   <time name="total">   49.00   49.00</time>
   <energy>
    <i name="e_fr_energy">   -320.27366123 </i>
    <i name="e_wo_entrp">   -320.27366123 </i>
    <i name="e_0_energy">   -320.27366123 </i>
   </energy>
  </scstep>
  <scstep>
   <time name="total">   49.83   49.83</time>
   <energy>
    <i name="e_fr_energy">   -320.27360554 </i>
    <i name="e_wo_entrp">   -320.27360554 </i>
    <i name="e_0_energy">   -320.27360554 </i>
   </energy>
  </scstep>
  <kpoints>
   <generation param="Gamma">
    <v type="int" name="divisions">       6        6        6 </v>
    <v name="usershift">      0.00000000       0.00000000       0.00000000 </v>
    <v name="genvec1">      0.16666667       0.00000000       0.00000000 </v>
    <v name="genvec2">      0.00000000       0.16666667       0.00000000 </v>
    <v name="genvec3">      0.00000000       0.00000000       0.16666667 </v>
    <v name="shift">      0.00000000       0.00000000       0.00000000 </v>
   </generation>
   <varray name="kpointlist" >
    <v>       0.00000000       0.00000000       0.00000000 </v>
    <v>       0.16666667       0.00000000       0.00000000 </v>
    <v>       0.33333333       0.00000000       0.00000000 </v>
    <v>       0.50000000       0.00000000       0.00000000 </v>
    <v>       0.16666667       0.16666667       0.00000000 </v>
    <v>       0.33333333       0.16666667       0.00000000 </v>
    <v>       0.50000000       0.16666667       0.00000000 </v>
    <v>      -0.33333333       0.16666667       0.00000000 </v>
    <v>      -0.16666667       0.16666667       0.00000000 </v>
    <v>       0.33333333       0.33333333       0.00000000 </v>
    <v>       0.50000000       0.33333333       0.00000000 </v>
    <v>      -0.33333333       0.33333333       0.00000000 </v>
    <v>       0.50000000       0.50000000       0.00000000 </v>
    <v>       0.00000000       0.00000000       0.16666667 </v>
    <v>       0.16666667       0.00000000       0.16666667 </v>
    <v>       0.33333333       0.00000000       0.16666667 </v>
    <v>       0.50000000       0.00000000       0.16666667 </v>
    <v>       0.16666667       0.16666667       0.16666667 </v>
    <v>       0.33333333       0.16666667       0.16666667 </v>
    <v>       0.50000000       0.16666667       0.16666667 </v>
    <v>      -0.33333333       0.16666667       0.16666667 </v>
    <v>      -0.16666667       0.16666667       0.16666667 </v>
    <v>       0.33333333       0.33333333       0.16666667 </v>
    <v>       0.50000000       0.33333333       0.16666667 </v>
    <v>      -0.33333333       0.33333333       0.16666667 </v>
    <v>       0.50000000       0.50000000       0.16666667 </v>
    <v>       0.00000000       0.00000000       0.33333333 </v>
    <v>       0.16666667       0.00000000       0.33333333 </v>
    <v>       0.33333333       0.00000000       0.33333333 </v>
    <v>       0.50000000       0.00000000       0.33333333 </v>
    <v>       0.16666667       0.16666667       0.33333333 </v>
    <v>       0.33333333       0.16666667       0.33333333 </v>
    <v>       0.50000000       0.16666667       0.33333333 </v>
    <v>      -0.33333333       0.16666667       0.33333333 </v>
    <v>      -0.16666667       0.16666667       0.33333333 </v>
    <v>       0.33333333       0.33333333       0.33333333 </v>
    <v>       0.50000000       0.33333333       0.33333333 </v>
    <v>      -0.33333333       0.33333333       0.33333333 </v>
    <v>       0.50000000       0.50000000       0.33333333 </v>
    <v>       0.00000000       0.00000000       0.50000000 </v>
    <v>       0.16666667       0.00000000       0.50000000 </v>
    <v>       0.33333333       0.00000000       0.50000000 </v>
    <v>       0.50000000       0.00000000       0.50000000 </v>
    <v>       0.16666667       0.16666667       0.50000000 </v>
    <v>       0.33333333       0.16666667       0.50000000 </v>
    <v>       0.50000000       0.16666667       0.50000000 </v>
    <v>      -0.33333333       0.16666667       0.50000000 </v>
    <v>      -0.16666667       0.16666667       0.50000000 </v>
    <v>       0.33333333       0.33333333       0.50000000 </v>
    <v>       0.50000000       0.33333333       0.50000000 </v>
    <v>      -0.33333333       0.33333333       0.50000000 </v>
    <v>       0.50000000       0.50000000       0.50000000 </v>
   </varray>
   <varray name="weights" >
    <v>       0.00462963 </v>
    <v>       0.01851852 </v>
    <v>       0.01851852 </v>
    <v>       0.00925926 </v>
    <v>       0.00925926 </v>
    <v>       0.01851852 </v>
    <v>       0.01851852 </v>
    <v>       0.01851852 </v>
    <v>       0.00925926 </v>
    <v>       0.00925926 </v>
    <v>       0.01851852 </v>
    <v>       0.00925926 </v>
    <v>       0.00462963 </v>
    <v>       0.00925926 </v>
    <v>       0.03703704 </v>
    <v>       0.03703704 </v>
    <v>       0.01851852 </v>
    <v>       0.01851852 </v>
    <v>       0.03703704 </v>
    <v>       0.03703704 </v>
    <v>       0.03703704 </v>
    <v>       0.01851852 </v>
    <v>       0.01851852 </v>
    <v>       0.03703704 </v>
    <v>       0.01851852 </v>
    <v>       0.00925926 </v>
    <v>       0.00925926 </v>
    <v>       0.03703704 </v>
    <v>       0.03703704 </v>
    <v>       0.01851852 </v>
    <v>       0.01851852 </v>
    <v>       0.03703704 </v>
    <v>       0.03703704 </v>
    <v>       0.03703704 </v>
    <v>       0.01851852 </v>
    <v>       0.01851852 </v>
    <v>       0.03703704 </v>
    <v>       0.01851852 </v>
    <v>       0.00925926 </v>
    <v>       0.00462963 </v>
    <v>       0.01851852 </v>
    <v>       0.01851852 </v>
    <v>       0.00925926 </v>
    <v>       0.00925926 </v>
    <v>       0.01851852 </v>
    <v>       0.01851852 </v>
    <v>       0.01851852 </v>
    <v>       0.00925926 </v>
    <v>       0.00925926 </v>
    <v>       0.01851852 </v>
    <v>       0.00925926 </v>
    <v>       0.00462963 </v>
   </varray>
  </kpoints>
  <scstep>
   <time name="total">   40.21   40.21</time>
   <energy>
    <i name="e_fr_energy">   -384.00006152 </i>
    <i name="e_wo_entrp">   -384.00006152 </i>
    <i name="e_0_energy">   -384.00006152 </i>
   </energy>
  </scstep>
  <scstep>
   <time name="total">   31.80   31.80</time>
   <energy>
    <i name="e_fr_energy">   -319.37230924 </i>
    <i name="e_wo_entrp">   -319.37230924 </i>
    <i name="e_0_energy">   -319.37230924 </i>
   </energy>
  </scstep>
  <scstep>
   <time name="total">   30.97   30.97</time>
   <energy>
    <i name="e_fr_energy">   -318.45273759 </i>
    <i name="e_wo_entrp">   -318.45273759 </i>
    <i name="e_0_energy">   -318.45273759 </i>
   </energy>
  </scstep>
  <scstep>
   <time name="total">   30.48   30.48</time>
   <energy>
    <i name="e_fr_energy">   -319.29421128 </i>
    <i name="e_wo_entrp">   -319.29421128 </i>
    <i name="e_0_energy">   -319.29421128 </i>
   </energy>
  </scstep>
  <scstep>
   <time name="total">   32.38   32.39</time>
   <energy>
    <i name="e_fr_energy">   -319.60129830 </i>
    <i name="e_wo_entrp">   -319.60129830 </i>
    <i name="e_0_energy">   -319.60129830 </i>
   </energy>
  </scstep>
  <scstep>
   <time name="total">   30.79   30.79</time>
   <energy>
    <i name="e_fr_energy">   -319.55997166 </i>
    <i name="e_wo_entrp">   -319.55997166 </i>
    <i name="e_0_energy">   -319.55997166 </i>
   </energy>
  </scstep>
  <scstep>
   <time name="total">   31.38   31.38</time>
   <energy>
    <i name="e_fr_energy">   -319.53975142 </i>
    <i name="e_wo_entrp">   -319.53975142 </i>
    <i name="e_0_energy">   -319.53975142 </i>
   </energy>
  </scstep>
  <scstep>
   <time name="total">   31.65   31.65</time>
   <energy>
    <i name="e_fr_energy">   -319.53792715 </i>
    <i name="e_wo_entrp">   -319.53792715 </i>
    <i name="e_0_energy">   -319.53792715 </i>
   </energy>
  </scstep>
  <scstep>
   <time name="total">   31.96   31.96</time>
   <energy>
    <i name="e_fr_energy">   -319.53734369 </i>
    <i name="e_wo_entrp">   -319.53734369 </i>
    <i name="e_0_energy">   -319.53734369 </i>
   </energy>
  </scstep>
  <scstep>
   <time name="total">   33.81   33.81</time>
   <energy>
    <i name="e_fr_energy">   -319.53738628 </i>
    <i name="e_wo_entrp">   -319.53738628 </i>
    <i name="e_0_energy">   -319.53738628 </i>
   </energy>
  </scstep>
  <scstep>
   <time name="total">   32.65   32.65</time>
   <energy>
    <i name="e_fr_energy">   -319.53714145 </i>
    <i name="e_wo_entrp">   -319.53714145 </i>
    <i name="e_0_energy">   -319.53714145 </i>
   </energy>
  </scstep>
  <scstep>
   <time name="total">   34.36   34.36</time>
   <energy>
    <i name="e_fr_energy">   -319.53714561 </i>
    <i name="e_wo_entrp">   -319.53714561 </i>
    <i name="e_0_energy">   -319.53714561 </i>
   </energy>
  </scstep>
  <kpoints>
   <generation param="Gamma">
    <v type="int" name="divisions">       6        6        6 </v>
    <v name="usershift">      0.00000000       0.00000000       0.00000000 </v>
    <v name="genvec1">      0.16666667       0.00000000       0.00000000 </v>
    <v name="genvec2">      0.00000000       0.16666667       0.00000000 </v>
    <v name="genvec3">      0.00000000       0.00000000       0.16666667 </v>
    <v name="shift">      0.00000000       0.00000000       0.00000000 </v>
   </generation>
   <varray name="kpointlist" >
    <v>       0.00000000       0.00000000       0.00000000 </v>
    <v>       0.16666667       0.00000000       0.00000000 </v>
    <v>       0.33333333       0.00000000       0.00000000 </v>
    <v>       0.50000000       0.00000000       0.00000000 </v>
    <v>       0.16666667       0.16666667       0.00000000 </v>
    <v>       0.33333333       0.16666667       0.00000000 </v>
    <v>       0.50000000       0.16666667       0.00000000 </v>
    <v>       0.33333333       0.33333333       0.00000000 </v>
    <v>       0.50000000       0.33333333       0.00000000 </v>
    <v>       0.50000000       0.50000000       0.00000000 </v>
    <v>       0.00000000       0.00000000       0.16666667 </v>
    <v>       0.16666667       0.00000000       0.16666667 </v>
    <v>       0.33333333       0.00000000       0.16666667 </v>
    <v>       0.50000000       0.00000000       0.16666667 </v>
    <v>       0.16666667       0.16666667       0.16666667 </v>
    <v>       0.33333333       0.16666667       0.16666667 </v>
    <v>       0.50000000       0.16666667       0.16666667 </v>
    <v>       0.33333333       0.33333333       0.16666667 </v>
    <v>       0.50000000       0.33333333       0.16666667 </v>
    <v>       0.50000000       0.50000000       0.16666667 </v>
    <v>       0.00000000       0.00000000       0.33333333 </v>
    <v>       0.16666667       0.00000000       0.33333333 </v>
    <v>       0.33333333       0.00000000       0.33333333 </v>
    <v>       0.50000000       0.00000000       0.33333333 </v>
    <v>       0.16666667       0.16666667       0.33333333 </v>
    <v>       0.33333333       0.16666667       0.33333333 </v>
    <v>       0.50000000       0.16666667       0.33333333 </v>
    <v>       0.33333333       0.33333333       0.33333333 </v>
    <v>       0.50000000       0.33333333       0.33333333 </v>
    <v>       0.50000000       0.50000000       0.33333333 </v>
    <v>       0.00000000       0.00000000       0.50000000 </v>
    <v>       0.16666667       0.00000000       0.50000000 </v>
    <v>       0.33333333       0.00000000       0.50000000 </v>
    <v>       0.50000000       0.00000000       0.50000000 </v>
    <v>       0.16666667       0.16666667       0.50000000 </v>
    <v>       0.33333333       0.16666667       0.50000000 </v>
    <v>       0.50000000       0.16666667       0.50000000 </v>
    <v>       0.33333333       0.33333333       0.50000000 </v>
    <v>       0.50000000       0.33333333       0.50000000 </v>
    <v>       0.50000000       0.50000000       0.50000000 </v>
   </varray>
   <varray name="weights" >
    <v>       0.00462963 </v>
    <v>       0.01851852 </v>
    <v>       0.01851852 </v>
    <v>       0.00925926 </v>
    <v>       0.01851852 </v>
    <v>       0.03703704 </v>
    <v>       0.01851852 </v>
    <v>       0.01851852 </v>
    <v>       0.01851852 </v>
    <v>       0.00462963 </v>
    <v>       0.00925926 </v>
    <v>       0.03703704 </v>
    <v>       0.03703704 </v>
    <v>       0.01851852 </v>
    <v>       0.03703704 </v>
    <v>       0.07407407 </v>
    <v>       0.03703704 </v>
    <v>       0.03703704 </v>
    <v>       0.03703704 </v>
    <v>       0.00925926 </v>
    <v>       0.00925926 </v>
    <v>       0.03703704 </v>
    <v>       0.03703704 </v>
    <v>       0.01851852 </v>
    <v>       0.03703704 </v>
    <v>       0.07407407 </v>
    <v>       0.03703704 </v>
    <v>       0.03703704 </v>
    <v>       0.03703704 </v>
    <v>       0.00925926 </v>
    <v>       0.00462963 </v>
    <v>       0.01851852 </v>
    <v>       0.01851852 </v>
    <v>       0.00925926 </v>
    <v>       0.01851852 </v>
    <v>       0.03703704 </v>
    <v>       0.01851852 </v>
    <v>       0.01851852 </v>
    <v>       0.01851852 </v>
    <v>       0.00462963 </v>
   </varray>
  </kpoints>
  <dynmat>
   <varray name="hessian" >
    <v>      -4.43087296       0.00000000      -0.00000000       0.01499089       0.00000000      -0.00000000       0.00827722      -0.00000000      -0.00000000       0.01508323       0.00000000      -0.00000000       0.01040423       0.00000000       0.00000000       0.01204327      -0.00000000       0.00000000      -0.04985350       0.00000000      -0.00000000       0.00502562       0.00000000      -0.00000000      -0.01448799      -0.00681822       0.00260240       0.01271659      -0.01651450      -0.02079494       0.91243113      -0.29616268      -0.32170041      -0.00330648      -0.00681822      -0.00601446       0.03085785      -0.01991543      -0.02084957      -0.00276250      -0.00203169      -0.00274004      -0.01500994       0.00684008      -0.01104728       0.00724660      -0.01991543      -0.00862116      -0.12814839       0.07229327      -0.06438768      -0.00703343       0.00333166      -0.00370165      -0.12814839       0.07229327       0.06438768      -0.00703343       0.00333166       0.00370165      -0.12814839      -0.07229327      -0.06438768      -0.00703343      -0.00333166      -0.00370165      -0.12814839      -0.07229327       0.06438768      -0.00703343      -0.00333166       0.00370165       0.91243113       0.29616268       0.32170041      -0.00330648       0.00681822       0.00601446      -0.01448799       0.00681822      -0.00260240       0.01271659       0.01651450       0.02079494      -0.01500994      -0.00684008       0.01104728       0.00724660       0.01991543       0.00862116       0.03085785       0.01991543       0.02084957      -0.00276250       0.00203169       0.00274004       0.13760395      -0.07229327       0.14411922       0.13760395      -0.07229327      -0.14411922       0.00767018      -0.00333166      -0.00631295       0.00767018      -0.00333166       0.00631295       0.13760395       0.07229327      -0.14411922       0.13760395       0.07229327       0.14411922       0.00767018       0.00333166       0.00631295       0.00767018       0.00333166      -0.00631295      -0.01448799       0.00681822       0.00260240       0.01271659       0.01651450      -0.02079494       0.91243113       0.29616268      -0.32170041      -0.00330648       0.00681822      -0.00601446       0.03085785       0.01991543      -0.02084957      -0.00276250       0.00203169      -0.00274004      -0.01500994      -0.00684008      -0.01104728       0.00724660       0.01991543      -0.00862116       0.15916397      -0.17447397       0.06797668       0.15916397       0.17447397       0.06797668       0.15916397       0.17447397      -0.06797668       0.15916397      -0.17447397      -0.06797668       0.00678397       0.00478004       0.00399482       0.00678397      -0.00478004       0.00399482       0.00678397      -0.00478004      -0.00399482       0.00678397       0.00478004      -0.00399482       0.91243113      -0.29616268       0.32170041      -0.00330648      -0.00681822       0.00601446      -0.01448799      -0.00681822      -0.00260240       0.01271659      -0.01651450       0.02079494      -0.01500994       0.00684008       0.01104728       0.00724660      -0.01991543       0.00862116       0.03085785      -0.01991543       0.02084957      -0.00276250      -0.00203169       0.00274004 </v>
    <v>       0.00000000      -4.43087296      -0.00000000       0.00000000       0.00827722       0.00000000      -0.00000000       0.01499089      -0.00000000       0.00000000       0.01508323       0.00000000       0.00000000       0.01040423      -0.00000000      -0.00000000      -0.04985350      -0.00000000       0.00000000       0.01204327       0.00000000       0.00000000       0.00502562      -0.00000000      -0.00681822      -0.00330648       0.00601446      -0.01651450       0.01271659       0.02079494      -0.29616268       0.91243113       0.32170041      -0.00681822      -0.01448799      -0.00260240      -0.01991543       0.00724660       0.00862116      -0.00203169      -0.00276250       0.00274004       0.00684008      -0.01500994       0.01104728      -0.01991543       0.03085785       0.02084957      -0.07229327       0.13760395      -0.14411922      -0.00333166       0.00767018       0.00631295      -0.07229327       0.13760395       0.14411922      -0.00333166       0.00767018      -0.00631295       0.07229327       0.13760395       0.14411922       0.00333166       0.00767018      -0.00631295       0.07229327       0.13760395      -0.14411922       0.00333166       0.00767018       0.00631295       0.29616268       0.91243113       0.32170041       0.00681822      -0.01448799      -0.00260240       0.00681822      -0.00330648       0.00601446       0.01651450       0.01271659       0.02079494      -0.00684008      -0.01500994       0.01104728       0.01991543       0.03085785       0.02084957       0.01991543       0.00724660       0.00862116       0.00203169      -0.00276250       0.00274004       0.07229327      -0.12814839       0.06438768       0.07229327      -0.12814839      -0.06438768       0.00333166      -0.00703343       0.00370165       0.00333166      -0.00703343      -0.00370165      -0.07229327      -0.12814839       0.06438768      -0.07229327      -0.12814839      -0.06438768      -0.00333166      -0.00703343       0.00370165      -0.00333166      -0.00703343      -0.00370165       0.00681822      -0.00330648      -0.00601446       0.01651450       0.01271659      -0.02079494       0.29616268       0.91243113      -0.32170041       0.00681822      -0.01448799       0.00260240       0.01991543       0.00724660      -0.00862116       0.00203169      -0.00276250      -0.00274004      -0.00684008      -0.01500994      -0.01104728       0.01991543       0.03085785      -0.02084957      -0.17447397       0.15916397      -0.06797668       0.17447397       0.15916397       0.06797668       0.17447397       0.15916397      -0.06797668      -0.17447397       0.15916397       0.06797668       0.00478004       0.00678397      -0.00399482      -0.00478004       0.00678397       0.00399482      -0.00478004       0.00678397      -0.00399482       0.00478004       0.00678397       0.00399482      -0.29616268       0.91243113      -0.32170041      -0.00681822      -0.01448799       0.00260240      -0.00681822      -0.00330648      -0.00601446      -0.01651450       0.01271659      -0.02079494       0.00684008      -0.01500994      -0.01104728      -0.01991543       0.03085785      -0.02084957      -0.01991543       0.00724660      -0.00862116      -0.00203169      -0.00276250      -0.00274004 </v>
    <v>      -0.00000000      -0.00000000      -4.28946888      -0.00000000       0.00000000       0.00562047      -0.00000000      -0.00000000       0.00562047      -0.00000000       0.00000000      -0.04717768       0.00000000      -0.00000000       0.01702504       0.00000000      -0.00000000       0.01097288      -0.00000000       0.00000000       0.01097288      -0.00000000      -0.00000000       0.00458395       0.00260240       0.00601446      -0.01130530      -0.02079494       0.02079494       0.02812835      -0.32170041       0.32170041       0.88946740      -0.00601446      -0.00260240      -0.01130530      -0.02084957       0.00862116       0.00548489      -0.00274004       0.00274004      -0.00279841      -0.01104728       0.01104728      -0.01006936      -0.00862116       0.02084957       0.00548489       0.06438768      -0.14411922       0.14423455       0.00370165       0.00631295       0.00793855      -0.06438768       0.14411922       0.14423455      -0.00370165      -0.00631295       0.00793855       0.06438768       0.14411922       0.14423455       0.00370165      -0.00631295       0.00793855      -0.06438768      -0.14411922       0.14423455      -0.00370165       0.00631295       0.00793855       0.32170041       0.32170041       0.88946740       0.00601446      -0.00260240      -0.01130530      -0.00260240       0.00601446      -0.01130530       0.02079494       0.02079494       0.02812835       0.01104728       0.01104728      -0.01006936       0.00862116       0.02084957       0.00548489       0.02084957       0.00862116       0.00548489       0.00274004       0.00274004      -0.00279841       0.14411922      -0.06438768       0.14423455      -0.14411922       0.06438768       0.14423455      -0.00631295      -0.00370165       0.00793855       0.00631295       0.00370165       0.00793855      -0.14411922      -0.06438768       0.14423455       0.14411922       0.06438768       0.14423455       0.00631295      -0.00370165       0.00793855      -0.00631295       0.00370165       0.00793855       0.00260240      -0.00601446      -0.01130530      -0.02079494      -0.02079494       0.02812835      -0.32170041      -0.32170041       0.88946740      -0.00601446       0.00260240      -0.01130530      -0.02084957      -0.00862116       0.00548489      -0.00274004      -0.00274004      -0.00279841      -0.01104728      -0.01104728      -0.01006936      -0.00862116      -0.02084957       0.00548489      -0.06797668       0.06797668      -0.12303870      -0.06797668      -0.06797668      -0.12303870       0.06797668       0.06797668      -0.12303870       0.06797668      -0.06797668      -0.12303870      -0.00399482       0.00399482      -0.00393193      -0.00399482      -0.00399482      -0.00393193       0.00399482       0.00399482      -0.00393193       0.00399482      -0.00399482      -0.00393193       0.32170041      -0.32170041       0.88946740       0.00601446       0.00260240      -0.01130530      -0.00260240      -0.00601446      -0.01130530       0.02079494      -0.02079494       0.02812835       0.01104728      -0.01104728      -0.01006936       0.00862116      -0.02084957       0.00548489       0.02084957      -0.00862116       0.00548489       0.00274004      -0.00274004      -0.00279841 </v>
    <v>       0.01499089       0.00000000      -0.00000000      -4.43087296       0.00000000      -0.00000000       0.01508323       0.00000000      -0.00000000       0.00827722      -0.00000000      -0.00000000       0.01204327      -0.00000000       0.00000000       0.01040423       0.00000000       0.00000000       0.00502562       0.00000000      -0.00000000      -0.04985350       0.00000000      -0.00000000       0.01271659      -0.01651450      -0.02079494      -0.01448799      -0.00681822       0.00260240      -0.00330648      -0.00681822      -0.00601446       0.91243113      -0.29616268      -0.32170041      -0.00276250      -0.00203169      -0.00274004       0.03085785      -0.01991543      -0.02084957       0.00724660      -0.01991543      -0.00862116      -0.01500994       0.00684008      -0.01104728      -0.00703343       0.00333166      -0.00370165      -0.12814839       0.07229327      -0.06438768      -0.00703343       0.00333166       0.00370165      -0.12814839       0.07229327       0.06438768      -0.00703343      -0.00333166      -0.00370165      -0.12814839      -0.07229327      -0.06438768      -0.00703343      -0.00333166       0.00370165      -0.12814839      -0.07229327       0.06438768      -0.00330648       0.00681822       0.00601446       0.91243113       0.29616268       0.32170041       0.01271659       0.01651450       0.02079494      -0.01448799       0.00681822      -0.00260240       0.00724660       0.01991543       0.00862116      -0.01500994      -0.00684008       0.01104728      -0.00276250       0.00203169       0.00274004       0.03085785       0.01991543       0.02084957       0.13760395      -0.07229327      -0.14411922       0.13760395      -0.07229327       0.14411922       0.00767018      -0.00333166       0.00631295       0.00767018      -0.00333166      -0.00631295       0.13760395       0.07229327       0.14411922       0.13760395       0.07229327      -0.14411922       0.00767018       0.00333166      -0.00631295       0.00767018       0.00333166       0.00631295       0.01271659       0.01651450      -0.02079494      -0.01448799       0.00681822       0.00260240      -0.00330648       0.00681822      -0.00601446       0.91243113       0.29616268      -0.32170041      -0.00276250       0.00203169      -0.00274004       0.03085785       0.01991543      -0.02084957       0.00724660       0.01991543      -0.00862116      -0.01500994      -0.00684008      -0.01104728       0.15916397       0.17447397       0.06797668       0.15916397      -0.17447397       0.06797668       0.15916397      -0.17447397      -0.06797668       0.15916397       0.17447397      -0.06797668       0.00678397      -0.00478004       0.00399482       0.00678397       0.00478004       0.00399482       0.00678397       0.00478004      -0.00399482       0.00678397      -0.00478004      -0.00399482      -0.00330648      -0.00681822       0.00601446       0.91243113      -0.29616268       0.32170041       0.01271659      -0.01651450       0.02079494      -0.01448799      -0.00681822      -0.00260240       0.00724660      -0.01991543       0.00862116      -0.01500994       0.00684008       0.01104728      -0.00276250      -0.00203169       0.00274004       0.03085785      -0.01991543       0.02084957 </v>
[...]
      </set>
     </set>
    </set>
   </array>
  </eigenvalues>
  <separator name="orbital magnetization" >
   <v name="MAGDIPOLOUT">      0.00000000      0.00000000      0.00000000</v>
  </separator>
  <dos>
   <i name="efermi">     11.62773637 </i>
   <total>
    <array>
     <dimension dim="1">gridpoints</dimension>
     <dimension dim="2">spin</dimension>
     <field>energy</field>
     <field>total</field>
     <field>integrated</field>
     <set>
      <set comment="spin 1">
       <r>   -13.3587     0.0000     0.0000 </r>
       <r>   -13.2313     0.0000     0.0000 </r>
       <r>   -13.1039     0.0000     0.0000 </r>
       <r>   -12.9765     0.0000     0.0000 </r>
       <r>   -12.8491     0.0000     0.0000 </r>
       <r>   -12.7217     0.0000     0.0000 </r>
       <r>   -12.5943     0.0000     0.0000 </r>
       <r>   -12.4669     0.0000     0.0000 </r>
       <r>   -12.3395     0.0000     0.0000 </r>
       <r>   -12.2121     0.0000     0.0000 </r>
       <r>   -12.0847     0.0000     0.0000 </r>
       <r>   -11.9573     0.0000     0.0000 </r>
       <r>   -11.8299     0.0000     0.0000 </r>
       <r>   -11.7025     0.0021     0.0003 </r>
       <r>   -11.5751     0.2087     0.0269 </r>
       <r>   -11.4477     1.1470     0.1730 </r>
       <r>   -11.3203     1.2648     0.3341 </r>
       <r>   -11.1929     2.6745     0.6749 </r>
       <r>   -11.0655     1.3819     0.8509 </r>
       <r>   -10.9381     3.2373     1.2634 </r>
       <r>   -10.8107     2.7483     1.6135 </r>
       <r>   -10.6833     3.2813     2.0315 </r>
       <r>   -10.5559     2.7196     2.3780 </r>
       <r>   -10.4285     3.5346     2.8283 </r>
       <r>   -10.3011     4.5468     3.4076 </r>
       <r>   -10.1737     3.9400     3.9095 </r>
       <r>   -10.0463     3.3037     4.3304 </r>
       <r>    -9.9189     3.8037     4.8150 </r>
       <r>    -9.7915     5.2664     5.4860 </r>
       <r>    -9.6641     5.2768     6.1582 </r>
       <r>    -9.5367     4.4938     6.7308 </r>
       <r>    -9.4093     3.6747     7.1989 </r>
       <r>    -9.2819     6.0781     7.9733 </r>
       <r>    -9.1545     5.4502     8.6676 </r>
       <r>    -9.0271     4.5579     9.2483 </r>
       <r>    -8.8997     5.0333     9.8895 </r>
       <r>    -8.7723     7.4425    10.8377 </r>
       <r>    -8.6449     6.2236    11.6306 </r>
       <r>    -8.5175     4.7845    12.2402 </r>
       <r>    -8.3901     5.2531    12.9094 </r>
       <r>    -8.2627     5.9353    13.6656 </r>
       <r>    -8.1353     7.6044    14.6344 </r>
       <r>    -8.0079     6.3713    15.4461 </r>
       <r>    -7.8805     8.0312    16.4693 </r>
       <r>    -7.7531     5.1927    17.1308 </r>
       <r>    -7.6257     6.6915    17.9833 </r>
       <r>    -7.4983     7.5891    18.9502 </r>
       <r>    -7.3709     7.2191    19.8699 </r>
       <r>    -7.2435     6.6205    20.7134 </r>
       <r>    -7.1161     7.3256    21.6466 </r>
       <r>    -6.9887     8.2261    22.6947 </r>
       <r>    -6.8613     9.0657    23.8496 </r>
       <r>    -6.7339     4.8153    24.4631 </r>
       <r>    -6.6065    10.2765    25.7723 </r>
       <r>    -6.4791     9.7595    27.0157 </r>
       <r>    -6.3517     7.1027    27.9206 </r>
       <r>    -6.2243     6.3734    28.7326 </r>
       <r>    -6.0969     7.4549    29.6823 </r>
       <r>    -5.9695    11.7951    31.1850 </r>
       <r>    -5.8421     8.8551    32.3132 </r>
       <r>    -5.7147    10.2823    33.6232 </r>
       <r>    -5.5873     8.2582    34.6753 </r>
       <r>    -5.4599    10.9385    36.0688 </r>
       <r>    -5.3325     9.8985    37.3299 </r>
       <r>    -5.2051    11.1462    38.7499 </r>
       <r>    -5.0777    10.2840    40.0601 </r>
       <r>    -4.9503    12.6093    41.6666 </r>
       <r>    -4.8229    11.0944    43.0800 </r>
       <r>    -4.6955     8.1949    44.1240 </r>
       <r>    -4.5681     7.6971    45.1046 </r>
       <r>    -4.4407    13.0727    46.7701 </r>
       <r>    -4.3133    11.6903    48.2595 </r>
       <r>    -4.1859     8.8551    49.3876 </r>
       <r>    -4.0585     6.8778    50.2639 </r>
       <r>    -3.9311     9.0151    51.4124 </r>
       <r>    -3.8037     9.3661    52.6056 </r>
       <r>    -3.6763     8.5953    53.7007 </r>
       <r>    -3.5489     5.0339    54.3420 </r>
       <r>    -3.4215    10.0458    55.6218 </r>
       <r>    -3.2941     6.8658    56.4965 </r>
       <r>    -3.1667     6.9383    57.3805 </r>
       <r>    -3.0393     7.9557    58.3940 </r>
       <r>    -2.9119    11.5745    59.8686 </r>
       <r>    -2.7845    11.4887    61.3323 </r>
       <r>    -2.6571     9.1597    62.4992 </r>
       <r>    -2.5297     6.4258    63.3179 </r>
       <r>    -2.4023     9.3310    64.5067 </r>
       <r>    -2.2749     8.9642    65.6487 </r>
       <r>    -2.1475     7.3642    66.5869 </r>
       <r>    -2.0201     9.3592    67.7793 </r>
       <r>    -1.8927     9.3795    68.9743 </r>
       <r>    -1.7653    11.6670    70.4606 </r>
       <r>    -1.6379    10.4829    71.7962 </r>
       <r>    -1.5105     9.3157    72.9830 </r>
       <r>    -1.3831    13.3509    74.6839 </r>
       <r>    -1.2557    14.3774    76.5156 </r>
       <r>    -1.1283    13.5180    78.2378 </r>
       <r>    -1.0009    14.1749    80.0437 </r>
       <r>    -0.8735    16.8113    82.1855 </r>
       <r>    -0.7461    10.9604    83.5818 </r>
       <r>    -0.6187    15.1858    85.5165 </r>
       <r>    -0.4913    17.9352    87.8015 </r>
       <r>    -0.3639    16.8786    89.9518 </r>
       <r>    -0.2365     9.2042    91.1244 </r>
       <r>    -0.1091     7.6066    92.0935 </r>
       <r>     0.0183    14.2452    93.9084 </r>
       <r>     0.1457     9.1904    95.0792 </r>
       <r>     0.2731     8.6611    96.1827 </r>
       <r>     0.4006     8.4388    97.2578 </r>
       <r>     0.5280     8.7255    98.3694 </r>
       <r>     0.6554     9.5157    99.5817 </r>
       <r>     0.7828     8.6462   100.6832 </r>
       <r>     0.9102    10.8693   102.0680 </r>
       <r>     1.0376    10.7508   103.4377 </r>
       <r>     1.1650    10.0652   104.7200 </r>
       <r>     1.2924    14.7068   106.5936 </r>
       <r>     1.4198    13.8645   108.3600 </r>
       <r>     1.5472    13.3056   110.0551 </r>
       <r>     1.6746    16.4283   112.1481 </r>
       <r>     1.8020    12.7659   113.7745 </r>
       <r>     1.9294    13.2360   115.4607 </r>
       <r>     2.0568    17.5600   117.6979 </r>
       <r>     2.1842    17.1068   119.8773 </r>
       <r>     2.3116    11.8490   121.3869 </r>
       <r>     2.4390    16.8607   123.5350 </r>
       <r>     2.5664    13.9715   125.3149 </r>
       <r>     2.6938    14.7826   127.1982 </r>
       <r>     2.8212    22.5682   130.0734 </r>
       <r>     2.9486    17.3376   132.2823 </r>
       <r>     3.0760     8.4489   133.3587 </r>
       <r>     3.2034    14.1433   135.1605 </r>
       <r>     3.3308    20.7801   137.8079 </r>
       <r>     3.4582    22.5334   140.6787 </r>
       <r>     3.5856    17.9733   142.9685 </r>
       <r>     3.7130    14.4682   144.8118 </r>
       <r>     3.8404    14.8910   146.7089 </r>
       <r>     3.9678    20.8011   149.3589 </r>
       <r>     4.0952    28.3130   152.9660 </r>
       <r>     4.2226    24.4169   156.0768 </r>
       <r>     4.3500    19.3235   158.5386 </r>
       <r>     4.4774    20.1266   161.1027 </r>
       <r>     4.6048    20.0257   163.6540 </r>
       <r>     4.7322    26.7627   167.0636 </r>
       <r>     4.8596    19.5955   169.5601 </r>
       <r>     4.9870    19.6876   172.0683 </r>
       <r>     5.1144    24.7106   175.2165 </r>
       <r>     5.2418    27.8665   178.7667 </r>
       <r>     5.3692    23.8139   181.8006 </r>
       <r>     5.4966    19.6014   184.2978 </r>
       <r>     5.6240    16.9103   186.4522 </r>
       <r>     5.7514    21.5111   189.1927 </r>
       <r>     5.8788    21.3685   191.9151 </r>
       <r>     6.0062    25.8625   195.2100 </r>
       <r>     6.1336    23.1202   198.1555 </r>
       <r>     6.2610    21.4464   200.8878 </r>
       <r>     6.3884    18.0899   203.1925 </r>
       <r>     6.5158    17.3972   205.4089 </r>
       <r>     6.6432    17.7431   207.6694 </r>
       <r>     6.7706    22.4723   210.5324 </r>
       <r>     6.8980    20.9760   213.2047 </r>
       <r>     7.0254    25.4740   216.4502 </r>
       <r>     7.1528    21.1901   219.1498 </r>
       <r>     7.2802    15.8732   221.1720 </r>
       <r>     7.4076    15.9626   223.2057 </r>
       <r>     7.5350    16.3644   225.2905 </r>
       <r>     7.6624    16.3777   227.3771 </r>
       <r>     7.7898    21.0655   230.0608 </r>
       <r>     7.9172    17.6825   232.3136 </r>
       <r>     8.0446    19.1785   234.7569 </r>
       <r>     8.1720    11.0062   236.1591 </r>
       <r>     8.2994    10.0560   237.4403 </r>
       <r>     8.4268    12.0412   238.9743 </r>
       <r>     8.5542    15.1286   240.9017 </r>
       <r>     8.6816    15.5489   242.8826 </r>
       <r>     8.8090    10.1415   244.1747 </r>
       <r>     8.9364    11.0870   245.5872 </r>
       <r>     9.0638     7.7870   246.5792 </r>
       <r>     9.1912     6.8299   247.4494 </r>
       <r>     9.3186     6.2927   248.2511 </r>
       <r>     9.4460     9.1391   249.4154 </r>
       <r>     9.5734     7.8772   250.4190 </r>
       <r>     9.7008     7.3497   251.3553 </r>
       <r>     9.8282     3.0961   251.7498 </r>
       <r>     9.9556     5.0577   252.3941 </r>
       <r>    10.0830     4.8260   253.0090 </r>
       <r>    10.2104     5.1565   253.6659 </r>
       <r>    10.3378     4.0626   254.1835 </r>
       <r>    10.4652     2.6487   254.5209 </r>
       <r>    10.5926     3.3244   254.9445 </r>
       <r>    10.7200     1.6707   255.1573 </r>
       <r>    10.8474     2.4911   255.4747 </r>
       <r>    10.9748     1.0441   255.6077 </r>
       <r>    11.1022     2.1653   255.8836 </r>
       <r>    11.2296     0.4344   255.9389 </r>
       <r>    11.3570     0.3950   255.9892 </r>
       <r>    11.4844     0.0844   256.0000 </r>
       <r>    11.6118     0.0002   256.0000 </r>
       <r>    11.7392     0.0000   256.0000 </r>
       <r>    11.8666     0.0000   256.0000 </r>
       <r>    11.9940     0.0000   256.0000 </r>
       <r>    12.1214     0.0000   256.0000 </r>
       <r>    12.2488     0.0000   256.0000 </r>
       <r>    12.3762     0.0000   256.0000 </r>
       <r>    12.5036     0.0000   256.0000 </r>
       <r>    12.6310     0.0000   256.0000 </r>
       <r>    12.7584     0.0000   256.0000 </r>
       <r>    12.8858     0.0000   256.0000 </r>
       <r>    13.0132     0.0000   256.0000 </r>
       <r>    13.1406     0.0000   256.0000 </r>
       <r>    13.2680     0.0000   256.0000 </r>
       <r>    13.3954     0.0000   256.0000 </r>
       <r>    13.5228     0.0000   256.0000 </r>
       <r>    13.6502     0.0000   256.0000 </r>
       <r>    13.7776     0.0000   256.0000 </r>
       <r>    13.9050     0.0000   256.0000 </r>
       <r>    14.0324     0.0000   256.0000 </r>
       <r>    14.1598     0.0000   256.0000 </r>
       <r>    14.2872     0.0000   256.0000 </r>
       <r>    14.4146     0.0000   256.0000 </r>
       <r>    14.5420     0.0000   256.0000 </r>
       <r>    14.6694     0.0000   256.0000 </r>
       <r>    14.7968     0.0000   256.0000 </r>
       <r>    14.9242     0.0822   256.0105 </r>
       <r>    15.0516     0.6802   256.0971 </r>
       <r>    15.1790     0.4915   256.1598 </r>
       <r>    15.3064     2.5169   256.4804 </r>
       <r>    15.4338     2.6330   256.8159 </r>
       <r>    15.5612     4.6699   257.4108 </r>
       <r>    15.6886     3.6234   257.8724 </r>
       <r>    15.8160     1.3324   258.0422 </r>
       <r>    15.9434     3.4359   258.4799 </r>
       <r>    16.0708     7.8290   259.4773 </r>
       <r>    16.1982     9.4862   260.6859 </r>
       <r>    16.3256     6.4312   261.5052 </r>
       <r>    16.4530     6.1733   262.2917 </r>
       <r>    16.5804     8.7382   263.4050 </r>
       <r>    16.7078     8.1619   264.4448 </r>
       <r>    16.8352    13.0874   266.1121 </r>
       <r>    16.9626     8.5882   267.2063 </r>
       <r>    17.0900    12.3358   268.7779 </r>
       <r>    17.2174    12.6013   270.3833 </r>
       <r>    17.3448    15.1973   272.3194 </r>
       <r>    17.4722    18.7449   274.7076 </r>
       <r>    17.5996    12.7583   276.3330 </r>
       <r>    17.7270    14.4824   278.1780 </r>
       <r>    17.8544    16.4811   280.2777 </r>
       <r>    17.9818    18.3605   282.6169 </r>
       <r>    18.1092    20.0262   285.1682 </r>
       <r>    18.2366    14.7932   287.0529 </r>
       <r>    18.3640    17.7980   289.3204 </r>
       <r>    18.4914    18.9822   291.7387 </r>
       <r>    18.6188    17.7411   293.9989 </r>
       <r>    18.7462    21.5353   296.7426 </r>
       <r>    18.8737    26.8661   300.1653 </r>
       <r>    19.0011    29.0694   303.8688 </r>
       <r>    19.1285    35.2974   308.3657 </r>
       <r>    19.2559    32.3408   312.4859 </r>
       <r>    19.3833    26.5940   315.8740 </r>
       <r>    19.5107    25.1490   319.0780 </r>
       <r>    19.6381    21.6013   321.8300 </r>
       <r>    19.7655    20.2229   324.4065 </r>
       <r>    19.8929    20.9194   327.0716 </r>
       <r>    20.0203    29.1588   330.7865 </r>
       <r>    20.1477    35.7668   335.3432 </r>
       <r>    20.2751    30.6706   339.2506 </r>
       <r>    20.4025    20.1781   341.8213 </r>
       <r>    20.5299    21.8181   344.6010 </r>
       <r>    20.6573    19.0094   347.0228 </r>
       <r>    20.7847    18.2858   349.3524 </r>
       <r>    20.9121    19.5507   351.8432 </r>
       <r>    21.0395    23.8351   354.8798 </r>
       <r>    21.1669    21.2219   357.5835 </r>
       <r>    21.2943    25.1568   360.7885 </r>
       <r>    21.4217    26.7109   364.1915 </r>
       <r>    21.5491    19.8582   366.7214 </r>
       <r>    21.6765    24.3643   369.8254 </r>
       <r>    21.8039    22.9227   372.7458 </r>
       <r>    21.9313    28.2589   376.3460 </r>
       <r>    22.0587    20.3948   378.9443 </r>
       <r>    22.1861    12.4450   380.5298 </r>
       <r>    22.3135    10.0793   381.8139 </r>
       <r>    22.4409     5.7403   382.5452 </r>
       <r>    22.5683     3.1175   382.9424 </r>
       <r>    22.6957     3.4615   383.3834 </r>
       <r>    22.8231     1.9190   383.6279 </r>
       <r>    22.9505     1.0635   383.7634 </r>
       <r>    23.0779     1.3349   383.9335 </r>
       <r>    23.2053     0.5072   383.9981 </r>
       <r>    23.3327     0.0151   384.0000 </r>
       <r>    23.4601     0.0000   384.0000 </r>
       <r>    23.5875     0.0000   384.0000 </r>
       <r>    23.7149     0.0000   384.0000 </r>
       <r>    23.8423     0.0000   384.0000 </r>
       <r>    23.9697     0.0000   384.0000 </r>
       <r>    24.0971     0.0000   384.0000 </r>
       <r>    24.2245     0.0000   384.0000 </r>
       <r>    24.3519     0.0000   384.0000 </r>
       <r>    24.4793     0.0000   384.0000 </r>
       <r>    24.6067     0.0000   384.0000 </r>
       <r>    24.7341     0.0000   384.0000 </r>
       <r>    24.8615     0.0000   384.0000 </r>
      </set>
     </set>
    </array>
   </total>
  </dos>
 </calculation>
 <structure name="finalpos" >
  <crystal>
   <varray name="basis" >
    <v>       6.81154489       0.00000000       0.00000000 </v>
    <v>       0.00000000       6.81154489       0.00000000 </v>
    <v>       0.00000000       0.00000000       7.17999872 </v>
   </varray>
   <i name="volume">    333.13143249 </i>
   <varray name="rec_basis" >
    <v>       0.14680957       0.00000000       0.00000000 </v>
    <v>       0.00000000       0.14680957       0.00000000 </v>
    <v>       0.00000000       0.00000000       0.13927579 </v>
   </varray>
  </crystal>
  <varray name="positions" >
   <v>       0.12500000       0.37500000       0.12500000 </v>
   <v>       0.62500000       0.37500000       0.12500000 </v>
   <v>       0.12500000       0.87500000       0.12500000 </v>
   <v>       0.62500000       0.87500000       0.12500000 </v>
   <v>       0.12500000       0.37500000       0.62500000 </v>
   <v>       0.62500000       0.37500000       0.62500000 </v>
   <v>       0.12500000       0.87500000       0.62500000 </v>
   <v>       0.62500000       0.87500000       0.62500000 </v>
   <v>       0.00000000       0.00000000       0.25000000 </v>
   <v>       0.50000000       0.00000000       0.25000000 </v>
   <v>       0.00000000       0.50000000       0.25000000 </v>
   <v>       0.50000000       0.50000000       0.25000000 </v>
   <v>       0.00000000       0.00000000       0.75000000 </v>
   <v>       0.50000000       0.00000000       0.75000000 </v>
   <v>       0.00000000       0.50000000       0.75000000 </v>
   <v>       0.50000000       0.50000000       0.75000000 </v>
   <v>       0.12500000       0.12500000       0.37500000 </v>
   <v>       0.62500000       0.12500000       0.37500000 </v>
   <v>       0.12500000       0.62500000       0.37500000 </v>
   <v>       0.62500000       0.62500000       0.37500000 </v>
   <v>       0.12500000       0.12500000       0.87500000 </v>
   <v>       0.62500000       0.12500000       0.87500000 </v>
   <v>       0.12500000       0.62500000       0.87500000 </v>
   <v>       0.62500000       0.62500000       0.87500000 </v>
   <v>       0.00000000       0.25000000       0.00000000 </v>
   <v>       0.50000000       0.25000000       0.00000000 </v>
   <v>       0.00000000       0.75000000       0.00000000 </v>
   <v>       0.50000000       0.75000000       0.00000000 </v>
   <v>       0.00000000       0.25000000       0.50000000 </v>
   <v>       0.50000000       0.25000000       0.50000000 </v>
   <v>       0.00000000       0.75000000       0.50000000 </v>
   <v>       0.50000000       0.75000000       0.50000000 </v>
   <v>       0.37500000       0.37500000       0.37500000 </v>
   <v>       0.87500000       0.37500000       0.37500000 </v>
   <v>       0.37500000       0.87500000       0.37500000 </v>
   <v>       0.87500000       0.87500000       0.37500000 </v>
   <v>       0.37500000       0.37500000       0.87500000 </v>
   <v>       0.87500000       0.37500000       0.87500000 </v>
   <v>       0.37500000       0.87500000       0.87500000 </v>
   <v>       0.87500000       0.87500000       0.87500000 </v>
   <v>       0.25000000       0.00000000       0.00000000 </v>
   <v>       0.75000000       0.00000000       0.00000000 </v>
   <v>       0.25000000       0.50000000       0.00000000 </v>
   <v>       0.75000000       0.50000000       0.00000000 </v>
   <v>       0.25000000       0.00000000       0.50000000 </v>
   <v>       0.75000000       0.00000000       0.50000000 </v>
   <v>       0.25000000       0.50000000       0.50000000 </v>
   <v>       0.75000000       0.50000000       0.50000000 </v>
   <v>       0.37500000       0.12500000       0.12500000 </v>
   <v>       0.87500000       0.12500000       0.12500000 </v>
   <v>       0.37500000       0.62500000       0.12500000 </v>
   <v>       0.87500000       0.62500000       0.12500000 </v>
   <v>       0.37500000       0.12500000       0.62500000 </v>
   <v>       0.87500000       0.12500000       0.62500000 </v>
   <v>       0.37500000       0.62500000       0.62500000 </v>
   <v>       0.87500000       0.62500000       0.62500000 </v>
   <v>       0.25000000       0.25000000       0.25000000 </v>
   <v>       0.75000000       0.25000000       0.25000000 </v>
   <v>       0.25000000       0.75000000       0.25000000 </v>
   <v>       0.75000000       0.75000000       0.25000000 </v>
   <v>       0.25000000       0.25000000       0.75000000 </v>
   <v>       0.75000000       0.25000000       0.75000000 </v>
   <v>       0.25000000       0.75000000       0.75000000 </v>
   <v>       0.75000000       0.75000000       0.75000000 </v>
  </varray>
 </structure>
</modeling>
