  64  64   0   0
  0.5103578E+01  0.6886812E-09  0.6886812E-09  0.6886812E-09  0.5000000E-15
  1.000000000000000E-004
  CAR 
 unknown system                          
     25.72318932    -13.37891438  301     11.65457826      1.00000000
    -13.379  0.0000E+00  0.0000E+00
    -13.249  0.0000E+00  0.0000E+00
    -13.118  0.0000E+00  0.0000E+00
    -12.988  0.0000E+00  0.0000E+00
    -12.858  0.0000E+00  0.0000E+00
    -12.727  0.0000E+00  0.0000E+00
    -12.597  0.0000E+00  0.0000E+00
    -12.467  0.0000E+00  0.0000E+00
    -12.336  0.0000E+00  0.0000E+00
    -12.206  0.0000E+00  0.0000E+00
    -12.076  0.0000E+00  0.0000E+00
    -11.945  0.1972E-16  0.2570E-17
    -11.815  0.1769E-07  0.2305E-08
    -11.684  0.1871E-02  0.2438E-03
    -11.554  0.2048E+00  0.2694E-01
    -11.424  0.1140E+01  0.1756E+00
    -11.293  0.1251E+01  0.3386E+00
    -11.163  0.2676E+01  0.6874E+00
    -11.033  0.1317E+01  0.8591E+00
    -10.902  0.3290E+01  0.1288E+01
    -10.772  0.2634E+01  0.1631E+01
    -10.642  0.3494E+01  0.2087E+01
    -10.511  0.2132E+01  0.2365E+01
    -10.381  0.4209E+01  0.2913E+01
    -10.251  0.3988E+01  0.3433E+01
    -10.120  0.4656E+01  0.4040E+01
     -9.990  0.2174E+01  0.4323E+01
     -9.860  0.3964E+01  0.4840E+01
     -9.729  0.6199E+01  0.5648E+01
     -9.599  0.4687E+01  0.6259E+01
     -9.469  0.4511E+01  0.6847E+01
     -9.338  0.3250E+01  0.7270E+01
     -9.208  0.6406E+01  0.8105E+01
     -9.078  0.4640E+01  0.8710E+01
     -8.947  0.5499E+01  0.9427E+01
     -8.817  0.5104E+01  0.1009E+02
     -8.687  0.7592E+01  0.1108E+02
     -8.556  0.4890E+01  0.1172E+02
     -8.426  0.6128E+01  0.1252E+02
     -8.296  0.2358E+01  0.1283E+02
     -8.165  0.8698E+01  0.1396E+02
     -8.035  0.6213E+01  0.1477E+02
     -7.905  0.9460E+01  0.1600E+02
     -7.774  0.4995E+01  0.1665E+02
     -7.644  0.5642E+01  0.1739E+02
     -7.514  0.5707E+01  0.1813E+02
     -7.383  0.9058E+01  0.1931E+02
     -7.253  0.3423E+01  0.1976E+02
     -7.123  0.1104E+02  0.2120E+02
     -6.992  0.6971E+01  0.2211E+02
     -6.862  0.8811E+01  0.2325E+02
     -6.732  0.3537E+01  0.2372E+02
     -6.601  0.1152E+02  0.2522E+02
     -6.471  0.8508E+01  0.2633E+02
     -6.341  0.6961E+01  0.2723E+02
     -6.210  0.5173E+01  0.2791E+02
     -6.080  0.9394E+01  0.2913E+02
     -5.950  0.8846E+01  0.3029E+02
     -5.819  0.9822E+01  0.3157E+02
     -5.689  0.1077E+02  0.3297E+02
     -5.558  0.1032E+02  0.3431E+02
     -5.428  0.8904E+01  0.3547E+02
     -5.298  0.7568E+01  0.3646E+02
     -5.167  0.8234E+01  0.3753E+02
     -5.037  0.1185E+02  0.3908E+02
     -4.907  0.1244E+02  0.4070E+02
     -4.776  0.1080E+02  0.4211E+02
     -4.646  0.1240E+02  0.4372E+02
     -4.516  0.7605E+01  0.4472E+02
     -4.385  0.8793E+01  0.4586E+02
     -4.255  0.1289E+02  0.4754E+02
     -4.125  0.9013E+01  0.4872E+02
     -3.994  0.7657E+01  0.4971E+02
     -3.864  0.9756E+01  0.5099E+02
     -3.734  0.4909E+01  0.5163E+02
     -3.603  0.6315E+01  0.5245E+02
     -3.473  0.1183E+02  0.5399E+02
     -3.343  0.1081E+02  0.5540E+02
     -3.212  0.4813E+01  0.5603E+02
     -3.082  0.6615E+01  0.5689E+02
     -2.952  0.1157E+02  0.5840E+02
     -2.821  0.7827E+01  0.5942E+02
     -2.691  0.1556E+02  0.6145E+02
     -2.561  0.4054E+01  0.6197E+02
     -2.430  0.5173E+01  0.6265E+02
     -2.300  0.9569E+01  0.6390E+02
     -2.170  0.7845E+01  0.6492E+02
     -2.039  0.1237E+02  0.6653E+02
     -1.909  0.1059E+02  0.6791E+02
     -1.779  0.9889E+01  0.6920E+02
     -1.648  0.1238E+02  0.7081E+02
     -1.518  0.8554E+01  0.7193E+02
     -1.388  0.8128E+01  0.7299E+02
     -1.257  0.1111E+02  0.7444E+02
     -1.127  0.9689E+01  0.7570E+02
     -0.997  0.1579E+02  0.7776E+02
     -0.866  0.1270E+02  0.7941E+02
     -0.736  0.8654E+01  0.8054E+02
     -0.606  0.2504E+02  0.8381E+02
     -0.475  0.2406E+02  0.8694E+02
     -0.345  0.1507E+02  0.8891E+02
     -0.215  0.6897E+01  0.8980E+02
     -0.084  0.1171E+02  0.9133E+02
      0.046  0.6753E+01  0.9221E+02
      0.176  0.7600E+01  0.9320E+02
      0.307  0.1057E+02  0.9458E+02
      0.437  0.7803E+01  0.9560E+02
      0.568  0.7615E+01  0.9659E+02
      0.698  0.1187E+02  0.9814E+02
      0.828  0.1646E+02  0.1003E+03
      0.959  0.1330E+02  0.1020E+03
      1.089  0.4434E+01  0.1026E+03
      1.219  0.6632E+01  0.1035E+03
      1.350  0.8518E+01  0.1046E+03
      1.480  0.1523E+02  0.1066E+03
      1.610  0.1903E+02  0.1090E+03
      1.741  0.1076E+02  0.1104E+03
      1.871  0.1384E+02  0.1122E+03
      2.001  0.1894E+02  0.1147E+03
      2.132  0.1292E+02  0.1164E+03
      2.262  0.1529E+02  0.1184E+03
      2.392  0.1753E+02  0.1207E+03
      2.523  0.9284E+01  0.1219E+03
      2.653  0.1465E+02  0.1238E+03
      2.783  0.1543E+02  0.1258E+03
      2.914  0.2652E+02  0.1293E+03
      3.044  0.1415E+02  0.1311E+03
      3.174  0.7308E+01  0.1321E+03
      3.305  0.1462E+02  0.1340E+03
      3.435  0.1975E+02  0.1365E+03
      3.565  0.1456E+02  0.1384E+03
      3.696  0.1852E+02  0.1408E+03
      3.826  0.2228E+02  0.1438E+03
      3.956  0.1948E+02  0.1463E+03
      4.087  0.1935E+02  0.1488E+03
      4.217  0.1335E+02  0.1506E+03
      4.347  0.2144E+02  0.1533E+03
      4.478  0.2204E+02  0.1562E+03
      4.608  0.3687E+02  0.1610E+03
      4.738  0.1425E+02  0.1629E+03
      4.869  0.1948E+02  0.1654E+03
      4.999  0.2176E+02  0.1683E+03
      5.129  0.2303E+02  0.1713E+03
      5.260  0.2401E+02  0.1744E+03
      5.390  0.2582E+02  0.1778E+03
      5.520  0.2383E+02  0.1809E+03
      5.651  0.2455E+02  0.1841E+03
      5.781  0.1509E+02  0.1860E+03
      5.911  0.1931E+02  0.1885E+03
      6.042  0.1518E+02  0.1905E+03
      6.172  0.2650E+02  0.1940E+03
      6.302  0.2331E+02  0.1970E+03
      6.433  0.2426E+02  0.2002E+03
      6.563  0.1829E+02  0.2026E+03
      6.693  0.2130E+02  0.2053E+03
      6.824  0.1512E+02  0.2073E+03
      6.954  0.2412E+02  0.2105E+03
      7.085  0.1564E+02  0.2125E+03
      7.215  0.1277E+02  0.2142E+03
      7.345  0.2634E+02  0.2176E+03
      7.476  0.2539E+02  0.2209E+03
      7.606  0.1596E+02  0.2230E+03
      7.736  0.2195E+02  0.2258E+03
      7.867  0.1482E+02  0.2278E+03
      7.997  0.1136E+02  0.2293E+03
      8.127  0.1572E+02  0.2313E+03
      8.258  0.2212E+02  0.2342E+03
      8.388  0.2832E+02  0.2379E+03
      8.518  0.1237E+02  0.2395E+03
      8.649  0.6509E+01  0.2403E+03
      8.779  0.5911E+01  0.2411E+03
      8.909  0.1283E+02  0.2428E+03
      9.040  0.1089E+02  0.2442E+03
      9.170  0.1198E+02  0.2458E+03
      9.300  0.1125E+02  0.2472E+03
      9.431  0.5348E+01  0.2479E+03
      9.561  0.6666E+01  0.2488E+03
      9.691  0.5809E+01  0.2495E+03
      9.822  0.6222E+01  0.2504E+03
      9.952  0.7492E+01  0.2513E+03
     10.082  0.6881E+01  0.2522E+03
     10.213  0.3074E+01  0.2526E+03
     10.343  0.3806E+01  0.2531E+03
     10.473  0.6435E+01  0.2540E+03
     10.604  0.3289E+01  0.2544E+03
     10.734  0.2102E+01  0.2547E+03
     10.864  0.3138E+01  0.2551E+03
     10.995  0.2934E+01  0.2555E+03
     11.125  0.2613E+01  0.2558E+03
     11.255  0.7168E+00  0.2559E+03
     11.386  0.7533E+00  0.2560E+03
     11.516  0.5718E-01  0.2560E+03
     11.646  0.1997E-04  0.2560E+03
     11.777  0.1057E-11  0.2560E+03
     11.907  0.0000E+00  0.2560E+03
     12.037  0.0000E+00  0.2560E+03
     12.168  0.0000E+00  0.2560E+03
     12.298  0.0000E+00  0.2560E+03
     12.428  0.0000E+00  0.2560E+03
     12.559  0.0000E+00  0.2560E+03
     12.689  0.0000E+00  0.2560E+03
     12.819  0.0000E+00  0.2560E+03
     12.950  0.0000E+00  0.2560E+03
     13.080  0.0000E+00  0.2560E+03
     13.211  0.0000E+00  0.2560E+03
     13.341  0.0000E+00  0.2560E+03
     13.471  0.0000E+00  0.2560E+03
     13.602  0.0000E+00  0.2560E+03
     13.732  0.0000E+00  0.2560E+03
     13.862  0.0000E+00  0.2560E+03
     13.993  0.0000E+00  0.2560E+03
     14.123  0.0000E+00  0.2560E+03
     14.253  0.0000E+00  0.2560E+03
     14.384  0.0000E+00  0.2560E+03
     14.514  0.0000E+00  0.2560E+03
     14.644  0.0000E+00  0.2560E+03
     14.775  0.0000E+00  0.2560E+03
     14.905  0.0000E+00  0.2560E+03
     15.035  0.0000E+00  0.2560E+03
     15.166  0.0000E+00  0.2560E+03
     15.296  0.0000E+00  0.2560E+03
     15.426  0.8486E-12  0.2560E+03
     15.557  0.2439E-04  0.2560E+03
     15.687  0.1198E+00  0.2560E+03
     15.817  0.1043E+01  0.2562E+03
     15.948  0.6668E+00  0.2562E+03
     16.078  0.3938E+01  0.2568E+03
     16.208  0.4132E+01  0.2573E+03
     16.339  0.7481E+01  0.2583E+03
     16.469  0.5201E+01  0.2589E+03
     16.599  0.2635E+01  0.2593E+03
     16.730  0.3842E+01  0.2598E+03
     16.860  0.1528E+02  0.2618E+03
     16.990  0.1327E+02  0.2635E+03
     17.121  0.9431E+01  0.2647E+03
     17.251  0.9406E+01  0.2660E+03
     17.381  0.1406E+02  0.2678E+03
     17.512  0.1130E+02  0.2693E+03
     17.642  0.1093E+02  0.2707E+03
     17.772  0.1417E+02  0.2725E+03
     17.903  0.1892E+02  0.2750E+03
     18.033  0.1227E+02  0.2766E+03
     18.163  0.2027E+02  0.2792E+03
     18.294  0.1402E+02  0.2811E+03
     18.424  0.1563E+02  0.2831E+03
     18.554  0.1574E+02  0.2852E+03
     18.685  0.2373E+02  0.2883E+03
     18.815  0.1892E+02  0.2907E+03
     18.945  0.1719E+02  0.2930E+03
     19.076  0.2404E+02  0.2961E+03
     19.206  0.1847E+02  0.2985E+03
     19.337  0.1157E+02  0.3000E+03
     19.467  0.1478E+02  0.3019E+03
     19.597  0.2306E+02  0.3049E+03
     19.728  0.4228E+02  0.3105E+03
     19.858  0.4361E+02  0.3161E+03
     19.988  0.2784E+02  0.3198E+03
     20.119  0.2269E+02  0.3227E+03
     20.249  0.1962E+02  0.3253E+03
     20.379  0.2134E+02  0.3281E+03
     20.510  0.2961E+02  0.3319E+03
     20.640  0.1936E+02  0.3344E+03
     20.770  0.2006E+02  0.3371E+03
     20.901  0.2741E+02  0.3406E+03
     21.031  0.3302E+02  0.3449E+03
     21.161  0.2088E+02  0.3477E+03
     21.292  0.2849E+02  0.3514E+03
     21.422  0.2368E+02  0.3545E+03
     21.552  0.3004E+02  0.3584E+03
     21.683  0.2583E+02  0.3617E+03
     21.813  0.1963E+02  0.3643E+03
     21.943  0.1815E+02  0.3667E+03
     22.074  0.3117E+02  0.3707E+03
     22.204  0.2389E+02  0.3738E+03
     22.334  0.1608E+02  0.3759E+03
     22.465  0.1940E+02  0.3785E+03
     22.595  0.1235E+02  0.3801E+03
     22.725  0.9396E+01  0.3813E+03
     22.856  0.8012E+01  0.3823E+03
     22.986  0.2511E+01  0.3827E+03
     23.116  0.3801E+01  0.3832E+03
     23.247  0.3417E+01  0.3836E+03
     23.377  0.1411E+00  0.3836E+03
     23.507  0.8066E-01  0.3836E+03
     23.638  0.9941E+00  0.3838E+03
     23.768  0.6188E-01  0.3838E+03
     23.898  0.2581E+00  0.3838E+03
     24.029  0.1411E+01  0.3840E+03
     24.159  0.3544E-01  0.3840E+03
     24.289  0.2812E-06  0.3840E+03
     24.420  0.2366E-15  0.3840E+03
     24.550  0.0000E+00  0.3840E+03
     24.680  0.0000E+00  0.3840E+03
     24.811  0.0000E+00  0.3840E+03
     24.941  0.0000E+00  0.3840E+03
     25.071  0.0000E+00  0.3840E+03
     25.202  0.0000E+00  0.3840E+03
     25.332  0.0000E+00  0.3840E+03
     25.463  0.0000E+00  0.3840E+03
     25.593  0.0000E+00  0.3840E+03
     25.723  0.0000E+00  0.3840E+03
