  64   64
1 1
    55.113683608250000     0.000000000000000     0.000000000000000
     0.000000000000000    55.113683608250000     0.000000000000000
     0.000000000000000     0.000000000000000    55.113683608250000
1 2
    -0.199189102790000    -0.000000000000000     0.000000000000000
    -0.000000000000000    -0.101260657260000    -0.000000000000000
     0.000000000000000    -0.000000000000000    -0.101260657260000
1 3
    -0.101260657260000    -0.000000000000000    -0.000000000000000
    -0.000000000000000    -0.199189102790000     0.000000000000000
    -0.000000000000000     0.000000000000000    -0.101260657260000
1 4
    -0.160701534830000    -0.000000000000000    -0.000000000000000
    -0.000000000000000    -0.160701534830000    -0.000000000000000
    -0.000000000000000    -0.000000000000000     0.601404822870000
1 5
    -0.101260657260000    -0.000000000000000    -0.000000000000000
    -0.000000000000000    -0.101260657260000    -0.000000000000000
    -0.000000000000000    -0.000000000000000    -0.199189102790000
1 6
    -0.160701534830000     0.000000000000000    -0.000000000000000
     0.000000000000000     0.601404822870000     0.000000000000000
    -0.000000000000000     0.000000000000000    -0.160701534830000
1 7
     0.601404822870000     0.000000000000000     0.000000000000000
     0.000000000000000    -0.160701534830000    -0.000000000000000
     0.000000000000000    -0.000000000000000    -0.160701534830000
1 8
    -0.061819055570000     0.000000000000000     0.000000000000000
     0.000000000000000    -0.061819055570000     0.000000000000000
     0.000000000000000     0.000000000000000    -0.061819055570000
1 9
     0.170024833360000     0.098746034300000    -0.051914064310000
     0.098746034300000     0.069415052190000    -0.098746034300000
    -0.051914064310000    -0.098746034300000     0.170024833360000
1 10
    -0.104984427590000     0.141079404350000     0.254395862640000
     0.141079404350000    -0.104984427590000    -0.254395862640000
     0.254395862640000    -0.254395862640000    -0.364331584760000
1 11
   -11.395637914689999     4.245292153850000     4.245292153850000
     4.245292153850000   -11.395637914689999    -4.245292153850000
     4.245292153850000    -4.245292153850000   -11.395637914689999
1 12
     0.069415052190000     0.098746034300000     0.098746034300000
     0.098746034300000     0.170024833360000     0.051914064310000
     0.098746034300000     0.051914064310000     0.170024833360000
1 13
    -0.364331584760000     0.254395862640000     0.254395862640000
     0.254395862640000    -0.104984427590000    -0.141079404350000
     0.254395862640000    -0.141079404350000    -0.104984427590000
1 14
     0.034400825210000     0.030044795840000     0.030044795840000
     0.030044795840000     0.034400825210000    -0.030044795840000
     0.030044795840000    -0.030044795840000     0.034400825210000
1 15
     0.170024833360000    -0.051914064310000     0.098746034300000
    -0.051914064310000     0.170024833360000    -0.098746034300000
     0.098746034300000    -0.098746034300000     0.069415052190000
1 16
    -0.104984427590000     0.254395862640000     0.141079404350000
     0.254395862640000    -0.364331584760000    -0.254395862640000
     0.141079404350000    -0.254395862640000    -0.104984427590000
1 17
     1.548473373970000    -0.853488087570000     0.853488087570000
     0.853488087570000    -1.823003636240000     1.908775748670000
    -0.853488087570000     1.908775748670000    -1.823003636240000
1 18
     0.078163864590000    -0.046862237710000     0.046862237710000
     0.046862237710000    -0.093548153940000    -0.070428420260000
    -0.046862237710000    -0.070428420260000    -0.093548153940000
1 19
     1.548473373970000    -0.853488087570000    -0.853488087570000
     0.853488087570000    -1.823003636240000    -1.908775748670000
     0.853488087570000    -1.908775748670000    -1.823003636240000
1 20
     0.078163864590000    -0.046862237710000    -0.046862237710000
     0.046862237710000    -0.093548153940000     0.070428420260000
     0.046862237710000     0.070428420260000    -0.093548153940000
1 21
     1.548473373970000     0.853488087570000     0.853488087570000
    -0.853488087570000    -1.823003636240000    -1.908775748670000
    -0.853488087570000    -1.908775748670000    -1.823003636240000
1 22
     0.078163864590000     0.046862237710000     0.046862237710000
    -0.046862237710000    -0.093548153940000     0.070428420260000
    -0.046862237710000     0.070428420260000    -0.093548153940000
1 23
     1.548473373970000     0.853488087570000    -0.853488087570000
    -0.853488087570000    -1.823003636240000     1.908775748670000
     0.853488087570000     1.908775748670000    -1.823003636240000
1 24
     0.078163864590000     0.046862237710000    -0.046862237710000
    -0.046862237710000    -0.093548153940000    -0.070428420260000
     0.046862237710000    -0.070428420260000    -0.093548153940000
1 25
   -11.395637914689999    -4.245292153850000    -4.245292153850000
    -4.245292153850000   -11.395637914689999    -4.245292153850000
    -4.245292153850000    -4.245292153850000   -11.395637914689999
1 26
     0.069415052190000    -0.098746034300000    -0.098746034300000
    -0.098746034300000     0.170024833360000     0.051914064310000
    -0.098746034300000     0.051914064310000     0.170024833360000
1 27
     0.170024833360000    -0.098746034300000     0.051914064310000
    -0.098746034300000     0.069415052190000    -0.098746034300000
     0.051914064310000    -0.098746034300000     0.170024833360000
1 28
    -0.104984427590000    -0.141079404350000    -0.254395862640000
    -0.141079404350000    -0.104984427590000    -0.254395862640000
    -0.254395862640000    -0.254395862640000    -0.364331584760000
1 29
     0.170024833360000     0.051914064310000    -0.098746034300000
     0.051914064310000     0.170024833360000    -0.098746034300000
    -0.098746034300000    -0.098746034300000     0.069415052190000
1 30
    -0.104984427590000    -0.254395862640000    -0.141079404350000
    -0.254395862640000    -0.364331584760000    -0.254395862640000
    -0.141079404350000    -0.254395862640000    -0.104984427590000
1 31
    -0.364331584760000    -0.254395862640000    -0.254395862640000
    -0.254395862640000    -0.104984427590000    -0.141079404350000
    -0.254395862640000    -0.141079404350000    -0.104984427590000
1 32
     0.034400825210000    -0.030044795840000    -0.030044795840000
    -0.030044795840000     0.034400825210000    -0.030044795840000
    -0.030044795840000    -0.030044795840000     0.034400825210000
1 33
    -1.823003636240000     0.853488087570000    -1.908775748670000
    -0.853488087570000     1.548473373970000    -0.853488087570000
    -1.908775748670000     0.853488087570000    -1.823003636240000
1 34
    -1.823003636240000     0.853488087570000     1.908775748670000
    -0.853488087570000     1.548473373970000     0.853488087570000
     1.908775748670000    -0.853488087570000    -1.823003636240000
1 35
    -0.093548153940000     0.046862237710000     0.070428420260000
    -0.046862237710000     0.078163864590000    -0.046862237710000
     0.070428420260000     0.046862237710000    -0.093548153940000
1 36
    -0.093548153940000     0.046862237710000    -0.070428420260000
    -0.046862237710000     0.078163864590000     0.046862237710000
    -0.070428420260000    -0.046862237710000    -0.093548153940000
1 37
    -1.823003636240000    -0.853488087570000     1.908775748670000
     0.853488087570000     1.548473373970000    -0.853488087570000
     1.908775748670000     0.853488087570000    -1.823003636240000
1 38
    -1.823003636240000    -0.853488087570000    -1.908775748670000
     0.853488087570000     1.548473373970000     0.853488087570000
    -1.908775748670000    -0.853488087570000    -1.823003636240000
1 39
    -0.093548153940000    -0.046862237710000    -0.070428420260000
     0.046862237710000     0.078163864590000    -0.046862237710000
    -0.070428420260000     0.046862237710000    -0.093548153940000
1 40
    -0.093548153940000    -0.046862237710000     0.070428420260000
     0.046862237710000     0.078163864590000     0.046862237710000
     0.070428420260000    -0.046862237710000    -0.093548153940000
1 41
     0.170024833360000    -0.098746034300000    -0.051914064310000
    -0.098746034300000     0.069415052190000     0.098746034300000
    -0.051914064310000     0.098746034300000     0.170024833360000
1 42
    -0.104984427590000    -0.141079404350000     0.254395862640000
    -0.141079404350000    -0.104984427590000     0.254395862640000
     0.254395862640000     0.254395862640000    -0.364331584760000
1 43
   -11.395637914689999    -4.245292153850000     4.245292153850000
    -4.245292153850000   -11.395637914689999     4.245292153850000
     4.245292153850000     4.245292153850000   -11.395637914689999
1 44
     0.069415052190000    -0.098746034300000     0.098746034300000
    -0.098746034300000     0.170024833360000    -0.051914064310000
     0.098746034300000    -0.051914064310000     0.170024833360000
1 45
    -0.364331584760000    -0.254395862640000     0.254395862640000
    -0.254395862640000    -0.104984427590000     0.141079404350000
     0.254395862640000     0.141079404350000    -0.104984427590000
1 46
     0.034400825210000    -0.030044795840000     0.030044795840000
    -0.030044795840000     0.034400825210000     0.030044795840000
     0.030044795840000     0.030044795840000     0.034400825210000
1 47
     0.170024833360000     0.051914064310000     0.098746034300000
     0.051914064310000     0.170024833360000     0.098746034300000
     0.098746034300000     0.098746034300000     0.069415052190000
1 48
    -0.104984427590000    -0.254395862640000     0.141079404350000
    -0.254395862640000    -0.364331584760000     0.254395862640000
     0.141079404350000     0.254395862640000    -0.104984427590000
1 49
    -1.823003636240000     1.908775748670000    -0.853488087570000
     1.908775748670000    -1.823003636240000     0.853488087570000
     0.853488087570000    -0.853488087570000     1.548473373970000
1 50
    -1.823003636240000    -1.908775748670000    -0.853488087570000
    -1.908775748670000    -1.823003636240000    -0.853488087570000
     0.853488087570000     0.853488087570000     1.548473373970000
1 51
    -1.823003636240000    -1.908775748670000     0.853488087570000
    -1.908775748670000    -1.823003636240000     0.853488087570000
    -0.853488087570000    -0.853488087570000     1.548473373970000
1 52
    -1.823003636240000     1.908775748670000     0.853488087570000
     1.908775748670000    -1.823003636240000    -0.853488087570000
    -0.853488087570000     0.853488087570000     1.548473373970000
1 53
    -0.093548153940000    -0.070428420260000    -0.046862237710000
    -0.070428420260000    -0.093548153940000     0.046862237710000
     0.046862237710000    -0.046862237710000     0.078163864590000
1 54
    -0.093548153940000     0.070428420260000    -0.046862237710000
     0.070428420260000    -0.093548153940000    -0.046862237710000
     0.046862237710000     0.046862237710000     0.078163864590000
1 55
    -0.093548153940000     0.070428420260000     0.046862237710000
     0.070428420260000    -0.093548153940000     0.046862237710000
    -0.046862237710000    -0.046862237710000     0.078163864590000
1 56
    -0.093548153940000    -0.070428420260000     0.046862237710000
    -0.070428420260000    -0.093548153940000    -0.046862237710000
    -0.046862237710000     0.046862237710000     0.078163864590000
1 57
   -11.395637914689999     4.245292153850000    -4.245292153850000
     4.245292153850000   -11.395637914689999     4.245292153850000
    -4.245292153850000     4.245292153850000   -11.395637914689999
1 58
     0.069415052190000     0.098746034300000    -0.098746034300000
     0.098746034300000     0.170024833360000    -0.051914064310000
    -0.098746034300000    -0.051914064310000     0.170024833360000
1 59
     0.170024833360000     0.098746034300000     0.051914064310000
     0.098746034300000     0.069415052190000     0.098746034300000
     0.051914064310000     0.098746034300000     0.170024833360000
1 60
    -0.104984427590000     0.141079404350000    -0.254395862640000
     0.141079404350000    -0.104984427590000     0.254395862640000
    -0.254395862640000     0.254395862640000    -0.364331584760000
1 61
     0.170024833360000    -0.051914064310000    -0.098746034300000
    -0.051914064310000     0.170024833360000     0.098746034300000
    -0.098746034300000     0.098746034300000     0.069415052190000
1 62
    -0.104984427590000     0.254395862640000    -0.141079404350000
     0.254395862640000    -0.364331584760000     0.254395862640000
    -0.141079404350000     0.254395862640000    -0.104984427590000
1 63
    -0.364331584760000     0.254395862640000    -0.254395862640000
     0.254395862640000    -0.104984427590000     0.141079404350000
    -0.254395862640000     0.141079404350000    -0.104984427590000
1 64
     0.034400825210000     0.030044795840000    -0.030044795840000
     0.030044795840000     0.034400825210000     0.030044795840000
    -0.030044795840000     0.030044795840000     0.034400825210000
2 1
    -0.199189102790000    -0.000000000000000     0.000000000000000
    -0.000000000000000    -0.101260657260000    -0.000000000000000
     0.000000000000000    -0.000000000000000    -0.101260657260000
2 2
    55.113683608250000     0.000000000000000     0.000000000000000
     0.000000000000000    55.113683608250000     0.000000000000000
     0.000000000000000     0.000000000000000    55.113683608250000
2 3
    -0.160701534830000    -0.000000000000000    -0.000000000000000
    -0.000000000000000    -0.160701534830000    -0.000000000000000
    -0.000000000000000    -0.000000000000000     0.601404822870000
2 4
    -0.101260657260000    -0.000000000000000    -0.000000000000000
    -0.000000000000000    -0.199189102790000     0.000000000000000
    -0.000000000000000     0.000000000000000    -0.101260657260000
2 5
    -0.160701534830000     0.000000000000000    -0.000000000000000
     0.000000000000000     0.601404822870000     0.000000000000000
    -0.000000000000000     0.000000000000000    -0.160701534830000
2 6
    -0.101260657260000    -0.000000000000000    -0.000000000000000
    -0.000000000000000    -0.101260657260000    -0.000000000000000
    -0.000000000000000    -0.000000000000000    -0.199189102790000
2 7
    -0.061819055570000     0.000000000000000     0.000000000000000
     0.000000000000000    -0.061819055570000     0.000000000000000
     0.000000000000000     0.000000000000000    -0.061819055570000
2 8
     0.601404822870000     0.000000000000000     0.000000000000000
     0.000000000000000    -0.160701534830000    -0.000000000000000
     0.000000000000000    -0.000000000000000    -0.160701534830000
2 9
    -0.104984427590000     0.141079404350000     0.254395862640000
     0.141079404350000    -0.104984427590000    -0.254395862640000
     0.254395862640000    -0.254395862640000    -0.364331584760000
2 10
     0.170024833360000     0.098746034300000    -0.051914064310000
     0.098746034300000     0.069415052190000    -0.098746034300000
    -0.051914064310000    -0.098746034300000     0.170024833360000
2 11
     0.069415052190000     0.098746034300000     0.098746034300000
     0.098746034300000     0.170024833360000     0.051914064310000
     0.098746034300000     0.051914064310000     0.170024833360000
2 12
   -11.395637914689999     4.245292153850000     4.245292153850000
     4.245292153850000   -11.395637914689999    -4.245292153850000
     4.245292153850000    -4.245292153850000   -11.395637914689999
2 13
     0.034400825210000     0.030044795840000     0.030044795840000
     0.030044795840000     0.034400825210000    -0.030044795840000
     0.030044795840000    -0.030044795840000     0.034400825210000
2 14
    -0.364331584760000     0.254395862640000     0.254395862640000
     0.254395862640000    -0.104984427590000    -0.141079404350000
     0.254395862640000    -0.141079404350000    -0.104984427590000
2 15
    -0.104984427590000     0.254395862640000     0.141079404350000
     0.254395862640000    -0.364331584760000    -0.254395862640000
     0.141079404350000    -0.254395862640000    -0.104984427590000
2 16
     0.170024833360000    -0.051914064310000     0.098746034300000
    -0.051914064310000     0.170024833360000    -0.098746034300000
     0.098746034300000    -0.098746034300000     0.069415052190000
2 17
     0.078163864590000    -0.046862237710000     0.046862237710000
     0.046862237710000    -0.093548153940000    -0.070428420260000
    -0.046862237710000    -0.070428420260000    -0.093548153940000
2 18
     1.548473373970000    -0.853488087570000     0.853488087570000
     0.853488087570000    -1.823003636240000     1.908775748670000
    -0.853488087570000     1.908775748670000    -1.823003636240000
2 19
     0.078163864590000    -0.046862237710000    -0.046862237710000
     0.046862237710000    -0.093548153940000     0.070428420260000
     0.046862237710000     0.070428420260000    -0.093548153940000
2 20
     1.548473373970000    -0.853488087570000    -0.853488087570000
     0.853488087570000    -1.823003636240000    -1.908775748670000
     0.853488087570000    -1.908775748670000    -1.823003636240000
2 21
     0.078163864590000     0.046862237710000     0.046862237710000
    -0.046862237710000    -0.093548153940000     0.070428420260000
    -0.046862237710000     0.070428420260000    -0.093548153940000
2 22
     1.548473373970000     0.853488087570000     0.853488087570000
    -0.853488087570000    -1.823003636240000    -1.908775748670000
    -0.853488087570000    -1.908775748670000    -1.823003636240000
2 23
     0.078163864590000     0.046862237710000    -0.046862237710000
    -0.046862237710000    -0.093548153940000    -0.070428420260000
     0.046862237710000    -0.070428420260000    -0.093548153940000
2 24
     1.548473373970000     0.853488087570000    -0.853488087570000
    -0.853488087570000    -1.823003636240000     1.908775748670000
     0.853488087570000     1.908775748670000    -1.823003636240000
2 25
     0.069415052190000    -0.098746034300000    -0.098746034300000
    -0.098746034300000     0.170024833360000     0.051914064310000
    -0.098746034300000     0.051914064310000     0.170024833360000
2 26
   -11.395637914689999    -4.245292153850000    -4.245292153850000
    -4.245292153850000   -11.395637914689999    -4.245292153850000
    -4.245292153850000    -4.245292153850000   -11.395637914689999
2 27
    -0.104984427590000    -0.141079404350000    -0.254395862640000
    -0.141079404350000    -0.104984427590000    -0.254395862640000
    -0.254395862640000    -0.254395862640000    -0.364331584760000
2 28
     0.170024833360000    -0.098746034300000     0.051914064310000
    -0.098746034300000     0.069415052190000    -0.098746034300000
     0.051914064310000    -0.098746034300000     0.170024833360000
2 29
    -0.104984427590000    -0.254395862640000    -0.141079404350000
    -0.254395862640000    -0.364331584760000    -0.254395862640000
    -0.141079404350000    -0.254395862640000    -0.104984427590000
2 30
     0.170024833360000     0.051914064310000    -0.098746034300000
     0.051914064310000     0.170024833360000    -0.098746034300000
    -0.098746034300000    -0.098746034300000     0.069415052190000
2 31
     0.034400825210000    -0.030044795840000    -0.030044795840000
    -0.030044795840000     0.034400825210000    -0.030044795840000
    -0.030044795840000    -0.030044795840000     0.034400825210000
2 32
    -0.364331584760000    -0.254395862640000    -0.254395862640000
    -0.254395862640000    -0.104984427590000    -0.141079404350000
    -0.254395862640000    -0.141079404350000    -0.104984427590000
2 33
    -1.823003636240000     0.853488087570000     1.908775748670000
    -0.853488087570000     1.548473373970000     0.853488087570000
     1.908775748670000    -0.853488087570000    -1.823003636240000
2 34
    -1.823003636240000     0.853488087570000    -1.908775748670000
    -0.853488087570000     1.548473373970000    -0.853488087570000
    -1.908775748670000     0.853488087570000    -1.823003636240000
2 35
    -0.093548153940000     0.046862237710000    -0.070428420260000
    -0.046862237710000     0.078163864590000     0.046862237710000
    -0.070428420260000    -0.046862237710000    -0.093548153940000
2 36
    -0.093548153940000     0.046862237710000     0.070428420260000
    -0.046862237710000     0.078163864590000    -0.046862237710000
     0.070428420260000     0.046862237710000    -0.093548153940000
2 37
    -1.823003636240000    -0.853488087570000    -1.908775748670000
     0.853488087570000     1.548473373970000     0.853488087570000
    -1.908775748670000    -0.853488087570000    -1.823003636240000
2 38
    -1.823003636240000    -0.853488087570000     1.908775748670000
     0.853488087570000     1.548473373970000    -0.853488087570000
     1.908775748670000     0.853488087570000    -1.823003636240000
2 39
    -0.093548153940000    -0.046862237710000     0.070428420260000
     0.046862237710000     0.078163864590000     0.046862237710000
     0.070428420260000    -0.046862237710000    -0.093548153940000
2 40
    -0.093548153940000    -0.046862237710000    -0.070428420260000
     0.046862237710000     0.078163864590000    -0.046862237710000
    -0.070428420260000     0.046862237710000    -0.093548153940000
2 41
    -0.104984427590000    -0.141079404350000     0.254395862640000
    -0.141079404350000    -0.104984427590000     0.254395862640000
     0.254395862640000     0.254395862640000    -0.364331584760000
2 42
     0.170024833360000    -0.098746034300000    -0.051914064310000
    -0.098746034300000     0.069415052190000     0.098746034300000
    -0.051914064310000     0.098746034300000     0.170024833360000
2 43
     0.069415052190000    -0.098746034300000     0.098746034300000
    -0.098746034300000     0.170024833360000    -0.051914064310000
     0.098746034300000    -0.051914064310000     0.170024833360000
2 44
   -11.395637914689999    -4.245292153850000     4.245292153850000
    -4.245292153850000   -11.395637914689999     4.245292153850000
     4.245292153850000     4.245292153850000   -11.395637914689999
2 45
     0.034400825210000    -0.030044795840000     0.030044795840000
    -0.030044795840000     0.034400825210000     0.030044795840000
     0.030044795840000     0.030044795840000     0.034400825210000
2 46
    -0.364331584760000    -0.254395862640000     0.254395862640000
    -0.254395862640000    -0.104984427590000     0.141079404350000
     0.254395862640000     0.141079404350000    -0.104984427590000
2 47
    -0.104984427590000    -0.254395862640000     0.141079404350000
    -0.254395862640000    -0.364331584760000     0.254395862640000
     0.141079404350000     0.254395862640000    -0.104984427590000
2 48
     0.170024833360000     0.051914064310000     0.098746034300000
     0.051914064310000     0.170024833360000     0.098746034300000
     0.098746034300000     0.098746034300000     0.069415052190000
2 49
    -1.823003636240000    -1.908775748670000    -0.853488087570000
    -1.908775748670000    -1.823003636240000    -0.853488087570000
     0.853488087570000     0.853488087570000     1.548473373970000
2 50
    -1.823003636240000     1.908775748670000    -0.853488087570000
     1.908775748670000    -1.823003636240000     0.853488087570000
     0.853488087570000    -0.853488087570000     1.548473373970000
2 51
    -1.823003636240000     1.908775748670000     0.853488087570000
     1.908775748670000    -1.823003636240000    -0.853488087570000
    -0.853488087570000     0.853488087570000     1.548473373970000
2 52
    -1.823003636240000    -1.908775748670000     0.853488087570000
    -1.908775748670000    -1.823003636240000     0.853488087570000
    -0.853488087570000    -0.853488087570000     1.548473373970000
2 53
    -0.093548153940000     0.070428420260000    -0.046862237710000
     0.070428420260000    -0.093548153940000    -0.046862237710000
     0.046862237710000     0.046862237710000     0.078163864590000
2 54
    -0.093548153940000    -0.070428420260000    -0.046862237710000
    -0.070428420260000    -0.093548153940000     0.046862237710000
     0.046862237710000    -0.046862237710000     0.078163864590000
2 55
    -0.093548153940000    -0.070428420260000     0.046862237710000
    -0.070428420260000    -0.093548153940000    -0.046862237710000
    -0.046862237710000     0.046862237710000     0.078163864590000
2 56
    -0.093548153940000     0.070428420260000     0.046862237710000
     0.070428420260000    -0.093548153940000     0.046862237710000
    -0.046862237710000    -0.046862237710000     0.078163864590000
2 57
     0.069415052190000     0.098746034300000    -0.098746034300000
     0.098746034300000     0.170024833360000    -0.051914064310000
    -0.098746034300000    -0.051914064310000     0.170024833360000
2 58
   -11.395637914689999     4.245292153850000    -4.245292153850000
     4.245292153850000   -11.395637914689999     4.245292153850000
    -4.245292153850000     4.245292153850000   -11.395637914689999
2 59
    -0.104984427590000     0.141079404350000    -0.254395862640000
     0.141079404350000    -0.104984427590000     0.254395862640000
    -0.254395862640000     0.254395862640000    -0.364331584760000
2 60
     0.170024833360000     0.098746034300000     0.051914064310000
     0.098746034300000     0.069415052190000     0.098746034300000
     0.051914064310000     0.098746034300000     0.170024833360000
2 61
    -0.104984427590000     0.254395862640000    -0.141079404350000
     0.254395862640000    -0.364331584760000     0.254395862640000
    -0.141079404350000     0.254395862640000    -0.104984427590000
2 62
     0.170024833360000    -0.051914064310000    -0.098746034300000
    -0.051914064310000     0.170024833360000     0.098746034300000
    -0.098746034300000     0.098746034300000     0.069415052190000
2 63
     0.034400825210000     0.030044795840000    -0.030044795840000
     0.030044795840000     0.034400825210000     0.030044795840000
    -0.030044795840000     0.030044795840000     0.034400825210000
2 64
    -0.364331584760000     0.254395862640000    -0.254395862640000
     0.254395862640000    -0.104984427590000     0.141079404350000
    -0.254395862640000     0.141079404350000    -0.104984427590000
3 1
    -0.101260657260000    -0.000000000000000    -0.000000000000000
    -0.000000000000000    -0.199189102790000     0.000000000000000
    -0.000000000000000     0.000000000000000    -0.101260657260000
3 2
    -0.160701534830000    -0.000000000000000    -0.000000000000000
    -0.000000000000000    -0.160701534830000    -0.000000000000000
    -0.000000000000000    -0.000000000000000     0.601404822870000
3 3
    55.113683608250000     0.000000000000000     0.000000000000000
     0.000000000000000    55.113683608250000     0.000000000000000
     0.000000000000000     0.000000000000000    55.113683608250000
3 4
    -0.199189102790000    -0.000000000000000     0.000000000000000
    -0.000000000000000    -0.101260657260000    -0.000000000000000
     0.000000000000000    -0.000000000000000    -0.101260657260000
3 5
     0.601404822870000     0.000000000000000     0.000000000000000
     0.000000000000000    -0.160701534830000    -0.000000000000000
     0.000000000000000    -0.000000000000000    -0.160701534830000
3 6
    -0.061819055570000     0.000000000000000     0.000000000000000
     0.000000000000000    -0.061819055570000     0.000000000000000
     0.000000000000000     0.000000000000000    -0.061819055570000
3 7
    -0.101260657260000    -0.000000000000000    -0.000000000000000
    -0.000000000000000    -0.101260657260000    -0.000000000000000
    -0.000000000000000    -0.000000000000000    -0.199189102790000
3 8
    -0.160701534830000     0.000000000000000    -0.000000000000000
     0.000000000000000     0.601404822870000     0.000000000000000
    -0.000000000000000     0.000000000000000    -0.160701534830000
3 9
   -11.395637914689999     4.245292153850000     4.245292153850000
     4.245292153850000   -11.395637914689999    -4.245292153850000
     4.245292153850000    -4.245292153850000   -11.395637914689999
3 10
     0.069415052190000     0.098746034300000     0.098746034300000
     0.098746034300000     0.170024833360000     0.051914064310000
     0.098746034300000     0.051914064310000     0.170024833360000
3 11
     0.170024833360000     0.098746034300000    -0.051914064310000
     0.098746034300000     0.069415052190000    -0.098746034300000
    -0.051914064310000    -0.098746034300000     0.170024833360000
3 12
    -0.104984427590000     0.141079404350000     0.254395862640000
     0.141079404350000    -0.104984427590000    -0.254395862640000
     0.254395862640000    -0.254395862640000    -0.364331584760000
3 13
     0.170024833360000    -0.051914064310000     0.098746034300000
    -0.051914064310000     0.170024833360000    -0.098746034300000
     0.098746034300000    -0.098746034300000     0.069415052190000
3 14
    -0.104984427590000     0.254395862640000     0.141079404350000
     0.254395862640000    -0.364331584760000    -0.254395862640000
     0.141079404350000    -0.254395862640000    -0.104984427590000
3 15
    -0.364331584760000     0.254395862640000     0.254395862640000
     0.254395862640000    -0.104984427590000    -0.141079404350000
     0.254395862640000    -0.141079404350000    -0.104984427590000
3 16
     0.034400825210000     0.030044795840000     0.030044795840000
     0.030044795840000     0.034400825210000    -0.030044795840000
     0.030044795840000    -0.030044795840000     0.034400825210000
3 17
     1.548473373970000    -0.853488087570000    -0.853488087570000
     0.853488087570000    -1.823003636240000    -1.908775748670000
     0.853488087570000    -1.908775748670000    -1.823003636240000
3 18
     0.078163864590000    -0.046862237710000    -0.046862237710000
     0.046862237710000    -0.093548153940000     0.070428420260000