mesh: [    48,    48,    48 ]
nqpoint: 2600   
reciprocal_lattice:
- [   0.29041012,   0.00000000,   0.00000000 ] # a*
- [   0.00000000,   0.29041012,   0.00000000 ] # b*
- [   0.00000000,   0.00000000,   0.29041012 ] # c*
natom:   8      
lattice:
- [     3.443406203266342,     0.000000000000000,     0.000000000000000 ] # a
- [     0.000000000000000,     3.443406203266342,     0.000000000000000 ] # b
- [     0.000000000000000,     0.000000000000000,     3.443406203266342 ] # c
points:
- symbol: C  # 1
  coordinates: [  0.250000000000000,  0.750000000000000,  0.250000000000000 ]
  mass: 12.010700
- symbol: C  # 2
  coordinates: [  0.000000000000000,  0.000000000000000,  0.500000000000000 ]
  mass: 12.010700
- symbol: C  # 3
  coordinates: [  0.250000000000000,  0.250000000000000,  0.750000000000000 ]
  mass: 12.010700
- symbol: C  # 4
  coordinates: [  0.000000000000000,  0.500000000000000,  0.000000000000000 ]
  mass: 12.010700
- symbol: C  # 5
  coordinates: [  0.750000000000000,  0.750000000000000,  0.750000000000000 ]
  mass: 12.010700
- symbol: C  # 6
  coordinates: [  0.500000000000000,  0.000000000000000,  0.000000000000000 ]
  mass: 12.010700
- symbol: C  # 7
  coordinates: [  0.750000000000000,  0.250000000000000,  0.250000000000000 ]
  mass: 12.010700
- symbol: C  # 8
  coordinates: [  0.500000000000000,  0.500000000000000,  0.500000000000000 ]
  mass: 12.010700

phonon:
- q-position: [    0.0104167,    0.0104167,    0.0104167 ]
  distance_from_gamma:  0.005239636
  weight: 8    
  band:
  - # 1
    frequency:     0.6294694571
  - # 2
    frequency:     0.6294694571
  - # 3
    frequency:     1.0418946789
  - # 4
    frequency:    23.9255956304
  - # 5
    frequency:    23.9255956304
  - # 6
    frequency:    23.9255956304
  - # 7
    frequency:    23.9424281289
  - # 8
    frequency:    23.9424281289
  - # 9
    frequency:    23.9424281289
  - # 10
    frequency:    37.3784312505
  - # 11
    frequency:    37.3784312505
  - # 12
    frequency:    37.3784312505
  - # 13
    frequency:    37.3932801954
  - # 14
    frequency:    37.3932801954
  - # 15
    frequency:    37.3932801954
  - # 16
    frequency:    39.3365359575
  - # 17
    frequency:    39.3365359575
  - # 18
    frequency:    39.3365359575
  - # 19
    frequency:    39.7091795113
  - # 20
    frequency:    39.7091795113
  - # 21
    frequency:    39.7091795113
  - # 22
    frequency:    43.3130197428
  - # 23
    frequency:    43.3130197428
  - # 24
    frequency:    43.3161581602

- q-position: [    0.0312500,    0.0104167,    0.0104167 ]
  distance_from_gamma:  0.010033140
  weight: 24   
  band:
  - # 1
    frequency:     1.2319883191
  - # 2
    frequency:     1.2823139164
  - # 3
    frequency:     1.9284113226
  - # 4
    frequency:    23.9011494122
  - # 5
    frequency:    23.9179894401
  - # 6
    frequency:    23.9393219603
  - # 7
    frequency:    23.9393219603
  - # 8
    frequency:    23.9897188807
  - # 9
    frequency:    23.9897188807
  - # 10
    frequency:    37.3367975076
  - # 11
    frequency:    37.3367975076
  - # 12
    frequency:    37.3809917152
  - # 13
    frequency:    37.3809917152
  - # 14
    frequency:    37.3904897172
  - # 15
    frequency:    37.4071091628
  - # 16
    frequency:    38.9463922888
  - # 17
    frequency:    39.3435185493
  - # 18
    frequency:    39.3435185493
  - # 19
    frequency:    39.7126181698
  - # 20
    frequency:    39.7126181698
  - # 21
    frequency:    40.0626056854
  - # 22
    frequency:    43.3017150053
  - # 23
    frequency:    43.3025416655
  - # 24
    frequency:    43.3193670265

- q-position: [    0.0520833,    0.0104167,    0.0104167 ]
  distance_from_gamma:  0.015718909
  weight: 24   
  band:
  - # 1
    frequency:     1.9923317509
  - # 2
    frequency:     2.0334854363
  - # 3
    frequency:     2.9600862088
  - # 4
    frequency:    23.8522523949
  - # 5
    frequency:    23.8691063379
  - # 6
    frequency:    23.9834213216
  - # 7
    frequency:    23.9834213216
  - # 8
    frequency:    24.0670847667
  - # 9
    frequency:    24.0670847667
  - # 10
    frequency:    37.2691346172
  - # 11
    frequency:    37.2691346172
  - # 12
    frequency:    37.3418837044
  - # 13
    frequency:    37.3418837044
  - # 14
    frequency:    37.4132967704
  - # 15
    frequency:    37.4347030119
  - # 16
    frequency:    38.5391756014
  - # 17
    frequency:    39.3568793456
  - # 18
    frequency:    39.3568793456
  - # 19
    frequency:    39.7192373548
  - # 20
    frequency:    39.7192373548
  - # 21
    frequency:    40.3976640116
  - # 22
    frequency:    43.2791365076
  - # 23
    frequency:    43.2800406736
  - # 24
    frequency:    43.3272965693

- q-position: [    0.0729167,    0.0104167,    0.0104167 ]
  distance_from_gamma:  0.021603574
  weight: 24   
  band:
  - # 1
    frequency:     2.7717083020
  - # 2
    frequency:     2.8031296767
  - # 3
    frequency:     4.0317477470
  - # 4
    frequency:    23.7788970091
  - # 5
    frequency:    23.7957690287
  - # 6
    frequency:    24.0574243972
  - # 7
    frequency:    24.0574243972
  - # 8
    frequency:    24.1738660782
  - # 9
    frequency:    24.1738660782
  - # 10
    frequency:    37.1766522198
  - # 11
    frequency:    37.1766522198
  - # 12
    frequency:    37.2767043646
  - # 13
    frequency:    37.2767043646
  - # 14
    frequency:    37.4409697632
  - # 15
    frequency:    37.4759330818
  - # 16
    frequency:    38.1206830297
  - # 17
    frequency:    39.3755524074
  - # 18
    frequency:    39.3755524074
  - # 19
    frequency:    39.7285691228
  - # 20
    frequency:    39.7285691228
  - # 21
    frequency:    40.7143732268
  - # 22
    frequency:    43.2453463323
  - # 23
    frequency:    43.2462675933
  - # 24
    frequency:    43.3391306228

- q-position: [    0.0937500,    0.0104167,    0.0104167 ]
  distance_from_gamma:  0.027560022
  weight: 24   
  band:
  - # 1
    frequency:     3.5528347726
  - # 2
    frequency:     3.5770739036
  - # 3
    frequency:     5.1174117183
  - # 4
    frequency:    23.6810757374
  - # 5
    frequency:    23.6979668106
  - # 6
    frequency:    24.1605841346
  - # 7
    frequency:    24.1605841346
  - # 8
    frequency:    24.3091375040
  - # 9
    frequency:    24.3091375040
  - # 10
    frequency:    37.0607961676
  - # 11
    frequency:    37.0607961676
  - # 12
    frequency:    37.1865551603
  - # 13
    frequency:    37.1865551603
  - # 14
    frequency:    37.4251347185
  - # 15
    frequency:    37.5306052758
  - # 16
    frequency:    37.7389918843
  - # 17
    frequency:    39.3982298313
  - # 18
    frequency:    39.3982298313
  - # 19
    frequency:    39.7400150106
  - # 20
    frequency:    39.7400150106
  - # 21
    frequency:    41.0129292745
  - # 22
    frequency:    43.2004379214
  - # 23
    frequency:    43.2013619923
  - # 24
    frequency:    43.3546333831

- q-position: [    0.1145833,    0.0104167,    0.0104167 ]
  distance_from_gamma:  0.033550042
  weight: 24   
  band:
  - # 1
    frequency:     4.3316372430
  - # 2
    frequency:     4.3505417708
  - # 3
    frequency:     6.2072696817
  - # 4
    frequency:    23.5587853339
  - # 5
    frequency:    23.5756924598
  - # 6
    frequency:    24.2918853010
  - # 7
    frequency:    24.2918853010
  - # 8
    frequency:    24.4717216550
  - # 9
    frequency:    24.4717216550
  - # 10
    frequency:    36.9231068949
  - # 11
    frequency:    36.9231068949
  - # 12
    frequency:    37.0727411178
  - # 13
    frequency:    37.0727411178
  - # 14
    frequency:    37.1159754899
  - # 15
    frequency:    37.5984590442
  - # 16
    frequency:    37.6435340132
  - # 17
    frequency:    39.4235742719
  - # 18
    frequency:    39.4235742719
  - # 19
    frequency:    39.7529315451
  - # 20
    frequency:    39.7529315451
  - # 21
    frequency:    41.2935814197
  - # 22
    frequency:    43.1445364490
  - # 23
    frequency:    43.1454575717
  - # 24
    frequency:    43.3735461058

- q-position: [    0.1354167,    0.0104167,    0.0104167 ]
  distance_from_gamma:  0.039558386
  weight: 24   
  band:
  - # 1
    frequency:     5.1063499551
  - # 2
    frequency:     5.1211283237
  - # 3
    frequency:     7.2965185973
  - # 4
    frequency:    23.4120318638
  - # 5
    frequency:    23.4289474696
  - # 6
    frequency:    24.4500563205
  - # 7
    frequency:    24.4500563205
  - # 8
    frequency:    24.6602042143
  - # 9
    frequency:    24.6602042143
  - # 10
    frequency:    36.6471494741
  - # 11
    frequency:    36.7651217697
  - # 12
    frequency:    36.7651217697
  - # 13
    frequency:    36.9366557058
  - # 14
    frequency:    36.9366557058
  - # 15
    frequency:    37.6791664915
  - # 16
    frequency:    37.7001997028
  - # 17
    frequency:    39.4503704824
  - # 18
    frequency:    39.4503704824
  - # 19
    frequency:    39.7667016384
  - # 20
    frequency:    39.7667016384
  - # 21
    frequency:    41.5566126150
  - # 22
    frequency:    43.0777993036
  - # 23
    frequency:    43.0787143092
  - # 24
    frequency:    43.3955576868

- q-position: [    0.1562500,    0.0104167,    0.0104167 ]
  distance_from_gamma:  0.045577808
  weight: 24   
  band:
  - # 1
    frequency:     5.8757923254
  - # 2
    frequency:     5.8872499534
  - # 3
    frequency:     8.3822874048
  - # 4
    frequency:    23.2408361630
  - # 5
    frequency:    23.2577477260
  - # 6
    frequency:    24.6335819087
  - # 7
    frequency:    24.6335819087
  - # 8
    frequency:    24.8729490950
  - # 9
    frequency:    24.8729490950
  - # 10
    frequency:    36.1414650798
  - # 11
    frequency:    36.5883325285
  - # 12
    frequency:    36.5883325285
  - # 13
    frequency:    36.7797120917
  - # 14
    frequency:    36.7797120917
  - # 15
    frequency:    37.7723319107
  - # 16
    frequency:    37.7856682387
  - # 17
    frequency:    39.4776040148
  - # 18
    frequency:    39.4776040148
  - # 19
    frequency:    39.7807820516
  - # 20
    frequency:    39.7807820516
  - # 21
    frequency:    41.8023320904
  - # 22
    frequency:    43.0004166678
  - # 23
    frequency:    43.0013234694
  - # 24
    frequency:    43.4203029590

- q-position: [    0.1770833,    0.0104167,    0.0104167 ]
  distance_from_gamma:  0.051604432
  weight: 24   
  band:
  - # 1
    frequency:     6.6389768749
  - # 2
    frequency:     6.6476706718
  - # 3
    frequency:     9.4625770548
  - # 4
    frequency:    23.0452393177
  - # 5
    frequency:    23.0621292025
  - # 6
    frequency:    24.8407146282
  - # 7
    frequency:    24.8407146282
  - # 8
    frequency:    25.1081117010
  - # 9
    frequency:    25.1081117010
  - # 10
    frequency:    35.6111830372
  - # 11
    frequency:    36.3941875240
  - # 12
    frequency:    36.3941875240
  - # 13
    frequency:    36.6033179932
  - # 14
    frequency:    36.6033179932
  - # 15
    frequency:    37.8774920300
  - # 16
    frequency:    37.8871115102
  - # 17
    frequency:    39.5044820345
  - # 18
    frequency:    39.5044820345
  - # 19
    frequency:    39.7947268118
  - # 20
    frequency:    39.7947268118
  - # 21
    frequency:    42.0310719736
  - # 22
    frequency:    42.9126121800
  - # 23
    frequency:    42.9135092924
  - # 24
    frequency:    43.4473648313

- q-position: [    0.1979167,    0.0104167,    0.0104167 ]
  distance_from_gamma:  0.057635999
  weight: 24   
  band:
  - # 1
    frequency:     7.3949948685
  - # 2
    frequency:     7.4013244916
  - # 3
    frequency:    10.5358338181
  - # 4
    frequency:    22.8253078094
  - # 5
    frequency:    22.8421533076
  - # 6
    frequency:    25.0694830869
  - # 7
    frequency:    25.0694830869
  - # 8
    frequency:    25.3636480352
  - # 9
    frequency:    25.3636480352
  - # 10
    frequency:    35.0586691952
  - # 11
    frequency:    36.1841239931
  - # 12
    frequency:    36.1841239931
  - # 13
    frequency:    36.4088836779
  - # 14
    frequency:    36.4088836779
  - # 15
    frequency:    37.9941171983
  - # 16
    frequency:    38.0015454435
  - # 17
    frequency:    39.5304186987
  - # 18
    frequency:    39.5304186987
  - # 19
    frequency:    39.8081919289
  - # 20
    frequency:    39.8081919289
  - # 21
    frequency:    42.2431857234
  - # 22
    frequency:    42.8146436587
  - # 23
    frequency:    42.8155300371
  - # 24
    frequency:    43.4762775219

- q-position: [    0.2187500,    0.0104167,    0.0104167 ]
  distance_from_gamma:  0.063671103
  weight: 24   
  band:
  - # 1
    frequency:     8.1429766411
  - # 2
    frequency:     8.1472388543
  - # 3
    frequency:    11.6007568392
  - # 4
    frequency:    22.5811380455
  - # 5
    frequency:    22.5979115900
  - # 6
    frequency:    25.3176940111
  - # 7
    frequency:    25.3176940111
  - # 8
    frequency:    25.6373169304
  - # 9
    frequency:    25.6373169304
  - # 10
    frequency:    34.4846412900
  - # 11
    frequency:    35.9596188007
  - # 12
    frequency:    35.9596188007
  - # 13
    frequency:    36.1978527440
  - # 14
    frequency:    36.1978527440
  - # 15
    frequency:    38.1216136569
  - # 16
    frequency:    38.1275877872
  - # 17
    frequency:    39.5550039361
  - # 18
    frequency:    39.5550039361
  - # 19
    frequency:    39.8209281806
  - # 20
    frequency:    39.8209281806
  - # 21
    frequency:    42.4390474911
  - # 22
    frequency:    42.7068038702
  - # 23
    frequency:    42.7076788713
  - # 24
    frequency:    43.5065303143

- q-position: [    0.2395833,    0.0104167,    0.0104167 ]
  distance_from_gamma:  0.069708826
  weight: 24   
  band:
  - # 1
    frequency:     8.8820761009
  - # 2
    frequency:     8.8844981706
  - # 3
    frequency:    12.6562035661
  - # 4
    frequency:    22.3128600818
  - # 5
    frequency:    22.3295296038
  - # 6
    frequency:    25.5829247457
  - # 7
    frequency:    25.5829247457
  - # 8
    frequency:    25.9266719835
  - # 9
    frequency:    25.9266719835
  - # 10
    frequency:    33.8893743629
  - # 11
    frequency:    35.7222517131
  - # 12
    frequency:    35.7222517131
  - # 13
    frequency:    35.9717489595
  - # 14
    frequency:    35.9717489595
  - # 15
    frequency:    38.2593269509
  - # 16
    frequency:    38.2642580228
  - # 17
    frequency:    39.5779677937
  - # 18
    frequency:    39.5779677937
  - # 19
    frequency:    39.8327677864
  - # 20
    frequency:    39.8327677864
  - # 21
    frequency:    42.5894213117
  - # 22
    frequency:    42.5902847134
  - # 23
    frequency:    42.6190519869
  - # 24
    frequency:    43.5375716460

- q-position: [    0.2604167,    0.0104167,    0.0104167 ]
  distance_from_gamma:  0.075748542
  weight: 24   
  band:
  - # 1
    frequency:     9.6114642502
  - # 2
    frequency:     9.6122251807
  - # 3
    frequency:    13.7011401438
  - # 4
    frequency:    22.0206404391
  - # 5
    frequency:    22.0371698294
  - # 6
    frequency:    25.8625017323
  - # 7
    frequency:    25.8625017323
  - # 8
    frequency:    26.2290386975
  - # 9
    frequency:    26.2290386975
  - # 10
    frequency:    33.2729962965
  - # 11
    frequency:    35.4737805905
  - # 12
    frequency:    35.4737805905
  - # 13
    frequency:    35.7322369349
  - # 14
    frequency:    35.7322369349
  - # 15
    frequency:    38.4065464450
  - # 16
    frequency:    38.4106880869
  - # 17
    frequency:    39.5991468286
  - # 18
    frequency:    39.5991468286
  - # 19
    frequency:    39.8436090601
  - # 20
    frequency:    39.8436090601
  - # 21
    frequency:    42.4628609869
  - # 22
    frequency:    42.4637130397
  - # 23
    frequency:    42.7836146240
  - # 24
    frequency:    43.5688134247

- q-position: [    0.2812500,    0.0104167,    0.0104167 ]
  distance_from_gamma:  0.081789810
  weight: 24   
  band:
  - # 1
    frequency:    10.3295709605
  - # 2
    frequency:    10.3303264708
  - # 3
    frequency:    14.7346140735
  - # 4
    frequency:    21.7046839965
  - # 5
    frequency:    21.7210336319
  - # 6
    frequency:    26.1534590282
  - # 7
    frequency:    26.1534590282
  - # 8
    frequency:    26.5414706789
  - # 9
    frequency:    26.5414706789
  - # 10
    frequency:    32.6355851642
  - # 11
    frequency:    35.2162323948
  - # 12
    frequency:    35.2162323948
  - # 13
    frequency:    35.4811987631
  - # 14
    frequency:    35.4811987631
  - # 15
    frequency:    38.5625108281
  - # 16
    frequency:    38.5660321937
  - # 17
    frequency:    39.6184552885
  - # 18
    frequency:    39.6184552885
  - # 19
    frequency:    39.8534014852
  - # 20
    frequency:    39.8534014852
  - # 21
    frequency:    42.3275251402
  - # 22
    frequency:    42.3283666410
  - # 23
    frequency:    42.9331717998
  - # 24
    frequency:    43.5996354945

- q-position: [    0.3020833,    0.0104167,    0.0104167 ]
  distance_from_gamma:  0.087832308
  weight: 24   
  band:
  - # 1
    frequency:    11.0357094294
  - # 2
    frequency:    11.0378615356
  - # 3
    frequency:    15.7557385776
  - # 4
    frequency:    21.3652350124
  - # 5
    frequency:    21.3813623111
  - # 6
    frequency:    26.4524687753
  - # 7
    frequency:    26.4524687753
  - # 8
    frequency:    26.8606762736
  - # 9
    frequency:    26.8606762736
  - # 10
    frequency:    31.9772083649
  - # 11
    frequency:    34.9520178865
  - # 12
    frequency:    34.9520178865
  - # 13
    frequency:    35.2208330433
  - # 14
    frequency:    35.2208330433
  - # 15
    frequency:    38.7264144362
  - # 16
    frequency:    38.7294356554
  - # 17
    frequency:    39.6358617474
  - # 18
    frequency:    39.6358617474
  - # 19
    frequency:    39.8621324383
  - # 20
    frequency:    39.8621324383
  - # 21
    frequency:    42.1838539196
  - # 22
    frequency:    42.1846863027
  - # 23
    frequency:    43.0681812278
  - # 24
    frequency:    43.6293901821

- q-position: [    0.3229167,    0.0104167,    0.0104167 ]
  distance_from_gamma:  0.093875800
  weight: 24   
  band:
  - # 1
    frequency:    11.7298343467
  - # 2
    frequency:    11.7332814787
  - # 3
    frequency:    16.7636834144
  - # 4
    frequency:    21.0025773700
  - # 5
    frequency:    21.0184373446
  - # 6
    frequency:    26.7557326450
  - # 7
    frequency:    26.7557326450
  - # 8
    frequency:    27.1829035882
  - # 9
    frequency:    27.1829035882
  - # 10
    frequency:    31.2979409680
  - # 11
    frequency:    34.6840816317
  - # 12
    frequency:    34.6840816317
  - # 13
    frequency:    34.9537873593
  - # 14
    frequency:    34.9537873593
  - # 15
    frequency:    38.8974141837
  - # 16
    frequency:    38.9000250878
  - # 17
    frequency:    39.6513708662
  - # 18
    frequency:    39.6513708662
  - # 19
    frequency:    39.8698160004
  - # 20
    frequency:    39.8698160004
  - # 21
    frequency:    42.0323259307
  - # 22
    frequency:    42.0331513736
  - # 23
    frequency:    43.1891222509
  - # 24
    frequency:    43.6574068614

- q-position: [    0.3437500,    0.0104167,    0.0104167 ]
  distance_from_gamma:  0.099920106
  weight: 24   
  band:
  - # 1
    frequency:    12.4111577579
  - # 2
    frequency:    12.4158119289
  - # 3
    frequency:    17.7576693769
  - # 4
    frequency:    20.6170341746
  - # 5
    frequency:    20.6325799551
  - # 6
    frequency:    27.0588200790
  - # 7
    frequency:    27.0588200790
  - # 8
    frequency:    27.5037677399
  - # 9
    frequency:    27.5037677399
  - # 10
    frequency:    30.5978755181
  - # 11
    frequency:    34.4161019615
  - # 12
    frequency:    34.4161019615
  - # 13
    frequency:    34.6833406716
  - # 14
    frequency:    34.6833406716
  - # 15
    frequency:    39.0746368799
  - # 16
    frequency:    39.0769075245
  - # 17
    frequency:    39.6650095613
  - # 18
    frequency:    39.6650095613
  - # 19
    frequency:    39.8764838510
  - # 20
    frequency:    39.8764838510
  - # 21
    frequency:    41.8734586459
  - # 22
    frequency:    41.8742801891
  - # 23
    frequency:    43.2964960878
  - # 24
    frequency:    43.6829964756

- q-position: [    0.3645833,    0.0104167,    0.0104167 ]
  distance_from_gamma:  0.105965085
  weight: 24   
  band:
  - # 1
    frequency:    13.0789093268
  - # 2
    frequency:    13.0846927146
  - # 3
    frequency:    18.7369649450
  - # 4
    frequency:    20.2089668381
  - # 5
    frequency:    20.2241501430
  - # 6
    frequency:    27.3564374955
  - # 7
    frequency:    27.3564374955
  - # 8
    frequency:    27.8180012211
  - # 9
    frequency:    27.8180012211
  - # 10
    frequency:    29.8771279326
  - # 11
    frequency:    34.1527549611
  - # 12
    frequency:    34.1527549611
  - # 13
    frequency:    34.4136577434
  - # 14
    frequency:    34.4136577434
  - # 15
    frequency:    39.2571867125
  - # 16
    frequency:    39.2591735805
  - # 17
    frequency:    39.6768167816
  - # 18
    frequency:    39.6768167816
  - # 19
    frequency:    39.8821780222
  - # 20
    frequency:    39.8821780222
  - # 21
    frequency:    41.7078086263
  - # 22
    frequency:    41.7086303060
  - # 23
    frequency:    43.3908259680
  - # 24
    frequency:    43.7054559648

- q-position: [    0.3854167,    0.0104167,    0.0104167 ]
  distance_from_gamma:  0.112010629
  weight: 24   
  band:
  - # 1
    frequency:    13.7323362371
  - # 2
    frequency:    13.7391786444
  - # 3
    frequency:    19.7008842117
  - # 4
    frequency:    19.7787737834
  - # 5
    frequency:    19.7935453247
  - # 6
    frequency:    27.6421183702
  - # 7
    frequency:    27.6421183702
  - # 8
    frequency:    28.1191126164
  - # 9
    frequency:    28.1191126164
  - # 10
    frequency:    29.1358414438
  - # 11
    frequency:    33.9000437364
  - # 12
    frequency:    33.9000437364
  - # 13
    frequency:    34.1501406330
  - # 14
    frequency:    34.1501406330
  - # 15
    frequency:    39.4441526954
  - # 16
    frequency:    39.4459024993
  - # 17
    frequency:    39.6868361491
  - # 18
    frequency:    39.6868361491
  - # 19
    frequency:    39.8869452126
  - # 20
    frequency:    39.8869452126
  - # 21
    frequency:    41.5359715150
  - # 22
    frequency:    41.5367985098
  - # 23
    frequency:    43.4726571209
  - # 24
    frequency:    43.7240725496

- q-position: [    0.4062500,    0.0104167,    0.0104167 ]
  distance_from_gamma:  0.118056652
  weight: 24   
  band:
  - # 1
    frequency:    14.3707034768
  - # 2
    frequency:    14.3785404140
  - # 3
    frequency:    19.3268888905
  - # 4
    frequency:    19.3411987002
  - # 5
    frequency:    20.6487855573
  - # 6
    frequency:    27.9078521069
  - # 7
    frequency:    27.9078521069
  - # 8
    frequency:    28.3741894774
  - # 9
    frequency:    28.3989671229
  - # 10
    frequency:    28.3989671229
  - # 11
    frequency:    33.6656474257
  - # 12
    frequency:    33.6656474257
  - # 13
    frequency:    33.8998928286
  - # 14
    frequency:    33.8998928286
  - # 15
    frequency:    39.6346159072
  - # 16
    frequency:    39.6361679999
  - # 17
    frequency:    39.6951108196
  - # 18
    frequency:    39.6951108196
  - # 19
    frequency:    39.8908323597
  - # 20
    frequency:    39.8908323597
  - # 21
    frequency:    41.3585817576
  - # 22
    frequency:    41.3594205468
  - # 23
    frequency:    43.5425565838
  - # 24
    frequency:    43.7381278265

- q-position: [    0.4270833,    0.0104167,    0.0104167 ]
  distance_from_gamma:  0.124103082
  weight: 24   
  band:
  - # 1
    frequency:    14.9932943981
  - # 2
    frequency:    15.0020656173
  - # 3
    frequency:    18.8537797880
  - # 4
    frequency:    18.8675774584
  - # 5
    frequency:    21.5800707489
  - # 6
    frequency:    27.5923779027
  - # 7
    frequency:    28.1437506811
  - # 8
    frequency:    28.1437506811
  - # 9
    frequency:    28.6473899550
  - # 10
    frequency:    28.6473899550
  - # 11
    frequency:    33.4591204824
  - # 12
    frequency:    33.4591204824
  - # 13
    frequency:    33.6722667326
  - # 14
    frequency:    33.6722667326
  - # 15
    frequency:    39.7016800243
  - # 16
    frequency:    39.7016800243
  - # 17
    frequency:    39.8276563769
  - # 18
    frequency:    39.8290443316
  - # 19
    frequency:    39.8938832103
  - # 20
    frequency:    39.8938832103
  - # 21
    frequency:    41.1763120020
  - # 22
    frequency:    41.1771705388
  - # 23
    frequency:    43.6011128023
  - # 24
    frequency:    43.7469016405

- q-position: [    0.4479167,    0.0104167,    0.0104167 ]
  distance_from_gamma:  0.130149864
  weight: 24   
  band:
  - # 1
    frequency:    15.5994114869
  - # 2
    frequency:    15.6090598500
  - # 3
    frequency:    18.3599460727
  - # 4
    frequency:    18.3731809069
  - # 5
    frequency:    22.4941842605
  - # 6
    frequency:    26.7906468771
  - # 7
    frequency:    28.3380269475
  - # 8
    frequency:    28.3380269475
  - # 9
    frequency:    28.8520899364
  - # 10
    frequency:    28.8520899364
  - # 11
    frequency:    33.2915228297
  - # 12
    frequency:    33.2915228297
  - # 13
    frequency:    33.4793438497
  - # 14
    frequency:    33.4793438497
  - # 15
    frequency:    39.7065768508
  - # 16
    frequency:    39.7065768508
  - # 17
    frequency:    39.8961356836
  - # 18
    frequency:    39.8961356836
  - # 19
    frequency:    40.0223595097
  - # 20
    frequency:    40.0236121906
  - # 21
    frequency:    40.9898721327
  - # 22
    frequency:    40.9907600311
  - # 23
    frequency:    43.6489349944
  - # 24
    frequency:    43.7496757008

- q-position: [    0.4687500,    0.0104167,    0.0104167 ]
  distance_from_gamma:  0.136196951
  weight: 24   
  band:
  - # 1
    frequency:    16.1883773013
  - # 2
    frequency:    16.1988479045
  - # 3
    frequency:    17.8459175240
  - # 4
    frequency:    17.8585385916
  - # 5
    frequency:    23.3906126841
  - # 6
    frequency:    25.9692724019
  - # 7
    frequency:    28.4778060911
  - # 8
    frequency:    28.4778060911
  - # 9
    frequency:    28.9994854048
  - # 10
    frequency:    28.9994854048
  - # 11
    frequency:    33.1737832046
  - # 12
    frequency:    33.1737832046
  - # 13
    frequency:    33.3359427165
  - # 14
    frequency:    33.3359427165
  - # 15
    frequency:    39.7098269024
  - # 16
    frequency:    39.7098269024
  - # 17
    frequency:    39.8976198819
  - # 18
    frequency:    39.8976198819
  - # 19
    frequency:    40.2178219718
  - # 20
    frequency:    40.2189642888
  - # 21
    frequency:    40.8000078905
  - # 22
    frequency:    40.8009366292
  - # 23
    frequency:    43.6866522566
  - # 24
    frequency:    43.7457369184

- q-position: [    0.4895833,    0.0104167,    0.0104167 ]
  distance_from_gamma:  0.142244303
  weight: 24   
  band:
  - # 1
    frequency:    16.7595355591
  - # 2
    frequency:    16.7707750574
  - # 3
    frequency:    17.3122523584
  - # 4
    frequency:    17.3242084538
  - # 5
    frequency:    24.2688841434
  - # 6
    frequency:    25.1285676557
  - # 7
    frequency:    28.5513290427
  - # 8
    frequency:    28.5513290427
  - # 9
    frequency:    29.0770668386
  - # 10
    frequency:    29.0770668386
  - # 11
    frequency:    33.1135979159
  - # 12
    frequency:    33.1135979159
  - # 13
    frequency:    33.2581598947
  - # 14
    frequency:    33.2581598947
  - # 15
    frequency:    39.7114475482
  - # 16
    frequency:    39.7114475482
  - # 17
    frequency:    39.8983566530
  - # 18
    frequency:    39.8983566530
  - # 19
    frequency:    40.4131569890
  - # 20
    frequency:    40.4142104523
  - # 21
    frequency:    40.6074990328
  - # 22
    frequency:    40.6084821797
  - # 23
    frequency:    43.7149123920
  - # 24
    frequency:    43.7343804433

- q-position: [    0.0312500,    0.0312500,    0.0104167 ]
  distance_from_gamma:  0.013186129
  weight: 24   
  band:
  - # 1
    frequency:     1.5204580071
  - # 2
    frequency:     1.6907401234
  - # 3
    frequency:     2.5887414801
  - # 4
    frequency:    23.9147932817
  - # 5
    frequency:    23.9147932817
  - # 6
    frequency:    23.9193364371
  - # 7
    frequency:    23.9652381893
  - # 8
    frequency:    23.9652381893
  - # 9
    frequency:    24.0702084820
  - # 10
    frequency:    37.2698325317
  - # 11
    frequency:    37.3416854552
  - # 12
    frequency:    37.3416854552
  - # 13
    frequency:    37.3955428562
  - # 14
    frequency:    37.3955428562
  - # 15
    frequency:    37.3982570920
  - # 16
    frequency:    38.9667186959
  - # 17
    frequency:    38.9667186959
  - # 18
    frequency:    39.3325920683
  - # 19
    frequency:    39.7298205807
  - # 20
    frequency:    40.0593400208
  - # 21
    frequency:    40.0593400208
  - # 22
    frequency:    43.2907839326
  - # 23
    frequency:    43.2973861715
  - # 24
    frequency:    43.3169206596

- q-position: [    0.0520833,    0.0312500,    0.0104167 ]
  distance_from_gamma:  0.017896765
  weight: 48   
  band:
  - # 1
    frequency:     2.1094854530
  - # 2
    frequency:     2.3128600634
  - # 3
    frequency:     3.4691271177
  - # 4
    frequency:    23.8657334284
  - # 5
    frequency:    23.9162716483
  - # 6
    frequency:    23.9297811483
  - # 7
    frequency:    23.9587029776
  - # 8
    frequency:    24.0425433866
  - # 9
    frequency:    24.1802140696
  - # 10
    frequency:    37.1809803145
  - # 11
    frequency:    37.2588757613
  - # 12
    frequency:    37.3467821880
  - # 13
    frequency:    37.3606688653
  - # 14
    frequency:    37.3877081606
  - # 15
    frequency:    37.4242538764
  - # 16
    frequency:    38.5806276034
  - # 17
    frequency:    39.0043942476
  - # 18
    frequency:    39.3155064710
  - # 19
    frequency:    39.7596701868
  - # 20
    frequency:    40.0529409295
  - # 21
    frequency:    40.3902467625
  - # 22
    frequency:    43.2684155786
  - # 23
    frequency:    43.2776664549
  - # 24
    frequency:    43.3219407084

- q-position: [    0.0729167,    0.0312500,    0.0104167 ]
  distance_from_gamma:  0.023236275
  weight: 48   
  band: