       N       E                     dE             d eps       ncg     rms          rms(c)
DAV:   1     0.529052437610E+03    0.52905E+03   -0.11557E+05  7680   0.107E+03
DAV:   2    -0.563497165417E+03   -0.10925E+04   -0.10445E+04 10112   0.239E+02
DAV:   3    -0.602701325137E+03   -0.39204E+02   -0.38992E+02 10144   0.422E+01
DAV:   4    -0.603056756545E+03   -0.35543E+00   -0.35475E+00  9984   0.450E+00
DAV:   5    -0.603063452666E+03   -0.66961E-02   -0.66935E-02  9600   0.558E-01    0.305E+01
DAV:   6    -0.582451468037E+03    0.20612E+02   -0.13305E+01  8960   0.761E+00    0.165E+01
DAV:   7    -0.575519915177E+03    0.69316E+01   -0.14748E+01  9312   0.825E+00    0.204E+00
DAV:   8    -0.575592249836E+03   -0.72335E-01   -0.31521E-01  9376   0.115E+00    0.236E-01
DAV:   9    -0.575594260058E+03   -0.20102E-02   -0.35385E-03  9888   0.148E-01    0.846E-02
DAV:  10    -0.575594660407E+03   -0.40035E-03   -0.31889E-04  9184   0.491E-02    0.846E-03
DAV:  11    -0.575594667580E+03   -0.71734E-05   -0.96769E-06  9920   0.776E-03    0.194E-03
DAV:  12    -0.575594667141E+03    0.43918E-06   -0.19502E-07  9568   0.119E-03    0.284E-04
DAV:  13    -0.575594667139E+03    0.20991E-08   -0.49895E-09  7392   0.181E-04
   1 F= -.57559467E+03 E0= -.57559467E+03  d E =-.300697E-14
 Linear response reoptimize wavefunctions
DAV:   1    -0.575594667171E+03   -0.31763E-07   -0.53012E-10  5792   0.650E-05
DAV:   2    -0.575594667171E+03   -0.37744E-09   -0.44182E-11  5760   0.186E-05
DAV:   3    -0.575594667171E+03    0.35652E-09   -0.10592E-12  5760   0.740E-06
 Linear response DOF=           1
 Linear response progress:
  Degree of freedom:   1/  1
       N       E                     dE             d eps       ncg     rms          rms(c)
RMM:   1    -0.153828017960E+00   -0.15383E+00    0.46737E-03 56801   0.767E-01
RMM:   2    -0.128712052885E+00    0.25116E-01   -0.72080E-03 33481   0.192E-01    0.212E-01
RMM:   3    -0.128379932400E+00    0.33212E-03   -0.13317E-03 35043   0.610E-02    0.105E-01
RMM:   4    -0.128742924216E+00   -0.36299E-03   -0.38089E-04 35227   0.340E-02    0.303E-02
RMM:   5    -0.128862341394E+00   -0.11942E-03   -0.23942E-05 35926   0.914E-03    0.709E-03
RMM:   6    -0.128848204723E+00    0.14137E-04   -0.10214E-06 36275   0.209E-03    0.145E-03
RMM:   7    -0.128840006014E+00    0.81987E-05   -0.10795E-07 36828   0.579E-04    0.418E-04
RMM:   8    -0.128839456763E+00    0.54925E-06   -0.60250E-08 37314   0.228E-04    0.854E-05
RMM:   9    -0.128839179655E+00    0.27711E-06   -0.42465E-08 37982   0.110E-04    0.359E-05
RMM:  10    -0.128839231823E+00   -0.52167E-07   -0.92806E-08 38768   0.101E-04    0.951E-06
RMM:  11    -0.128839226395E+00    0.54278E-08   -0.42822E-08 39424   0.968E-05    0.395E-06
 Linear response finished
