 vasp.5.4.4.18Apr17-6-g9f103f2a35 (build Mar 12 2022 03:36:41) complex          
  
 executed on IFC19.0.3.199_CrayMP date 2022.12.02  00:59:01
 running on   32 total cores
 distrk:  each k-point on   32 cores,    1 groups
 distr:  one band on NCORES_PER_BAND=   1 cores,   32 groups


--------------------------------------------------------------------------------------------------------


 INCAR:
 POTCAR:   PAW_PBE C 08Apr2002                    

 ----------------------------------------------------------------------------- 
|                                                                             |
|           W    W    AA    RRRRR   N    N  II  N    N   GGGG   !!!           |
|           W    W   A  A   R    R  NN   N  II  NN   N  G    G  !!!           |
|           W    W  A    A  R    R  N N  N  II  N N  N  G       !!!           |
|           W WW W  AAAAAA  RRRRR   N  N N  II  N  N N  G  GGG   !            |
|           WW  WW  A    A  R   R   N   NN  II  N   NN  G    G                |
|           W    W  A    A  R    R  N    N  II  N    N   GGGG   !!!           |
|                                                                             |
|      For optimal performance we recommend to set                            |
|        NCORE= 4 - approx SQRT( number of cores)                             |
|      NCORE specifies how many cores store one orbital (NPAR=cpu/NCORE).     |
|      This setting can  greatly improve the performance of VASP for DFT.     |
|      The default,   NCORE=1            might be grossly inefficient         |
|      on modern multi-core architectures or massively parallel machines.     |
|      Do your own testing !!!!                                               |
|      Unfortunately you need to use the default for GW and RPA calculations. |
|      (for HF NCORE is supported but not extensively tested yet)             |
|                                                                             |
 ----------------------------------------------------------------------------- 

 POTCAR:   PAW_PBE C 08Apr2002                    
   VRHFIN =C: s2p2                                                              
   LEXCH  = PE                                                                  
   EATOM  =   147.1560 eV,   10.8157 Ry                                         
                                                                                
   TITEL  = PAW_PBE C 08Apr2002                                                 
   LULTRA =        F    use ultrasoft PP ?                                      
   IUNSCR =        0    unscreen: 0-lin 1-nonlin 2-no                           
   RPACOR =     .000    partial core radius                                     
   POMASS =   12.011; ZVAL   =    4.000    mass and valenz                      
   RCORE  =    1.500    outmost cutoff radius                                   
   RWIGS  =    1.630; RWIGS  =     .863    wigner-seitz radius (au A)           
   ENMAX  =  400.000; ENMIN  =  300.000 eV                                      
   ICORE  =        2    local potential                                         
   LCOR   =        T    correct aug charges                                     
   LPAW   =        T    paw PP                                                  
   EAUG   =  644.873                                                            
   DEXC   =     .000                                                            
   RMAX   =    2.266    core radius for proj-oper                               
   RAUG   =    1.300    factor for augmentation sphere                          
   RDEP   =    1.501    radius for radial grids                                 
   RDEPT  =    1.300    core radius for aug-charge                              
   QCUT   =   -5.516; QGAM   =   11.032    optimization parameters              
                                                                                
   Description                                                                  
     l     E      TYP  RCUT    TYP  RCUT                                        
     0   .000     23  1.200                                                     
     0   .000     23  1.200                                                     
     1   .000     23  1.500                                                     
     1  2.500     23  1.500                                                     
     2   .000      7  1.500                                                     
  local pseudopotential read in
  atomic valenz-charges read in
  non local Contribution for L=           0  read in
    real space projection operators read in
  non local Contribution for L=           0  read in
    real space projection operators read in
  non local Contribution for L=           1  read in
    real space projection operators read in
  non local Contribution for L=           1  read in
    real space projection operators read in
    PAW grid and wavefunctions read in
 
   number of l-projection  operators is LMAX  =           4
   number of lm-projection operators is LMMAX =           8
 

 ----------------------------------------------------------------------------- 
|                                                                             |
|  ADVICE TO THIS USER RUNNING 'VASP/VAMP'   (HEAR YOUR MASTER'S VOICE ...):  |
|                                                                             |
|      You have a (more or less) 'large supercell' and for larger cells       |
|      it might be more efficient to use real space projection operators      |
|      So try LREAL= Auto  in the INCAR   file.                               |
|      Mind: If you want to do a very accurate calculations keep the          |
|      reciprocal projection scheme          (i.e. LREAL=.FALSE.)             |
|                                                                             |
 ----------------------------------------------------------------------------- 

 PAW_PBE C 08Apr2002                    :
 energy of atom  1       EATOM= -147.1560
 kinetic energy error for atom=    0.0288 (will be added to EATOM!!)
 
 
 POSCAR: generated by phonopy                    
  positions in direct lattice
  No initial velocities read in
 exchange correlation table for  LEXCH =        8
   RHO(1)=    0.500       N(1)  =     2000
   RHO(2)=  100.500       N(2)  =     4000
 


--------------------------------------------------------------------------------------------------------


 ion  position               nearest neighbor table
   1  0.125  0.375  0.125-  11 1.49  25 1.49  43 1.49  57 1.49
   2  0.625  0.375  0.125-  12 1.49  26 1.49  44 1.49  58 1.49
   3  0.125  0.875  0.125-   9 1.49  27 1.49  41 1.49  59 1.49
   4  0.625  0.875  0.125-  10 1.49  28 1.49  42 1.49  60 1.49
   5  0.125  0.375  0.625-  15 1.49  29 1.49  47 1.49  61 1.49
   6  0.625  0.375  0.625-  16 1.49  30 1.49  48 1.49  62 1.49
   7  0.125  0.875  0.625-  13 1.49  31 1.49  45 1.49  63 1.49
   8  0.625  0.875  0.625-  14 1.49  32 1.49  46 1.49  64 1.49
   9  0.000  0.000  0.250-   3 1.49  17 1.49  36 1.49  50 1.49
  10  0.500  0.000  0.250-   4 1.49  18 1.49  35 1.49  49 1.49
  11  0.000  0.500  0.250-   1 1.49  19 1.49  34 1.49  52 1.49
  12  0.500  0.500  0.250-   2 1.49  20 1.49  33 1.49  51 1.49
  13  0.000  0.000  0.750-   7 1.49  21 1.49  40 1.49  54 1.49
  14  0.500  0.000  0.750-   8 1.49  22 1.49  39 1.49  53 1.49
  15  0.000  0.500  0.750-   5 1.49  23 1.49  38 1.49  56 1.49
  16  0.500  0.500  0.750-   6 1.49  24 1.49  37 1.49  55 1.49
  17  0.125  0.125  0.375-   9 1.49  29 1.49  45 1.49  57 1.49
  18  0.625  0.125  0.375-  10 1.49  30 1.49  46 1.49  58 1.49
  19  0.125  0.625  0.375-  11 1.49  31 1.49  47 1.49  59 1.49
  20  0.625  0.625  0.375-  12 1.49  32 1.49  48 1.49  60 1.49
  21  0.125  0.125  0.875-  13 1.49  25 1.49  41 1.49  61 1.49
  22  0.625  0.125  0.875-  14 1.49  26 1.49  42 1.49  62 1.49
  23  0.125  0.625  0.875-  15 1.49  27 1.49  43 1.49  63 1.49
  24  0.625  0.625  0.875-  16 1.49  28 1.49  44 1.49  64 1.49
  25  0.000  0.250  0.000-   1 1.49  21 1.49  38 1.49  50 1.49
  26  0.500  0.250  0.000-   2 1.49  22 1.49  37 1.49  49 1.49
  27  0.000  0.750  0.000-   3 1.49  23 1.49  40 1.49  52 1.49
  28  0.500  0.750  0.000-   4 1.49  24 1.49  39 1.49  51 1.49
  29  0.000  0.250  0.500-   5 1.49  17 1.49  34 1.49  54 1.49
  30  0.500  0.250  0.500-   6 1.49  18 1.49  33 1.49  53 1.49
  31  0.000  0.750  0.500-   7 1.49  19 1.49  36 1.49  56 1.49
  32  0.500  0.750  0.500-   8 1.49  20 1.49  35 1.49  55 1.49
  33  0.375  0.375  0.375-  12 1.49  30 1.49  47 1.49  57 1.49
  34  0.875  0.375  0.375-  11 1.49  29 1.49  48 1.49  58 1.49
  35  0.375  0.875  0.375-  10 1.49  32 1.49  45 1.49  59 1.49
  36  0.875  0.875  0.375-   9 1.49  31 1.49  46 1.49  60 1.49
  37  0.375  0.375  0.875-  16 1.49  26 1.49  43 1.49  61 1.49
  38  0.875  0.375  0.875-  15 1.49  25 1.49  44 1.49  62 1.49
  39  0.375  0.875  0.875-  14 1.49  28 1.49  41 1.49  63 1.49
  40  0.875  0.875  0.875-  13 1.49  27 1.49  42 1.49  64 1.49
  41  0.250  0.000  0.000-   3 1.49  21 1.49  39 1.49  49 1.49
  42  0.750  0.000  0.000-   4 1.49  22 1.49  40 1.49  50 1.49
  43  0.250  0.500  0.000-   1 1.49  23 1.49  37 1.49  51 1.49
  44  0.750  0.500  0.000-   2 1.49  24 1.49  38 1.49  52 1.49
  45  0.250  0.000  0.500-   7 1.49  17 1.49  35 1.49  53 1.49
  46  0.750  0.000  0.500-   8 1.49  18 1.49  36 1.49  54 1.49
  47  0.250  0.500  0.500-   5 1.49  19 1.49  33 1.49  55 1.49
  48  0.750  0.500  0.500-   6 1.49  20 1.49  34 1.49  56 1.49
  49  0.375  0.125  0.125-  10 1.49  26 1.49  41 1.49  57 1.49
  50  0.875  0.125  0.125-   9 1.49  25 1.49  42 1.49  58 1.49
  51  0.375  0.625  0.125-  12 1.49  28 1.49  43 1.49  59 1.49
  52  0.875  0.625  0.125-  11 1.49  27 1.49  44 1.49  60 1.49
  53  0.375  0.125  0.625-  14 1.49  30 1.49  45 1.49  61 1.49
  54  0.875  0.125  0.625-  13 1.49  29 1.49  46 1.49  62 1.49
  55  0.375  0.625  0.625-  16 1.49  32 1.49  47 1.49  63 1.49
  56  0.875  0.625  0.625-  15 1.49  31 1.49  48 1.49  64 1.49
  57  0.250  0.250  0.250-   1 1.49  17 1.49  33 1.49  49 1.49
  58  0.750  0.250  0.250-   2 1.49  18 1.49  34 1.49  50 1.49
  59  0.250  0.750  0.250-   3 1.49  19 1.49  35 1.49  51 1.49
  60  0.750  0.750  0.250-   4 1.49  20 1.49  36 1.49  52 1.49
  61  0.250  0.250  0.750-   5 1.49  21 1.49  37 1.49  53 1.49
  62  0.750  0.250  0.750-   6 1.49  22 1.49  38 1.49  54 1.49
  63  0.250  0.750  0.750-   7 1.49  23 1.49  39 1.49  55 1.49
  64  0.750  0.750  0.750-   8 1.49  24 1.49  40 1.49  56 1.49
 
  LATTYP: Found a simple cubic cell.
 ALAT       =     6.8868124065
  
  Lattice vectors:
  
 A1 = (   6.8868124065,   0.0000000000,   0.0000000000)
 A2 = (   0.0000000000,   6.8868124065,   0.0000000000)
 A3 = (   0.0000000000,   0.0000000000,   6.8868124065)


Analysis of symmetry for initial positions (statically):
=====================================================================
 Subroutine PRICEL returns following result:
 
  LATTYP: Found a face centered cubic cell.
 ALAT       =     3.4434062033
  
  Lattice vectors:
  
 A1 = (   1.7217031016,   1.7217031016,   0.0000000000)
 A2 = (   1.7217031016,   0.0000000000,  -1.7217031016)
 A3 = (   0.0000000000,   1.7217031016,  -1.7217031016)
 
  32 primitive cells build up your supercell.
 

 Routine SETGRP: Setting up the symmetry group for a 
 simple cubic supercell.


 Subroutine GETGRP returns: Found 48 space group operations
 (whereof 24 operations were pure point group operations)
 out of a pool of 48 trial point group operations.


The static configuration has the point symmetry T_d .
 The point group associated with its full space group is O_h .


Analysis of symmetry for dynamics (positions and initial velocities):
=====================================================================
 Subroutine PRICEL returns following result:
 
  LATTYP: Found a face centered cubic cell.
 ALAT       =     3.4434062033
  
  Lattice vectors:
  
 A1 = (   1.7217031016,   1.7217031016,   0.0000000000)
 A2 = (   1.7217031016,   0.0000000000,  -1.7217031016)
 A3 = (   0.0000000000,   1.7217031016,  -1.7217031016)
 
  32 primitive cells build up your supercell.
 

 Routine SETGRP: Setting up the symmetry group for a 
 simple cubic supercell.


 Subroutine GETGRP returns: Found 48 space group operations
 (whereof 24 operations were pure point group operations)
 out of a pool of 48 trial point group operations.


The dynamic configuration has the point symmetry T_d .
 The point group associated with its full space group is O_h .


 Subroutine INISYM returns: Found 48 space group operations
 (whereof 24 operations are pure point group operations),
 and found    32 'primitive' translations

 
 
 KPOINTS: kpt_density=3000                        

Automatic generation of k-mesh.
Space group operators:
 irot       det(A)        alpha          n_x          n_y          n_z        tau_x        tau_y        tau_z
    1     1.000000     0.000000     1.000000     0.000000     0.000000     0.000000     0.000000     0.000000
    2     1.000000   120.000000    -0.577350    -0.577350    -0.577350     0.000000     0.000000     0.000000
    3     1.000000   120.000000     0.577350     0.577350     0.577350     0.000000     0.000000     0.000000
    4    -1.000000    90.000000     0.000000     0.000000    -1.000000     0.000000     0.000000     0.000000
    5    -1.000000   180.000000     0.000000     0.707107     0.707107     0.000000     0.000000     0.000000
    6    -1.000000    90.000000     0.000000     1.000000     0.000000     0.000000     0.000000     0.000000
    7     1.000000   180.000000     0.000000     0.000000     1.000000     0.000000     0.000000     0.000000
    8     1.000000   120.000000    -0.577350     0.577350     0.577350     0.000000     0.000000     0.000000
    9     1.000000   120.000000    -0.577350     0.577350    -0.577350     0.000000     0.000000     0.000000
   10    -1.000000    90.000000     0.000000     0.000000     1.000000     0.000000     0.000000     0.000000
   11    -1.000000    90.000000    -1.000000     0.000000     0.000000     0.000000     0.000000     0.000000
   12    -1.000000   180.000000     0.707107     0.000000     0.707107     0.000000     0.000000     0.000000
   13     1.000000   120.000000     0.577350    -0.577350     0.577350     0.000000     0.000000     0.000000
   14     1.000000   120.000000    -0.577350    -0.577350     0.577350     0.000000     0.000000     0.000000
   15     1.000000   180.000000     1.000000     0.000000     0.000000     0.000000     0.000000     0.000000
   16    -1.000000    90.000000     0.000000    -1.000000     0.000000     0.000000     0.000000     0.000000
   17    -1.000000   180.000000     0.707107     0.707107     0.000000     0.000000     0.000000     0.000000
   18    -1.000000    90.000000     1.000000     0.000000     0.000000     0.000000     0.000000     0.000000
   19     1.000000   120.000000     0.577350    -0.577350    -0.577350     0.000000     0.000000     0.000000
   20     1.000000   180.000000     0.000000     1.000000     0.000000     0.000000     0.000000     0.000000
   21     1.000000   120.000000     0.577350     0.577350    -0.577350     0.000000     0.000000     0.000000
   22    -1.000000   180.000000     0.000000    -0.707107     0.707107     0.000000     0.000000     0.000000
   23    -1.000000   180.000000     0.707107    -0.707107     0.000000     0.000000     0.000000     0.000000
   24    -1.000000   180.000000     0.707107     0.000000    -0.707107     0.000000     0.000000     0.000000
   25    -1.000000     0.000000     1.000000     0.000000     0.000000     0.375000     0.375000    -0.375000
   26    -1.000000   120.000000    -0.577350    -0.577350    -0.577350     0.375000     0.375000    -0.375000
   27    -1.000000   120.000000     0.577350     0.577350     0.577350     0.375000     0.375000    -0.375000
   28     1.000000    90.000000     0.000000     0.000000    -1.000000     0.375000     0.375000    -0.375000
   29     1.000000   180.000000     0.000000     0.707107     0.707107     0.375000     0.375000    -0.375000
   30     1.000000    90.000000     0.000000     1.000000     0.000000     0.375000     0.375000    -0.375000
   31    -1.000000   180.000000     0.000000     0.000000     1.000000     0.375000     0.375000    -0.375000
   32    -1.000000   120.000000    -0.577350     0.577350     0.577350     0.375000     0.375000    -0.375000
   33    -1.000000   120.000000    -0.577350     0.577350    -0.577350     0.375000     0.375000    -0.375000
   34     1.000000    90.000000     0.000000     0.000000     1.000000     0.375000     0.375000    -0.375000
   35     1.000000    90.000000    -1.000000     0.000000     0.000000     0.375000     0.375000    -0.375000
   36     1.000000   180.000000     0.707107     0.000000     0.707107     0.375000     0.375000    -0.375000
   37    -1.000000   120.000000     0.577350    -0.577350     0.577350     0.375000     0.375000    -0.375000
   38    -1.000000   120.000000    -0.577350    -0.577350     0.577350     0.375000     0.375000    -0.375000
   39    -1.000000   180.000000     1.000000     0.000000     0.000000     0.375000     0.375000    -0.375000
   40     1.000000    90.000000     0.000000    -1.000000     0.000000     0.375000     0.375000    -0.375000
   41     1.000000   180.000000     0.707107     0.707107     0.000000     0.375000     0.375000    -0.375000
   42     1.000000    90.000000     1.000000     0.000000     0.000000     0.375000     0.375000    -0.375000
   43    -1.000000   120.000000     0.577350    -0.577350    -0.577350     0.375000     0.375000    -0.375000
   44    -1.000000   180.000000     0.000000     1.000000     0.000000     0.375000     0.375000    -0.375000
   45    -1.000000   120.000000     0.577350     0.577350    -0.577350     0.375000     0.375000    -0.375000
   46     1.000000   180.000000     0.000000    -0.707107     0.707107     0.375000     0.375000    -0.375000
   47     1.000000   180.000000     0.707107    -0.707107     0.000000     0.375000     0.375000    -0.375000
   48     1.000000   180.000000     0.707107     0.000000    -0.707107     0.375000     0.375000    -0.375000
 
 Subroutine IBZKPT returns following result:
 ===========================================
 
 Found     20 irreducible k-points:
 
 Following reciprocal coordinates:
            Coordinates               Weight
  0.000000  0.000000  0.000000      1.000000
  0.166667  0.000000  0.000000      6.000000
  0.333333  0.000000  0.000000      6.000000
  0.500000  0.000000  0.000000      3.000000
  0.166667  0.166667  0.000000     12.000000
  0.333333  0.166667  0.000000     24.000000
  0.500000  0.166667  0.000000     12.000000
  0.333333  0.333333  0.000000     12.000000
  0.500000  0.333333  0.000000     12.000000
  0.500000  0.500000  0.000000      3.000000
  0.166667  0.166667  0.166667      8.000000
  0.333333  0.166667  0.166667     24.000000
  0.500000  0.166667  0.166667     12.000000
  0.333333  0.333333  0.166667     24.000000
  0.500000  0.333333  0.166667     24.000000
  0.500000  0.500000  0.166667      6.000000
  0.333333  0.333333  0.333333      8.000000
  0.500000  0.333333  0.333333     12.000000
  0.500000  0.500000  0.333333      6.000000
  0.500000  0.500000  0.500000      1.000000
 
 Following cartesian coordinates:
            Coordinates               Weight
  0.000000  0.000000  0.000000      1.000000
  0.024201  0.000000  0.000000      6.000000
  0.048402  0.000000  0.000000      6.000000
  0.072603  0.000000  0.000000      3.000000
  0.024201  0.024201  0.000000     12.000000
  0.048402  0.024201  0.000000     24.000000
  0.072603  0.024201  0.000000     12.000000
  0.048402  0.048402  0.000000     12.000000
  0.072603  0.048402  0.000000     12.000000
  0.072603  0.072603  0.000000      3.000000
  0.024201  0.024201  0.024201      8.000000
  0.048402  0.024201  0.024201     24.000000
  0.072603  0.024201  0.024201     12.000000
  0.048402  0.048402  0.024201     24.000000
  0.072603  0.048402  0.024201     24.000000
  0.072603  0.072603  0.024201      6.000000
  0.048402  0.048402  0.048402      8.000000
  0.072603  0.048402  0.048402     12.000000
  0.072603  0.072603  0.048402      6.000000
  0.072603  0.072603  0.072603      1.000000
 
 
 Subroutine IBZKPT_HF returns following result:
 ==============================================
 
 Found    216 k-points in 1st BZ
 the following    216 k-points will be used (e.g. in the exchange kernel)
 Following reciprocal coordinates:   # in IRBZ
  0.000000  0.000000  0.000000    0.00462963   1 t-inv F
  0.166667  0.000000  0.000000    0.00462963   2 t-inv F
  0.333333  0.000000  0.000000    0.00462963   3 t-inv F
  0.500000  0.000000  0.000000    0.00462963   4 t-inv F
  0.166667  0.166667  0.000000    0.00462963   5 t-inv F
  0.333333  0.166667  0.000000    0.00462963   6 t-inv F
  0.500000  0.166667  0.000000    0.00462963   7 t-inv F
  0.333333  0.333333  0.000000    0.00462963   8 t-inv F
  0.500000  0.333333  0.000000    0.00462963   9 t-inv F
  0.500000  0.500000  0.000000    0.00462963  10 t-inv F
  0.166667  0.166667  0.166667    0.00462963  11 t-inv F
  0.333333  0.166667  0.166667    0.00462963  12 t-inv F
  0.500000  0.166667  0.166667    0.00462963  13 t-inv F
  0.333333  0.333333  0.166667    0.00462963  14 t-inv F
  0.500000  0.333333  0.166667    0.00462963  15 t-inv F
  0.500000  0.500000  0.166667    0.00462963  16 t-inv F
  0.333333  0.333333  0.333333    0.00462963  17 t-inv F
  0.500000  0.333333  0.333333    0.00462963  18 t-inv F
  0.500000  0.500000  0.333333    0.00462963  19 t-inv F
  0.500000  0.500000  0.500000    0.00462963  20 t-inv F
  0.000000  0.166667  0.000000    0.00462963   2 t-inv F
  0.000000  0.000000  0.166667    0.00462963   2 t-inv F
  0.000000 -0.166667  0.000000    0.00462963   2 t-inv F
  0.000000  0.000000 -0.166667    0.00462963   2 t-inv F
 -0.166667  0.000000  0.000000    0.00462963   2 t-inv F
  0.000000  0.333333  0.000000    0.00462963   3 t-inv F
  0.000000  0.000000  0.333333    0.00462963   3 t-inv F
  0.000000 -0.333333  0.000000    0.00462963   3 t-inv F
  0.000000  0.000000 -0.333333    0.00462963   3 t-inv F
 -0.333333  0.000000  0.000000    0.00462963   3 t-inv F
  0.000000  0.500000  0.000000    0.00462963   4 t-inv F
  0.000000  0.000000  0.500000    0.00462963   4 t-inv F
  0.000000  0.166667  0.166667    0.00462963   5 t-inv F
  0.166667  0.000000  0.166667    0.00462963   5 t-inv F
  0.166667 -0.166667  0.000000    0.00462963   5 t-inv F
  0.166667  0.000000 -0.166667    0.00462963   5 t-inv F
  0.000000 -0.166667 -0.166667    0.00462963   5 t-inv F
 -0.166667 -0.166667  0.000000    0.00462963   5 t-inv F
  0.000000 -0.166667  0.166667    0.00462963   5 t-inv F
 -0.166667  0.000000  0.166667    0.00462963   5 t-inv F
 -0.166667  0.166667  0.000000    0.00462963   5 t-inv F
 -0.166667  0.000000 -0.166667    0.00462963   5 t-inv F
  0.000000  0.166667 -0.166667    0.00462963   5 t-inv F
  0.000000  0.333333  0.166667    0.00462963   6 t-inv F
  0.166667  0.000000  0.333333    0.00462963   6 t-inv F
  0.166667 -0.333333  0.000000    0.00462963   6 t-inv F
  0.333333  0.000000 -0.166667    0.00462963   6 t-inv F
  0.000000 -0.166667 -0.333333    0.00462963   6 t-inv F
 -0.333333 -0.166667  0.000000    0.00462963   6 t-inv F
  0.000000 -0.333333  0.166667    0.00462963   6 t-inv F
 -0.166667  0.000000  0.333333    0.00462963   6 t-inv F
 -0.166667  0.333333  0.000000    0.00462963   6 t-inv F
 -0.333333  0.000000 -0.166667    0.00462963   6 t-inv F
  0.000000  0.166667 -0.333333    0.00462963   6 t-inv F
  0.000000 -0.333333 -0.166667    0.00462963   6 t-inv F
  0.166667  0.000000 -0.333333    0.00462963   6 t-inv F
  0.333333 -0.166667  0.000000    0.00462963   6 t-inv F
  0.000000 -0.166667  0.333333    0.00462963   6 t-inv F
 -0.166667 -0.333333  0.000000    0.00462963   6 t-inv F
 -0.333333  0.000000  0.166667    0.00462963   6 t-inv F
 -0.166667  0.000000 -0.333333    0.00462963   6 t-inv F
 -0.333333  0.166667  0.000000    0.00462963   6 t-inv F
  0.000000  0.333333 -0.166667    0.00462963   6 t-inv F
  0.333333  0.000000  0.166667    0.00462963   6 t-inv F
  0.166667  0.333333  0.000000    0.00462963   6 t-inv F
  0.000000  0.166667  0.333333    0.00462963   6 t-inv F
  0.000000  0.500000  0.166667    0.00462963   7 t-inv F
  0.166667  0.000000  0.500000    0.00462963   7 t-inv F
  0.166667 -0.500000  0.000000    0.00462963   7 t-inv F
  0.500000  0.000000 -0.166667    0.00462963   7 t-inv F
  0.000000 -0.166667 -0.500000    0.00462963   7 t-inv F
 -0.500000 -0.166667  0.000000    0.00462963   7 t-inv F
 -0.166667  0.000000  0.500000    0.00462963   7 t-inv F
 -0.166667  0.500000  0.000000    0.00462963   7 t-inv F
  0.000000  0.166667 -0.500000    0.00462963   7 t-inv F
  0.000000 -0.500000 -0.166667    0.00462963   7 t-inv F
 -0.500000  0.000000  0.166667    0.00462963   7 t-inv F
  0.000000  0.333333  0.333333    0.00462963   8 t-inv F
  0.333333  0.000000  0.333333    0.00462963   8 t-inv F
  0.333333 -0.333333  0.000000    0.00462963   8 t-inv F
  0.333333  0.000000 -0.333333    0.00462963   8 t-inv F
  0.000000 -0.333333 -0.333333    0.00462963   8 t-inv F
 -0.333333 -0.333333  0.000000    0.00462963   8 t-inv F
  0.000000 -0.333333  0.333333    0.00462963   8 t-inv F
 -0.333333  0.000000  0.333333    0.00462963   8 t-inv F
 -0.333333  0.333333  0.000000    0.00462963   8 t-inv F
 -0.333333  0.000000 -0.333333    0.00462963   8 t-inv F
  0.000000  0.333333 -0.333333    0.00462963   8 t-inv F
  0.000000  0.500000  0.333333    0.00462963   9 t-inv F
  0.333333  0.000000  0.500000    0.00462963   9 t-inv F
  0.333333 -0.500000  0.000000    0.00462963   9 t-inv F
  0.500000  0.000000 -0.333333    0.00462963   9 t-inv F
  0.000000 -0.333333 -0.500000    0.00462963   9 t-inv F
 -0.500000 -0.333333  0.000000    0.00462963   9 t-inv F
 -0.333333  0.000000  0.500000    0.00462963   9 t-inv F
 -0.333333  0.500000  0.000000    0.00462963   9 t-inv F
  0.000000  0.333333 -0.500000    0.00462963   9 t-inv F
  0.000000 -0.500000 -0.333333    0.00462963   9 t-inv F
 -0.500000  0.000000  0.333333    0.00462963   9 t-inv F
  0.000000  0.500000  0.500000    0.00462963  10 t-inv F
  0.500000  0.000000  0.500000    0.00462963  10 t-inv F
  0.166667 -0.166667 -0.166667    0.00462963  11 t-inv F
 -0.166667 -0.166667  0.166667    0.00462963  11 t-inv F
 -0.166667  0.166667 -0.166667    0.00462963  11 t-inv F
 -0.166667 -0.166667 -0.166667    0.00462963  11 t-inv F
 -0.166667  0.166667  0.166667    0.00462963  11 t-inv F
  0.166667  0.166667 -0.166667    0.00462963  11 t-inv F
  0.166667 -0.166667  0.166667    0.00462963  11 t-inv F
  0.166667  0.333333  0.166667    0.00462963  12 t-inv F
  0.166667  0.166667  0.333333    0.00462963  12 t-inv F
  0.166667 -0.333333 -0.166667    0.00462963  12 t-inv F
  0.333333 -0.166667 -0.166667    0.00462963  12 t-inv F
  0.166667 -0.166667 -0.333333    0.00462963  12 t-inv F
 -0.333333 -0.166667  0.166667    0.00462963  12 t-inv F
 -0.166667 -0.333333  0.166667    0.00462963  12 t-inv F
 -0.166667 -0.166667  0.333333    0.00462963  12 t-inv F
 -0.166667  0.333333 -0.166667    0.00462963  12 t-inv F
 -0.333333  0.166667 -0.166667    0.00462963  12 t-inv F
 -0.166667  0.166667 -0.333333    0.00462963  12 t-inv F
 -0.333333 -0.166667 -0.166667    0.00462963  12 t-inv F
 -0.166667 -0.333333 -0.166667    0.00462963  12 t-inv F
 -0.166667 -0.166667 -0.333333    0.00462963  12 t-inv F
 -0.166667  0.333333  0.166667    0.00462963  12 t-inv F
 -0.333333  0.166667  0.166667    0.00462963  12 t-inv F
 -0.166667  0.166667  0.333333    0.00462963  12 t-inv F
  0.333333  0.166667 -0.166667    0.00462963  12 t-inv F
  0.166667  0.333333 -0.166667    0.00462963  12 t-inv F
  0.166667  0.166667 -0.333333    0.00462963  12 t-inv F
  0.166667 -0.333333  0.166667    0.00462963  12 t-inv F
  0.333333 -0.166667  0.166667    0.00462963  12 t-inv F
  0.166667 -0.166667  0.333333    0.00462963  12 t-inv F
  0.166667  0.500000  0.166667    0.00462963  13 t-inv F
  0.166667  0.166667  0.500000    0.00462963  13 t-inv F
  0.166667 -0.500000 -0.166667    0.00462963  13 t-inv F
  0.500000 -0.166667 -0.166667    0.00462963  13 t-inv F
  0.166667 -0.166667 -0.500000    0.00462963  13 t-inv F
 -0.500000 -0.166667  0.166667    0.00462963  13 t-inv F
 -0.166667 -0.500000  0.166667    0.00462963  13 t-inv F
 -0.166667 -0.166667  0.500000    0.00462963  13 t-inv F
 -0.166667  0.500000 -0.166667    0.00462963  13 t-inv F
 -0.500000  0.166667 -0.166667    0.00462963  13 t-inv F
 -0.166667  0.166667 -0.500000    0.00462963  13 t-inv F
  0.166667  0.333333  0.333333    0.00462963  14 t-inv F
  0.333333  0.166667  0.333333    0.00462963  14 t-inv F
  0.333333 -0.333333 -0.166667    0.00462963  14 t-inv F
  0.333333 -0.166667 -0.333333    0.00462963  14 t-inv F
  0.166667 -0.333333 -0.333333    0.00462963  14 t-inv F
 -0.333333 -0.333333  0.166667    0.00462963  14 t-inv F
 -0.166667 -0.333333  0.333333    0.00462963  14 t-inv F
 -0.333333 -0.166667  0.333333    0.00462963  14 t-inv F
 -0.333333  0.333333 -0.166667    0.00462963  14 t-inv F
 -0.333333  0.166667 -0.333333    0.00462963  14 t-inv F
 -0.166667  0.333333 -0.333333    0.00462963  14 t-inv F
 -0.333333 -0.333333 -0.166667    0.00462963  14 t-inv F
 -0.166667 -0.333333 -0.333333    0.00462963  14 t-inv F
 -0.333333 -0.166667 -0.333333    0.00462963  14 t-inv F
 -0.333333  0.333333  0.166667    0.00462963  14 t-inv F
 -0.333333  0.166667  0.333333    0.00462963  14 t-inv F
 -0.166667  0.333333  0.333333    0.00462963  14 t-inv F
  0.333333  0.333333 -0.166667    0.00462963  14 t-inv F
  0.166667  0.333333 -0.333333    0.00462963  14 t-inv F
  0.333333  0.166667 -0.333333    0.00462963  14 t-inv F
  0.333333 -0.333333  0.166667    0.00462963  14 t-inv F
  0.333333 -0.166667  0.333333    0.00462963  14 t-inv F
  0.166667 -0.333333  0.333333    0.00462963  14 t-inv F
  0.166667  0.500000  0.333333    0.00462963  15 t-inv F
  0.333333  0.166667  0.500000    0.00462963  15 t-inv F
  0.333333 -0.500000 -0.166667    0.00462963  15 t-inv F
  0.500000 -0.166667 -0.333333    0.00462963  15 t-inv F
  0.166667 -0.333333 -0.500000    0.00462963  15 t-inv F
 -0.500000 -0.333333  0.166667    0.00462963  15 t-inv F
 -0.166667 -0.500000  0.333333    0.00462963  15 t-inv F
 -0.333333 -0.166667  0.500000    0.00462963  15 t-inv F
 -0.333333  0.500000 -0.166667    0.00462963  15 t-inv F
 -0.500000  0.166667 -0.333333    0.00462963  15 t-inv F
 -0.166667  0.333333 -0.500000    0.00462963  15 t-inv F
  0.166667 -0.500000 -0.333333    0.00462963  15 t-inv F
  0.333333 -0.166667 -0.500000    0.00462963  15 t-inv F
  0.500000 -0.333333 -0.166667    0.00462963  15 t-inv F
 -0.166667 -0.333333  0.500000    0.00462963  15 t-inv F
 -0.333333 -0.500000  0.166667    0.00462963  15 t-inv F
 -0.500000 -0.166667  0.333333    0.00462963  15 t-inv F
 -0.333333  0.166667 -0.500000    0.00462963  15 t-inv F
 -0.500000  0.333333 -0.166667    0.00462963  15 t-inv F
 -0.166667  0.500000 -0.333333    0.00462963  15 t-inv F
  0.500000  0.166667  0.333333    0.00462963  15 t-inv F
  0.333333  0.500000  0.166667    0.00462963  15 t-inv F
  0.166667  0.333333  0.500000    0.00462963  15 t-inv F
  0.166667  0.500000  0.500000    0.00462963  16 t-inv F
  0.500000  0.166667  0.500000    0.00462963  16 t-inv F
  0.500000 -0.500000 -0.166667    0.00462963  16 t-inv F
  0.500000 -0.166667 -0.500000    0.00462963  16 t-inv F
 -0.166667 -0.500000  0.500000    0.00462963  16 t-inv F
  0.333333 -0.333333 -0.333333    0.00462963  17 t-inv F
 -0.333333 -0.333333  0.333333    0.00462963  17 t-inv F
 -0.333333  0.333333 -0.333333    0.00462963  17 t-inv F
 -0.333333 -0.333333 -0.333333    0.00462963  17 t-inv F
 -0.333333  0.333333  0.333333    0.00462963  17 t-inv F
  0.333333  0.333333 -0.333333    0.00462963  17 t-inv F
  0.333333 -0.333333  0.333333    0.00462963  17 t-inv F
  0.333333  0.500000  0.333333    0.00462963  18 t-inv F
  0.333333  0.333333  0.500000    0.00462963  18 t-inv F
  0.333333 -0.500000 -0.333333    0.00462963  18 t-inv F
  0.500000 -0.333333 -0.333333    0.00462963  18 t-inv F
  0.333333 -0.333333 -0.500000    0.00462963  18 t-inv F
 -0.500000 -0.333333  0.333333    0.00462963  18 t-inv F
 -0.333333 -0.500000  0.333333    0.00462963  18 t-inv F
 -0.333333 -0.333333  0.500000    0.00462963  18 t-inv F
 -0.333333  0.500000 -0.333333    0.00462963  18 t-inv F
 -0.500000  0.333333 -0.333333    0.00462963  18 t-inv F
 -0.333333  0.333333 -0.500000    0.00462963  18 t-inv F
  0.333333  0.500000  0.500000    0.00462963  19 t-inv F
  0.500000  0.333333  0.500000    0.00462963  19 t-inv F
  0.500000 -0.500000 -0.333333    0.00462963  19 t-inv F
  0.500000 -0.333333 -0.500000    0.00462963  19 t-inv F
 -0.333333 -0.500000  0.500000    0.00462963  19 t-inv F


--------------------------------------------------------------------------------------------------------




 Dimension of arrays:
   k-points           NKPTS =     20   k-points in BZ     NKDIM =     20   number of bands    NBANDS=    192
   number of dos      NEDOS =    301   number of ions     NIONS =     64
   non local maximal  LDIM  =      4   non local SUM 2l+1 LMDIM =      8
   total plane-waves  NPLWV = 110592
   max r-space proj   IRMAX =      1   max aug-charges    IRDMAX=  32161
   dimension x,y,z NGX =    48 NGY =   48 NGZ =   48
   dimension x,y,z NGXF=    96 NGYF=   96 NGZF=   96
   support grid    NGXF=   192 NGYF=  192 NGZF=  192
   ions per type =              64
   NGX,Y,Z   is equivalent  to a cutoff of  11.59, 11.59, 11.59 a.u.
   NGXF,Y,Z  is equivalent  to a cutoff of  23.17, 23.17, 23.17 a.u.

 SYSTEM =  unknown system                          
 POSCAR =  generated by phonopy                    

 Startparameter for this run:
   NWRITE =      2    write-flag & timer
   PREC   = accura    normal or accurate (medium, high low for compatibility)
   ISTART =      0    job   : 0-new  1-cont  2-samecut
   ICHARG =      2    charge: 1-file 2-atom 10-const
   ISPIN  =      1    spin polarized calculation?
   LNONCOLLINEAR =      F non collinear calculations
   LSORBIT =      F    spin-orbit coupling
   INIWAV =      1    electr: 0-lowe 1-rand  2-diag
   LASPH  =      F    aspherical Exc in radial PAW
   METAGGA=      F    non-selfconsistent MetaGGA calc.

 Electronic Relaxation 1
   ENCUT  =  400.0 eV  29.40 Ry    5.42 a.u.  11.23 11.23 11.23*2*pi/ulx,y,z
   ENINI  =  400.0     initial cutoff
   ENAUG  =  644.9 eV  augmentation charge cutoff
   NELM   =     60;   NELMIN=  2; NELMDL=  0     # of ELM steps 
   EDIFF  = 0.1E-07   stopping-criterion for ELM
   LREAL  =      F    real-space projection
   NLSPLINE    = F    spline interpolate recip. space projectors
   LCOMPAT=      F    compatible to vasp.4.4
   GGA_COMPAT  = T    GGA compatible to vasp.4.4-vasp.4.6
   LMAXPAW     = -100 max onsite density
   LMAXMIX     =    2 max onsite mixed and CHGCAR
   VOSKOWN=      0    Vosko Wilk Nusair interpolation
   ROPT   =    0.00000
 Ionic relaxation
   EDIFFG = 0.1E-06   stopping-criterion for IOM
   NSW    =      1    number of steps for IOM
   NBLOCK =      1;   KBLOCK =      1    inner block; outer block 
   IBRION =      8    ionic relax: 0-MD 1-quasi-New 2-CG
   NFREE  =      0    steps in history (QN), initial steepest desc. (CG)
   ISIF   =      2    stress and relaxation
   IWAVPR =     11    prediction:  0-non 1-charg 2-wave 3-comb
   ISYM   =      2    0-nonsym 1-usesym 2-fastsym
   LCORR  =      T    Harris-Foulkes like correction to forces

   POTIM  = 0.5000    time-step for ionic-motion
   TEIN   =    0.0    initial temperature
   TEBEG  =    0.0;   TEEND  =   0.0 temperature during run
   SMASS  =  -3.00    Nose mass-parameter (am)
   estimated Nose-frequenzy (Omega)   =  0.10E-29 period in steps =****** mass=  -0.108E-26a.u.
   SCALEE = 1.0000    scale energy and forces
   NPACO  =    256;   APACO  = 16.0  distance and # of slots for P.C.
   PSTRESS=    0.0 pullay stress

  Mass of Ions in am
   POMASS =  12.01
  Ionic Valenz
   ZVAL   =   4.00
  Atomic Wigner-Seitz radii
   RWIGS  =  -1.00
  virtual crystal weights 
   VCA    =   1.00
   NELECT =     256.0000    total number of electrons
   NUPDOWN=      -1.0000    fix difference up-down

 DOS related values:
   EMIN   =  10.00;   EMAX   =-10.00  energy-range for DOS
   EFERMI =   0.00
   ISMEAR =     0;   SIGMA  =   0.06  broadening in eV -4-tet -1-fermi 0-gaus

 Electronic relaxation 2 (details)
   IALGO  =     38    algorithm
   LDIAG  =      T    sub-space diagonalisation (order eigenvalues)
   LSUBROT=      F    optimize rotation matrix (better conditioning)
   TURBO    =      0    0=normal 1=particle mesh
   IRESTART =      0    0=no restart 2=restart with 2 vectors
   NREBOOT  =      0    no. of reboots
   NMIN     =      0    reboot dimension
   EREF     =   0.00    reference energy to select bands
   IMIX   =      4    mixing-type and parameters
     AMIX     =   0.40;   BMIX     =  1.00
     AMIX_MAG =   1.60;   BMIX_MAG =  1.00
     AMIN     =   0.10
     WC   =   100.;   INIMIX=   1;  MIXPRE=   1;  MAXMIX= -45

 Intra band minimization:
   WEIMIN = 0.0010     energy-eigenvalue tresh-hold
   EBREAK =  0.13E-10  absolut break condition
   DEPER  =   0.30     relativ break condition  

   TIME   =   0.40     timestep for ELM

  volume/ion in A,a.u.               =       5.10        34.44
  Fermi-wavevector in a.u.,A,eV,Ry     =   1.509396  2.852345 30.997836  2.278277
  Thomas-Fermi vector in A             =   2.619724
 
 Write flags
   LWAVE        =      F    write WAVECAR
   LDOWNSAMPLE  =      F    k-point downsampling of WAVECAR
   LCHARG       =      F    write CHGCAR
   LVTOT        =      F    write LOCPOT, total local potential
   LVHAR        =      F    write LOCPOT, Hartree potential only
   LELF         =      F    write electronic localiz. function (ELF)
   LORBIT       =      0    0 simple, 1 ext, 2 COOP (PROOUT), +10 PAW based schemes


 Dipole corrections
   LMONO  =      F    monopole corrections only (constant potential shift)
   LDIPOL =      F    correct potential (dipole corrections)
   IDIPOL =      0    1-x, 2-y, 3-z, 4-all directions 
   EPSILON=  1.0000000 bulk dielectric constant

 Exchange correlation treatment:
   GGA     =    --    GGA type
   LEXCH   =     8    internal setting for exchange type
   VOSKOWN=      0    Vosko Wilk Nusair interpolation
   LHFCALC =     F    Hartree Fock is set to
   LHFONE  =     F    Hartree Fock one center treatment
   AEXX    =    0.0000 exact exchange contribution

 Linear response parameters
   LEPSILON=     F    determine dielectric tensor
   LRPA    =     F    only Hartree local field effects (RPA)
   LNABLA  =     F    use nabla operator in PAW spheres
   LVEL    =     F    velocity operator in full k-point grid
   LINTERFAST=   F  fast interpolation
   KINTER  =     0    interpolate to denser k-point grid
   CSHIFT  =0.1000    complex shift for real part using Kramers Kronig
   OMEGAMAX=  -1.0    maximum frequency
   DEG_THRESHOLD= 0.2000000E-02 threshold for treating states as degnerate
   RTIME   =   -0.100 relaxation time in fs
  (WPLASMAI=    0.000 imaginary part of plasma frequency in eV, 0.658/RTIME)
   DFIELD  = 0.0000000 0.0000000 0.0000000 field for delta impulse in time
 
 Orbital magnetization related:
   ORBITALMAG=     F  switch on orbital magnetization
   LCHIMAG   =     F  perturbation theory with respect to B field
   DQ        =  0.001000  dq finite difference perturbation B field
   LLRAUG    =     F  two centre corrections for induced B field



--------------------------------------------------------------------------------------------------------


 linear response using symmetry
 charge density and potential will be updated during run
 non-spin polarized calculation
 Variant of blocked Davidson
 Davidson routine will perform the subspace rotation
 perform sub-space diagonalisation
    after iterative eigenvector-optimisation
 modified Broyden-mixing scheme, WC =      100.0
 initial mixing is a Kerker type mixing with AMIX =  0.4000 and BMIX =      1.0000
 Hartree-type preconditioning will be used
 using additional bands           64
 reciprocal scheme for non local part
 calculate Harris-corrections to forces 
   (improved forces if not selfconsistent)
 use gradient corrections 
 use of overlap-Matrix (Vanderbilt PP)
 Gauss-broadening in eV      SIGMA  =   0.06


--------------------------------------------------------------------------------------------------------


  energy-cutoff  :      400.00
  volume of cell :      326.63
      direct lattice vectors                 reciprocal lattice vectors
     6.886812407  0.000000000  0.000000000     0.145205059  0.000000000  0.000000000
     0.000000000  6.886812407  0.000000000     0.000000000  0.145205059  0.000000000
     0.000000000  0.000000000  6.886812407     0.000000000  0.000000000  0.145205059

  length of vectors
     6.886812407  6.886812407  6.886812407     0.145205059  0.145205059  0.145205059


 
 k-points in units of 2pi/SCALE and weight: kpt_density=3000                        
   0.00000000  0.00000000  0.00000000       0.005
   0.02420084  0.00000000  0.00000000       0.028
   0.04840169  0.00000000  0.00000000       0.028
   0.07260253  0.00000000  0.00000000       0.014
   0.02420084  0.02420084  0.00000000       0.056
   0.04840169  0.02420084  0.00000000       0.111
   0.07260253  0.02420084  0.00000000       0.056
   0.04840169  0.04840169  0.00000000       0.056
   0.07260253  0.04840169  0.00000000       0.056
   0.07260253  0.07260253  0.00000000       0.014
   0.02420084  0.02420084  0.02420084       0.037
   0.04840169  0.02420084  0.02420084       0.111
   0.07260253  0.02420084  0.02420084       0.056
   0.04840169  0.04840169  0.02420084       0.111
   0.07260253  0.04840169  0.02420084       0.111
   0.07260253  0.07260253  0.02420084       0.028
   0.04840169  0.04840169  0.04840169       0.037
   0.07260253  0.04840169  0.04840169       0.056
   0.07260253  0.07260253  0.04840169       0.028
   0.07260253  0.07260253  0.07260253       0.005
 
 k-points in reciprocal lattice and weights: kpt_density=3000                        
   0.00000000  0.00000000  0.00000000       0.005
   0.16666667  0.00000000  0.00000000       0.028
   0.33333333  0.00000000  0.00000000       0.028
   0.50000000  0.00000000  0.00000000       0.014
   0.16666667  0.16666667  0.00000000       0.056
   0.33333333  0.16666667  0.00000000       0.111
   0.50000000  0.16666667  0.00000000       0.056
   0.33333333  0.33333333  0.00000000       0.056
   0.50000000  0.33333333  0.00000000       0.056
   0.50000000  0.50000000  0.00000000       0.014
   0.16666667  0.16666667  0.16666667       0.037
   0.33333333  0.16666667  0.16666667       0.111
   0.50000000  0.16666667  0.16666667       0.056
   0.33333333  0.33333333  0.16666667       0.111
   0.50000000  0.33333333  0.16666667       0.111
   0.50000000  0.50000000  0.16666667       0.028
   0.33333333  0.33333333  0.33333333       0.037
   0.50000000  0.33333333  0.33333333       0.056
   0.50000000  0.50000000  0.33333333       0.028
   0.50000000  0.50000000  0.50000000       0.005
 
 position of ions in fractional coordinates (direct lattice) 
   0.12500000  0.37500000  0.12500000
   0.62500000  0.37500000  0.12500000
   0.12500000  0.87500000  0.12500000
   0.62500000  0.87500000  0.12500000
   0.12500000  0.37500000  0.62500000
   0.62500000  0.37500000  0.62500000
   0.12500000  0.87500000  0.62500000
   0.62500000  0.87500000  0.62500000
   0.00000000  0.00000000  0.25000000
   0.50000000  0.00000000  0.25000000
   0.00000000  0.50000000  0.25000000
   0.50000000  0.50000000  0.25000000
   0.00000000  0.00000000  0.75000000
   0.50000000  0.00000000  0.75000000
   0.00000000  0.50000000  0.75000000
   0.50000000  0.50000000  0.75000000
   0.12500000  0.12500000  0.37500000
   0.62500000  0.12500000  0.37500000
   0.12500000  0.62500000  0.37500000
   0.62500000  0.62500000  0.37500000
   0.12500000  0.12500000  0.87500000
   0.62500000  0.12500000  0.87500000
   0.12500000  0.62500000  0.87500000
   0.62500000  0.62500000  0.87500000
   0.00000000  0.25000000  0.00000000
   0.50000000  0.25000000  0.00000000
   0.00000000  0.75000000  0.00000000
   0.50000000  0.75000000  0.00000000
   0.00000000  0.25000000  0.50000000
   0.50000000  0.25000000  0.50000000
   0.00000000  0.75000000  0.50000000
   0.50000000  0.75000000  0.50000000
   0.37500000  0.37500000  0.37500000
   0.87500000  0.37500000  0.37500000
   0.37500000  0.87500000  0.37500000
   0.87500000  0.87500000  0.37500000
   0.37500000  0.37500000  0.87500000
   0.87500000  0.37500000  0.87500000
   0.37500000  0.87500000  0.87500000
   0.87500000  0.87500000  0.87500000
   0.25000000  0.00000000  0.00000000
   0.75000000  0.00000000  0.00000000
   0.25000000  0.50000000  0.00000000
   0.75000000  0.50000000  0.00000000
   0.25000000  0.00000000  0.50000000
   0.75000000  0.00000000  0.50000000
   0.25000000  0.50000000  0.50000000
   0.75000000  0.50000000  0.50000000
   0.37500000  0.12500000  0.12500000
   0.87500000  0.12500000  0.12500000
   0.37500000  0.62500000  0.12500000
   0.87500000  0.62500000  0.12500000
   0.37500000  0.12500000  0.62500000
   0.87500000  0.12500000  0.62500000
   0.37500000  0.62500000  0.62500000
   0.87500000  0.62500000  0.62500000
   0.25000000  0.25000000  0.25000000
   0.75000000  0.25000000  0.25000000
   0.25000000  0.75000000  0.25000000
   0.75000000  0.75000000  0.25000000
   0.25000000  0.25000000  0.75000000
   0.75000000  0.25000000  0.75000000
   0.25000000  0.75000000  0.75000000
   0.75000000  0.75000000  0.75000000
 
 position of ions in cartesian coordinates  (Angst):
   0.86085155  2.58255465  0.86085155
   4.30425775  2.58255465  0.86085155
   0.86085155  6.02596086  0.86085155
   4.30425775  6.02596086  0.86085155
   0.86085155  2.58255465  4.30425775
   4.30425775  2.58255465  4.30425775
   0.86085155  6.02596086  4.30425775
   4.30425775  6.02596086  4.30425775
   0.00000000  0.00000000  1.72170310
   3.44340620  0.00000000  1.72170310
   0.00000000  3.44340620  1.72170310
   3.44340620  3.44340620  1.72170310
   0.00000000  0.00000000  5.16510930
   3.44340620  0.00000000  5.16510930
   0.00000000  3.44340620  5.16510930
   3.44340620  3.44340620  5.16510930
   0.86085155  0.86085155  2.58255465
   4.30425775  0.86085155  2.58255465
   0.86085155  4.30425775  2.58255465
   4.30425775  4.30425775  2.58255465
   0.86085155  0.86085155  6.02596086
   4.30425775  0.86085155  6.02596086
   0.86085155  4.30425775  6.02596086
   4.30425775  4.30425775  6.02596086
   0.00000000  1.72170310  0.00000000
   3.44340620  1.72170310  0.00000000
   0.00000000  5.16510930  0.00000000
   3.44340620  5.16510930  0.00000000
   0.00000000  1.72170310  3.44340620
   3.44340620  1.72170310  3.44340620
   0.00000000  5.16510930  3.44340620
   3.44340620  5.16510930  3.44340620
   2.58255465  2.58255465  2.58255465
   6.02596086  2.58255465  2.58255465
   2.58255465  6.02596086  2.58255465
   6.02596086  6.02596086  2.58255465
   2.58255465  2.58255465  6.02596086
   6.02596086  2.58255465  6.02596086
   2.58255465  6.02596086  6.02596086
   6.02596086  6.02596086  6.02596086
   1.72170310  0.00000000  0.00000000
   5.16510930  0.00000000  0.00000000
   1.72170310  3.44340620  0.00000000
   5.16510930  3.44340620  0.00000000
   1.72170310  0.00000000  3.44340620
   5.16510930  0.00000000  3.44340620
   1.72170310  3.44340620  3.44340620
   5.16510930  3.44340620  3.44340620
   2.58255465  0.86085155  0.86085155
   6.02596086  0.86085155  0.86085155
   2.58255465  4.30425775  0.86085155
   6.02596086  4.30425775  0.86085155
   2.58255465  0.86085155  4.30425775
   6.02596086  0.86085155  4.30425775
   2.58255465  4.30425775  4.30425775
   6.02596086  4.30425775  4.30425775
   1.72170310  1.72170310  1.72170310
   5.16510930  1.72170310  1.72170310
   1.72170310  5.16510930  1.72170310
   5.16510930  5.16510930  1.72170310
   1.72170310  1.72170310  5.16510930
   5.16510930  1.72170310  5.16510930
   1.72170310  5.16510930  5.16510930
   5.16510930  5.16510930  5.16510930
 


--------------------------------------------------------------------------------------------------------


 k-point  1 :   0.0000 0.0000 0.0000  plane waves:    6031
 k-point  2 :   0.1667 0.0000 0.0000  plane waves:    5919
 k-point  3 :   0.3333 0.0000 0.0000  plane waves:    5918
 k-point  4 :   0.5000 0.0000 0.0000  plane waves:    5910
 k-point  5 :   0.1667 0.1667 0.0000  plane waves:    5928
 k-point  6 :   0.3333 0.1667 0.0000  plane waves:    5911
 k-point  7 :   0.5000 0.1667 0.0000  plane waves:    5932
 k-point  8 :   0.3333 0.3333 0.0000  plane waves:    5960
 k-point  9 :   0.5000 0.3333 0.0000  plane waves:    5952
 k-point 10 :   0.5000 0.5000 0.0000  plane waves:    5912
 k-point 11 :   0.1667 0.1667 0.1667  plane waves:    5953
 k-point 12 :   0.3333 0.1667 0.1667  plane waves:    5932
 k-point 13 :   0.5000 0.1667 0.1667  plane waves:    5930
 k-point 14 :   0.3333 0.3333 0.1667  plane waves:    5933
 k-point 15 :   0.5000 0.3333 0.1667  plane waves:    5932
 k-point 16 :   0.5000 0.5000 0.1667  plane waves:    5948
 k-point 17 :   0.3333 0.3333 0.3333  plane waves:    5926
 k-point 18 :   0.5000 0.3333 0.3333  plane waves:    5912
 k-point 19 :   0.5000 0.5000 0.3333  plane waves:    5944
 k-point 20 :   0.5000 0.5000 0.5000  plane waves:    5904

 maximum and minimum number of plane-waves per node :      6031     5904

 maximum number of plane-waves:      6031
 maximum index in each direction: 
   IXMAX=   11   IYMAX=   11   IZMAX=   11
   IXMIN=  -11   IYMIN=  -11   IZMIN=  -11


 serial   3D FFT for wavefunctions
 parallel 3D FFT for charge:
    minimum data exchange during FFTs selected (reduces bandwidth)


 total amount of memory used by VASP MPI-rank0    67068. kBytes
=======================================================================

   base      :      30000. kBytes
   nonl-proj :      13934. kBytes
   fftplans  :       4537. kBytes
   grid      :       5806. kBytes
   one-center:        196. kBytes
   wavefun   :      12595. kBytes
 
     INWAV:  cpu time    0.0004: real time    0.0006
 Broyden mixing: mesh for mixing (old mesh)
   NGX = 23   NGY = 23   NGZ = 23
  (NGX  = 96   NGY  = 96   NGZ  = 96)
  gives a total of  12167 points

 initial charge density was supplied:
 charge density of overlapping atoms calculated
 number of electron     256.0000000 magnetization 
 keeping initial charge density in first step


--------------------------------------------------------------------------------------------------------


 Maximum index for augmentation-charges         1201 (set IRDMAX)


--------------------------------------------------------------------------------------------------------


 First call to EWALD:  gamma=   0.257
 Maximum number of real-space cells 3x 3x 3
 Maximum number of reciprocal cells 3x 3x 3

    FEWALD:  cpu time    0.0083: real time    0.0083


--------------------------------------- Iteration      1(   1)  ---------------------------------------


    POTLOK:  cpu time    0.0643: real time    0.1870
    SETDIJ:  cpu time    0.0444: real time    0.0446
     EDDAV:  cpu time   12.5532: real time   12.5620
       DOS:  cpu time    0.0063: real time    0.0062
    --------------------------------------------
      LOOP:  cpu time   12.6683: real time   12.8000

 eigenvalue-minimisations  :  7680
 total energy-change (2. order) : 0.5290524E+03  (-0.1155726E+05)
 number of electron     256.0000000 magnetization 
 augmentation part      256.0000000 magnetization 

 Free energy of the ion-electron system (eV)
  ---------------------------------------------------
  alpha Z        PSCENC =      1021.77925941
  Ewald energy   TEWEN  =    -11533.69725622
  -Hartree energ DENC   =      -492.13632522
  -exchange      EXHF   =         0.00000000
  -V(xc)+E(xc)   XCENC  =       937.34035242
  PAW double counting   =      2421.21235816    -2494.84305711
  entropy T*S    EENTRO =        -0.01084209
  eigenvalues    EBANDS =      1253.26562048
  atomic energy  EATOM  =      9416.14232778
  Solvation  Ediel_sol  =         0.00000000
  ---------------------------------------------------
  free energy    TOTEN  =       529.05243761 eV

  energy without entropy =      529.06327970  energy(sigma->0) =      529.05785866


--------------------------------------------------------------------------------------------------------




--------------------------------------- Iteration      1(   2)  ---------------------------------------


     EDDAV:  cpu time   16.2592: real time   16.2609
       DOS:  cpu time    0.0036: real time    0.0036
    --------------------------------------------
      LOOP:  cpu time   16.2628: real time   16.2645

 eigenvalue-minimisations  : 10112
 total energy-change (2. order) :-0.1092550E+04  (-0.1044454E+04)
 number of electron     256.0000000 magnetization 
 augmentation part      256.0000000 magnetization 

 Free energy of the ion-electron system (eV)
  ---------------------------------------------------
  alpha Z        PSCENC =      1021.77925941
  Ewald energy   TEWEN  =    -11533.69725622
  -Hartree energ DENC   =      -492.13632522
  -exchange      EXHF   =         0.00000000
  -V(xc)+E(xc)   XCENC  =       937.34035242
  PAW double counting   =      2421.21235816    -2494.84305711
  entropy T*S    EENTRO =        -0.00000000
  eigenvalues    EBANDS =       160.70517536
  atomic energy  EATOM  =      9416.14232778
  Solvation  Ediel_sol  =         0.00000000
  ---------------------------------------------------
  free energy    TOTEN  =      -563.49716542 eV

  energy without entropy =     -563.49716542  energy(sigma->0) =     -563.49716542


--------------------------------------------------------------------------------------------------------




--------------------------------------- Iteration      1(   3)  ---------------------------------------


     EDDAV:  cpu time   15.9009: real time   15.9023
       DOS:  cpu time    0.0027: real time    0.0027
    --------------------------------------------
      LOOP:  cpu time   15.9036: real time   15.9050

 eigenvalue-minimisations  : 10144
 total energy-change (2. order) :-0.3920416E+02  (-0.3899197E+02)
 number of electron     256.0000000 magnetization 
 augmentation part      256.0000000 magnetization 

 Free energy of the ion-electron system (eV)
  ---------------------------------------------------
  alpha Z        PSCENC =      1021.77925941
  Ewald energy   TEWEN  =    -11533.69725622
  -Hartree energ DENC   =      -492.13632522
  -exchange      EXHF   =         0.00000000
  -V(xc)+E(xc)   XCENC  =       937.34035242
  PAW double counting   =      2421.21235816    -2494.84305711
  entropy T*S    EENTRO =        -0.00000000
  eigenvalues    EBANDS =       121.50101564
  atomic energy  EATOM  =      9416.14232778
  Solvation  Ediel_sol  =         0.00000000
  ---------------------------------------------------
  free energy    TOTEN  =      -602.70132514 eV

  energy without entropy =     -602.70132514  energy(sigma->0) =     -602.70132514


--------------------------------------------------------------------------------------------------------




--------------------------------------- Iteration      1(   4)  ---------------------------------------


     EDDAV:  cpu time   16.5949: real time   16.5963
       DOS:  cpu time    0.0028: real time    0.0028
    --------------------------------------------
      LOOP:  cpu time   16.5976: real time   16.5990

 eigenvalue-minimisations  :  9984
 total energy-change (2. order) :-0.3554314E+00  (-0.3547547E+00)
 number of electron     256.0000000 magnetization 
 augmentation part      256.0000000 magnetization 

 Free energy of the ion-electron system (eV)
  ---------------------------------------------------
  alpha Z        PSCENC =      1021.77925941
  Ewald energy   TEWEN  =    -11533.69725622
  -Hartree energ DENC   =      -492.13632522
  -exchange      EXHF   =         0.00000000
  -V(xc)+E(xc)   XCENC  =       937.34035242
  PAW double counting   =      2421.21235816    -2494.84305711
  entropy T*S    EENTRO =        -0.00000000
  eigenvalues    EBANDS =       121.14558424
  atomic energy  EATOM  =      9416.14232778
  Solvation  Ediel_sol  =         0.00000000
  ---------------------------------------------------
  free energy    TOTEN  =      -603.05675654 eV

  energy without entropy =     -603.05675654  energy(sigma->0) =     -603.05675654


--------------------------------------------------------------------------------------------------------




--------------------------------------- Iteration      1(   5)  ---------------------------------------


     EDDAV:  cpu time   15.0964: real time   15.0977
       DOS:  cpu time    0.0030: real time    0.0030
    CHARGE:  cpu time    0.5125: real time    0.5127
    MIXING:  cpu time    0.0042: real time    0.0042
    --------------------------------------------
      LOOP:  cpu time   15.6162: real time   15.6177

 eigenvalue-minimisations  :  9600
 total energy-change (2. order) :-0.6696121E-02  (-0.6693526E-02)
 number of electron     255.9999999 magnetization 
 augmentation part        7.0191787 magnetization 

 Broyden mixing:
  rms(total) = 0.30518E+01    rms(broyden)= 0.30513E+01
  rms(prec ) = 0.45377E+01
  weight for this iteration     100.00

 Free energy of the ion-electron system (eV)
  ---------------------------------------------------
  alpha Z        PSCENC =      1021.77925941
  Ewald energy   TEWEN  =    -11533.69725622
  -Hartree energ DENC   =      -492.13632522
  -exchange      EXHF   =         0.00000000
  -V(xc)+E(xc)   XCENC  =       937.34035242
  PAW double counting   =      2421.21235816    -2494.84305711
  entropy T*S    EENTRO =        -0.00000000
  eigenvalues    EBANDS =       121.13888812
  atomic energy  EATOM  =      9416.14232778
  Solvation  Ediel_sol  =         0.00000000
  ---------------------------------------------------
  free energy    TOTEN  =      -603.06345267 eV

  energy without entropy =     -603.06345267  energy(sigma->0) =     -603.06345267


--------------------------------------------------------------------------------------------------------




--------------------------------------- Iteration      1(   6)  ---------------------------------------


    POTLOK:  cpu time    0.0654: real time    0.0654
    SETDIJ:  cpu time    0.0437: real time    0.0437
     EDDAV:  cpu time   14.3009: real time   14.3022
       DOS:  cpu time    0.0030: real time    0.0030
    CHARGE:  cpu time    0.5160: real time    0.5160
    MIXING:  cpu time    0.0110: real time    0.0110
    --------------------------------------------
      LOOP:  cpu time   14.9399: real time   14.9412

 eigenvalue-minimisations  :  8960
 total energy-change (2. order) : 0.2061198E+02  (-0.1330525E+01)
 number of electron     255.9999999 magnetization 
 augmentation part        6.8409798 magnetization 

 Broyden mixing:
  rms(total) = 0.16469E+01    rms(broyden)= 0.16469E+01
  rms(prec ) = 0.24328E+01
  weight for this iteration     100.00

 eigenvalues of (default mixing * dielectric matrix)
  average eigenvalue GAMMA=   2.1341
  2.1341

 Free energy of the ion-electron system (eV)
  ---------------------------------------------------
  alpha Z        PSCENC =      1021.77925941
  Ewald energy   TEWEN  =    -11533.69725622
  -Hartree energ DENC   =      -624.31523305
  -exchange      EXHF   =         0.00000000
  -V(xc)+E(xc)   XCENC  =       949.84889924
  PAW double counting   =      3324.25463621    -3403.45359298
  entropy T*S    EENTRO =        -0.00000000
  eigenvalues    EBANDS =       266.98949157
  atomic energy  EATOM  =      9416.14232778
  Solvation  Ediel_sol  =         0.00000000
  ---------------------------------------------------
  free energy    TOTEN  =      -582.45146804 eV

  energy without entropy =     -582.45146804  energy(sigma->0) =     -582.45146804


--------------------------------------------------------------------------------------------------------




--------------------------------------- Iteration      1(   7)  ---------------------------------------


    POTLOK:  cpu time    0.0589: real time    0.0589
    SETDIJ:  cpu time    0.0439: real time    0.0439
     EDDAV:  cpu time   14.8269: real time   14.8282
       DOS:  cpu time    0.0028: real time    0.0028
    CHARGE:  cpu time    0.5096: real time    0.5097
    MIXING:  cpu time    0.0043: real time    0.0043
    --------------------------------------------
      LOOP:  cpu time   15.4464: real time   15.4478

 eigenvalue-minimisations  :  9312
 total energy-change (2. order) : 0.6931553E+01  (-0.1474763E+01)
 number of electron     255.9999999 magnetization 
 augmentation part        6.6534592 magnetization 

 Broyden mixing:
  rms(total) = 0.20397E+00    rms(broyden)= 0.20304E+00
  rms(prec ) = 0.25019E+00
  weight for this iteration     100.00

 eigenvalues of (default mixing * dielectric matrix)
  average eigenvalue GAMMA=   2.2756
  2.0134  2.5377

 Free energy of the ion-electron system (eV)
  ---------------------------------------------------
  alpha Z        PSCENC =      1021.77925941
  Ewald energy   TEWEN  =    -11533.69725622
  -Hartree energ DENC   =      -793.52237368
  -exchange      EXHF   =         0.00000000
  -V(xc)+E(xc)   XCENC  =       965.96900979
  PAW double counting   =      4579.78502958    -4664.32286060
  entropy T*S    EENTRO =        -0.00000000
  eigenvalues    EBANDS =       432.34694875
  atomic energy  EATOM  =      9416.14232778
  Solvation  Ediel_sol  =         0.00000000
  ---------------------------------------------------
  free energy    TOTEN  =      -575.51991518 eV

  energy without entropy =     -575.51991518  energy(sigma->0) =     -575.51991518


--------------------------------------------------------------------------------------------------------




--------------------------------------- Iteration      1(   8)  ---------------------------------------


    POTLOK:  cpu time    0.0751: real time    0.0751
    SETDIJ:  cpu time    0.0481: real time    0.0481
     EDDAV:  cpu time   15.5012: real time   15.5025
       DOS:  cpu time    0.0029: real time    0.0029
    CHARGE:  cpu time    0.5188: real time    0.5189
    MIXING:  cpu time    0.0047: real time    0.0047
    --------------------------------------------
      LOOP:  cpu time   16.1507: real time   16.1522

 eigenvalue-minimisations  :  9376
 total energy-change (2. order) :-0.7233466E-01  (-0.3152077E-01)
 number of electron     255.9999999 magnetization 
 augmentation part        6.6580992 magnetization 

 Broyden mixing:
  rms(total) = 0.23617E-01    rms(broyden)= 0.23289E-01
  rms(prec ) = 0.28684E-01
  weight for this iteration     100.00

 eigenvalues of (default mixing * dielectric matrix)
  average eigenvalue GAMMA=   2.1030
  1.4547  2.7056  2.1486

 Free energy of the ion-electron system (eV)
  ---------------------------------------------------
  alpha Z        PSCENC =      1021.77925941
  Ewald energy   TEWEN  =    -11533.69725622
  -Hartree energ DENC   =      -797.74316745
  -exchange      EXHF   =         0.00000000
  -V(xc)+E(xc)   XCENC  =       966.41484911
  PAW double counting   =      4700.95546203    -4784.39839881
  entropy T*S    EENTRO =        -0.00000000
  eigenvalues    EBANDS =       434.95467432
  atomic energy  EATOM  =      9416.14232778
  Solvation  Ediel_sol  =         0.00000000
  ---------------------------------------------------
  free energy    TOTEN  =      -575.59224984 eV

  energy without entropy =     -575.59224984  energy(sigma->0) =     -575.59224984


--------------------------------------------------------------------------------------------------------




--------------------------------------- Iteration      1(   9)  ---------------------------------------


    POTLOK:  cpu time    0.0797: real time    0.0797
    SETDIJ:  cpu time    0.0505: real time    0.0505
     EDDAV:  cpu time   17.9714: real time   17.9730
       DOS:  cpu time    0.0040: real time    0.0040
    CHARGE:  cpu time    0.5097: real time    0.5097
    MIXING:  cpu time    0.0044: real time    0.0044
    --------------------------------------------
      LOOP:  cpu time   18.6196: real time   18.6212

 eigenvalue-minimisations  :  9888
 total energy-change (2. order) :-0.2010222E-02  (-0.3538538E-03)
 number of electron     255.9999999 magnetization 
 augmentation part        6.6574365 magnetization 

 Broyden mixing:
  rms(total) = 0.84621E-02    rms(broyden)= 0.84357E-02
  rms(prec ) = 0.10637E-01
  weight for this iteration     100.00

 eigenvalues of (default mixing * dielectric matrix)
  average eigenvalue GAMMA=   2.0273
  0.9652  2.7332  2.4184  1.9926

 Free energy of the ion-electron system (eV)
  ---------------------------------------------------
  alpha Z        PSCENC =      1021.77925941
  Ewald energy   TEWEN  =    -11533.69725622
  -Hartree energ DENC   =      -797.18724803
  -exchange      EXHF   =         0.00000000
  -V(xc)+E(xc)   XCENC  =       966.36211181
  PAW double counting   =      4698.33831002    -4781.65598281
  entropy T*S    EENTRO =        -0.00000000
  eigenvalues    EBANDS =       434.32421798
  atomic energy  EATOM  =      9416.14232778
  Solvation  Ediel_sol  =         0.00000000
  ---------------------------------------------------
  free energy    TOTEN  =      -575.59426006 eV

  energy without entropy =     -575.59426006  energy(sigma->0) =     -575.59426006


--------------------------------------------------------------------------------------------------------




--------------------------------------- Iteration      1(  10)  ---------------------------------------


    POTLOK:  cpu time    0.0592: real time    0.0592
    SETDIJ:  cpu time    0.1048: real time    0.1048
     EDDAV:  cpu time   15.6331: real time   15.6344
       DOS:  cpu time    0.0029: real time    0.0029
    CHARGE:  cpu time    0.5167: real time    0.5168
    MIXING:  cpu time    0.0047: real time    0.0047
    --------------------------------------------
      LOOP:  cpu time   16.3213: real time   16.3228

 eigenvalue-minimisations  :  9184
 total energy-change (2. order) :-0.4003490E-03  (-0.3188884E-04)
 number of electron     255.9999999 magnetization 
 augmentation part        6.6571535 magnetization 

 Broyden mixing:
  rms(total) = 0.84567E-03    rms(broyden)= 0.82954E-03
  rms(prec ) = 0.12528E-02
  weight for this iteration     100.00

 eigenvalues of (default mixing * dielectric matrix)
  average eigenvalue GAMMA=   1.9444
  2.9104  2.5502  2.0584  0.9926  1.2102

 Free energy of the ion-electron system (eV)
  ---------------------------------------------------
  alpha Z        PSCENC =      1021.77925941
  Ewald energy   TEWEN  =    -11533.69725622
  -Hartree energ DENC   =      -797.54430081
  -exchange      EXHF   =         0.00000000
  -V(xc)+E(xc)   XCENC  =       966.39249550
  PAW double counting   =      4693.18698554    -4776.51808054
  entropy T*S    EENTRO =        -0.00000000
  eigenvalues    EBANDS =       434.66390893
  atomic energy  EATOM  =      9416.14232778
  Solvation  Ediel_sol  =         0.00000000
  ---------------------------------------------------
  free energy    TOTEN  =      -575.59466041 eV

  energy without entropy =     -575.59466041  energy(sigma->0) =     -575.59466041


--------------------------------------------------------------------------------------------------------




--------------------------------------- Iteration      1(  11)  ---------------------------------------


    POTLOK:  cpu time    0.0567: real time    0.0567
    SETDIJ:  cpu time    0.0439: real time    0.0439
     EDDAV:  cpu time   15.7068: real time   15.7080
       DOS:  cpu time    0.0038: real time    0.0038
    CHARGE:  cpu time    0.5193: real time    0.5194
    MIXING:  cpu time    0.0048: real time    0.0048
    --------------------------------------------
      LOOP:  cpu time   16.3353: real time   16.3367

 eigenvalue-minimisations  :  9920
 total energy-change (2. order) :-0.7173372E-05  (-0.9676915E-06)
 number of electron     255.9999999 magnetization 
 augmentation part        6.6569984 magnetization 

 Broyden mixing:
  rms(total) = 0.19391E-03    rms(broyden)= 0.18861E-03
  rms(prec ) = 0.24769E-03
  weight for this iteration     100.00

 eigenvalues of (default mixing * dielectric matrix)
  average eigenvalue GAMMA=   1.9971
  2.9355  2.5690  2.4517  2.0342  0.9960  0.9960

 Free energy of the ion-electron system (eV)
  ---------------------------------------------------
  alpha Z        PSCENC =      1021.77925941
  Ewald energy   TEWEN  =    -11533.69725622
  -Hartree energ DENC   =      -797.65724927
  -exchange      EXHF   =         0.00000000
  -V(xc)+E(xc)   XCENC  =       966.40289521
  PAW double counting   =      4693.30574269    -4776.64106329
  entropy T*S    EENTRO =        -0.00000000
  eigenvalues    EBANDS =       434.77067611
  atomic energy  EATOM  =      9416.14232778
  Solvation  Ediel_sol  =         0.00000000
  ---------------------------------------------------
  free energy    TOTEN  =      -575.59466758 eV

  energy without entropy =     -575.59466758  energy(sigma->0) =     -575.59466758


--------------------------------------------------------------------------------------------------------




--------------------------------------- Iteration      1(  12)  ---------------------------------------


    POTLOK:  cpu time    0.0604: real time    0.0604
    SETDIJ:  cpu time    0.0434: real time    0.0434
     EDDAV:  cpu time   15.4869: real time   15.4883
       DOS:  cpu time    0.0028: real time    0.0028
    CHARGE:  cpu time    0.5106: real time    0.5106
    MIXING:  cpu time    0.0054: real time    0.0054
    --------------------------------------------
      LOOP:  cpu time   16.1094: real time   16.1108

 eigenvalue-minimisations  :  9568
 total energy-change (2. order) : 0.4391823E-06  (-0.1950245E-07)
 number of electron     255.9999999 magnetization 
 augmentation part        6.6570064 magnetization 

 Broyden mixing:
  rms(total) = 0.28443E-04    rms(broyden)= 0.27366E-04
  rms(prec ) = 0.42179E-04
  weight for this iteration     100.00

 eigenvalues of (default mixing * dielectric matrix)
  average eigenvalue GAMMA=   1.9145
  2.8873  2.6808  2.5142  2.0472  0.9943  1.0129  1.2648

 Free energy of the ion-electron system (eV)
  ---------------------------------------------------
  alpha Z        PSCENC =      1021.77925941
  Ewald energy   TEWEN  =    -11533.69725622
  -Hartree energ DENC   =      -797.64578144
  -exchange      EXHF   =         0.00000000
  -V(xc)+E(xc)   XCENC  =       966.40185232
  PAW double counting   =      4693.42936494    -4776.76362243
  entropy T*S    EENTRO =        -0.00000000
  eigenvalues    EBANDS =       434.75918849
  atomic energy  EATOM  =      9416.14232778
  Solvation  Ediel_sol  =         0.00000000
  ---------------------------------------------------
  free energy    TOTEN  =      -575.59466714 eV

  energy without entropy =     -575.59466714  energy(sigma->0) =     -575.59466714


--------------------------------------------------------------------------------------------------------




--------------------------------------- Iteration      1(  13)  ---------------------------------------


    POTLOK:  cpu time    0.0617: real time    0.0617
    SETDIJ:  cpu time    0.0516: real time    0.0516
     EDDAV:  cpu time   13.5649: real time   13.5661
       DOS:  cpu time    0.0031: real time    0.0031
    --------------------------------------------
      LOOP:  cpu time   13.6812: real time   13.6824

 eigenvalue-minimisations  :  7392
 total energy-change (2. order) : 0.2099114E-08  (-0.4989523E-09)
 number of electron     255.9999999 magnetization 
 augmentation part        6.6570064 magnetization 

 Free energy of the ion-electron system (eV)
  ---------------------------------------------------
  alpha Z        PSCENC =      1021.77925941
  Ewald energy   TEWEN  =    -11533.69725622
  -Hartree energ DENC   =      -797.64239406
  -exchange      EXHF   =         0.00000000
  -V(xc)+E(xc)   XCENC  =       966.40153336
  PAW double counting   =      4693.42003344    -4776.75413024
  entropy T*S    EENTRO =        -0.00000000
  eigenvalues    EBANDS =       434.75595939
  atomic energy  EATOM  =      9416.14232778
  Solvation  Ediel_sol  =         0.00000000
  ---------------------------------------------------
  free energy    TOTEN  =      -575.59466714 eV

  energy without entropy =     -575.59466714  energy(sigma->0) =     -575.59466714


--------------------------------------------------------------------------------------------------------




 average (electrostatic) potential at core
  the test charge radii are     0.6991
  (the norm of the test charge is              1.0000)
       1 -43.8124       2 -43.8124       3 -43.8124       4 -43.8124       5 -43.8124
       6 -43.8124       7 -43.8124       8 -43.8124       9 -43.8124      10 -43.8124
      11 -43.8124      12 -43.8124      13 -43.8124      14 -43.8124      15 -43.8124
      16 -43.8124      17 -43.8124      18 -43.8124      19 -43.8124      20 -43.8124
      21 -43.8124      22 -43.8124      23 -43.8124      24 -43.8124      25 -43.8124
      26 -43.8124      27 -43.8124      28 -43.8124      29 -43.8124      30 -43.8124
      31 -43.8124      32 -43.8124      33 -43.8124      34 -43.8124      35 -43.8124
      36 -43.8124      37 -43.8124      38 -43.8124      39 -43.8124      40 -43.8124
      41 -43.8124      42 -43.8124      43 -43.8124      44 -43.8124      45 -43.8124
      46 -43.8124      47 -43.8124      48 -43.8124      49 -43.8124      50 -43.8124
      51 -43.8124      52 -43.8124      53 -43.8124      54 -43.8124      55 -43.8124
      56 -43.8124      57 -43.8124      58 -43.8124      59 -43.8124      60 -43.8124
      61 -43.8124      62 -43.8124      63 -43.8124      64 -43.8124
 
 
 
 E-fermi :  11.6622     XC(G=0): -13.7581     alpha+bet :-19.6705


 k-point     1 :       0.0000    0.0000    0.0000
  band No.  band energies     occupation 
      1     -11.6015      2.00000
      2      -9.1461      2.00000
      3      -9.1461      2.00000
      4      -9.1461      2.00000
      5      -9.1461      2.00000
      6      -9.1461      2.00000
      7      -9.1461      2.00000
      8      -6.7780      2.00000
      9      -6.7780      2.00000
     10      -6.7780      2.00000
     11      -6.7780      2.00000
     12      -6.7780      2.00000
     13      -6.7780      2.00000
     14      -6.7780      2.00000
     15      -6.7780      2.00000
     16      -6.7780      2.00000
     17      -6.7780      2.00000
     18      -6.7780      2.00000
     19      -6.7780      2.00000
     20      -5.1929      2.00000
     21      -5.1929      2.00000
     22      -5.1929      2.00000
     23      -5.1929      2.00000
     24      -3.2508      2.00000
     25      -3.2508      2.00000
     26      -3.2508      2.00000
     27      -3.2508      2.00000
     28      -2.2004      2.00000
     29      -2.2004      2.00000
     30      -2.2004      2.00000
     31      -2.2004      2.00000
     32      -2.2004      2.00000
     33      -2.2004      2.00000
     34      -1.2232      2.00000
     35      -1.2232      2.00000
     36      -1.2232      2.00000
     37      -1.2232      2.00000
     38      -1.2232      2.00000
     39      -1.2232      2.00000
     40      -1.2232      2.00000
     41      -1.2232      2.00000
     42      -1.2232      2.00000
     43      -1.2232      2.00000
     44      -1.2232      2.00000
     45      -1.2232      2.00000
     46       2.0706      2.00000
     47       2.0706      2.00000
     48       2.0706      2.00000
     49       2.0706      2.00000
     50       2.0706      2.00000
     51       2.0706      2.00000
     52       2.0706      2.00000
     53       2.0706      2.00000
     54       2.0706      2.00000
     55       2.0706      2.00000
     56       2.0706      2.00000
     57       2.0706      2.00000
     58       2.0919      2.00000
     59       2.0919      2.00000
     60       2.0919      2.00000
     61       2.0919      2.00000
     62       2.0919      2.00000
     63       2.0919      2.00000
     64       2.0919      2.00000
     65       2.0919      2.00000
     66       2.0919      2.00000
     67       2.0919      2.00000
     68       2.0919      2.00000
     69       2.0919      2.00000
     70       2.9866      2.00000
     71       2.9866      2.00000
     72       2.9866      2.00000
     73       2.9866      2.00000
     74       2.9866      2.00000
     75       2.9866      2.00000
     76       2.9866      2.00000
     77       2.9866      2.00000
     78       2.9866      2.00000
     79       2.9866      2.00000
     80       2.9866      2.00000
     81       2.9866      2.00000
     82       4.3839      2.00000
     83       4.3839      2.00000
     84       4.3839      2.00000
     85       4.3839      2.00000
     86       4.3839      2.00000
     87       4.3839      2.00000
     88       6.7017      2.00000
     89       6.7017      2.00000
     90       6.7017      2.00000
     91       6.7017      2.00000
     92       6.7017      2.00000
     93       6.7017      2.00000
     94       6.7711      2.00000
     95       6.7711      2.00000
     96       6.7711      2.00000
     97       6.7711      2.00000
     98       6.7711      2.00000
     99       6.7711      2.00000
    100       6.7711      2.00000
    101       6.7711      2.00000
    102       6.7711      2.00000
    103       6.7711      2.00000
    104       6.7711      2.00000
    105       6.7711      2.00000
    106       8.0202      2.00000
    107       8.0202      2.00000
    108       8.0202      2.00000
    109       8.0202      2.00000
    110       8.0202      2.00000
    111       8.0202      2.00000
    112       8.0202      2.00000
    113       8.0202      2.00000
    114       8.0202      2.00000
    115       8.0202      2.00000
    116       8.0202      2.00000
    117       8.0202      2.00000
    118       8.2681      2.00000
    119       8.2681      2.00000
    120       8.2681      2.00000
    121       8.2681      2.00000
    122       8.2681      2.00000
    123       8.2681      2.00000
    124       8.2681      2.00000
    125       8.2681      2.00000
    126      11.3576      2.00000
    127      11.3576      2.00000
    128      11.3576      2.00000
    129      16.0684      0.00000
    130      16.0684      0.00000
    131      16.0684      0.00000
    132      16.0684      0.00000
    133      16.0684      0.00000
    134      16.0684      0.00000
    135      16.3268      0.00000
    136      16.3268      0.00000
    137      16.3268      0.00000
    138      16.3268      0.00000
    139      16.3268      0.00000
    140      16.3268      0.00000
    141      17.2575      0.00000
    142      17.2575      0.00000
    143      17.2575      0.00000
    144      19.8040      0.00000
    145      19.8040      0.00000
    146      19.8040      0.00000
    147      19.8040      0.00000
    148      19.8040      0.00000
    149      19.8040      0.00000
    150      19.8040      0.00000
    151      19.8040      0.00000
    152      19.8040      0.00000
    153      19.8040      0.00000
    154      19.8040      0.00000
    155      19.8040      0.00000
    156      20.2801      0.00000
    157      20.2801      0.00000
    158      20.2801      0.00000
    159      20.2801      0.00000
    160      20.2801      0.00000
    161      20.2801      0.00000
    162      20.2801      0.00000
    163      20.2801      0.00000
    164      21.6754      0.00000
    165      21.6754      0.00000
    166      21.6754      0.00000
[...]
      4.304258  0.860852  6.025961    -0.118197    0.020884    0.082848  
      0.860852  4.304258  6.025961    -0.118197    0.020884    0.082848  
      4.304258  4.304258  6.025961     0.118197   -0.020884   -0.082848  
      0.000000  1.721703  0.000000     0.116361   -0.005439   -0.100129  
      3.443406  1.721703  0.000000    -0.116361    0.005439    0.100129  
      0.000000  5.165109  0.000000    -0.116361    0.005439    0.100129  
      3.443406  5.165109  0.000000     0.116361   -0.005439   -0.100129  
      0.000000  1.721703  3.443406    -0.116361    0.005439    0.100129  
      3.443406  1.721703  3.443406     0.116361   -0.005439   -0.100129  
      0.000000  5.165109  3.443406     0.116361   -0.005439   -0.100129  
      3.443406  5.165109  3.443406    -0.116361    0.005439    0.100129  
      2.582555  2.582555  2.582555    -0.067291   -0.065035    0.023928  
      6.025961  2.582555  2.582555     0.067291    0.065035   -0.023928  
      2.582555  6.025961  2.582555     0.067291    0.065035   -0.023928  
      6.025961  6.025961  2.582555    -0.067291   -0.065035    0.023928  
      2.582555  2.582555  6.025961     0.067291    0.065035   -0.023928  
      6.025961  2.582555  6.025961    -0.067291   -0.065035    0.023928  
      2.582555  6.025961  6.025961    -0.067291   -0.065035    0.023928  
      6.025961  6.025961  6.025961     0.067291    0.065035   -0.023928  
      1.721703  0.000000  0.000000    -0.065455   -0.080479    0.041209  
      5.165109  0.000000  0.000000     0.065455    0.080479   -0.041209  
      1.721703  3.443406  0.000000     0.065455    0.080479   -0.041209  
      5.165109  3.443406  0.000000    -0.065455   -0.080479    0.041209  
      1.721703  0.000000  3.443406     0.065455    0.080479   -0.041209  
      5.165109  0.000000  3.443406    -0.065455   -0.080479    0.041209  
      1.721703  3.443406  3.443406    -0.065455   -0.080479    0.041209  
      5.165109  3.443406  3.443406     0.065455    0.080479   -0.041209  
      2.582555  0.860852  0.860852    -0.122118   -0.035770    0.053162  
      6.025961  0.860852  0.860852     0.122118    0.035770   -0.053162  
      2.582555  4.304258  0.860852     0.122118    0.035770   -0.053162  
      6.025961  4.304258  0.860852    -0.122118   -0.035770    0.053162  
      2.582555  0.860852  4.304258     0.122118    0.035770   -0.053162  
      6.025961  0.860852  4.304258    -0.122118   -0.035770    0.053162  
      2.582555  4.304258  4.304258    -0.122118   -0.035770    0.053162  
      6.025961  4.304258  4.304258     0.122118    0.035770   -0.053162  
      1.721703  1.721703  1.721703    -0.123954   -0.020326    0.035881  
      5.165109  1.721703  1.721703     0.123954    0.020326   -0.035881  
      1.721703  5.165109  1.721703     0.123954    0.020326   -0.035881  
      5.165109  5.165109  1.721703    -0.123954   -0.020326    0.035881  
      1.721703  1.721703  5.165109     0.123954    0.020326   -0.035881  
      5.165109  1.721703  5.165109    -0.123954   -0.020326    0.035881  
      1.721703  5.165109  5.165109    -0.123954   -0.020326    0.035881  
      5.165109  5.165109  5.165109     0.123954    0.020326   -0.035881  
 
 190 f/i=    0.000004 THz     0.000026 2PiTHz    0.000140 cm-1     0.000017 meV
             X         Y         Z           dx          dy          dz
      0.860852  2.582555  0.860852    -0.004540   -0.001180   -0.124912  
      4.304258  2.582555  0.860852    -0.004540   -0.001180   -0.124912  
      0.860852  6.025961  0.860852    -0.004540   -0.001180   -0.124912  
      4.304258  6.025961  0.860852    -0.004540   -0.001180   -0.124912  
      0.860852  2.582555  4.304258    -0.004540   -0.001180   -0.124912  
      4.304258  2.582555  4.304258    -0.004540   -0.001180   -0.124912  
      0.860852  6.025961  4.304258    -0.004540   -0.001180   -0.124912  
      4.304258  6.025961  4.304258    -0.004540   -0.001180   -0.124912  
      0.000000  0.000000  1.721703    -0.004540   -0.001180   -0.124912  
      3.443406  0.000000  1.721703    -0.004540   -0.001180   -0.124912  
      0.000000  3.443406  1.721703    -0.004540   -0.001180   -0.124912  
      3.443406  3.443406  1.721703    -0.004540   -0.001180   -0.124912  
      0.000000  0.000000  5.165109    -0.004540   -0.001180   -0.124912  
      3.443406  0.000000  5.165109    -0.004540   -0.001180   -0.124912  
      0.000000  3.443406  5.165109    -0.004540   -0.001180   -0.124912  
      3.443406  3.443406  5.165109    -0.004540   -0.001180   -0.124912  
      0.860852  0.860852  2.582555    -0.004540   -0.001180   -0.124912  
      4.304258  0.860852  2.582555    -0.004540   -0.001180   -0.124912  
      0.860852  4.304258  2.582555    -0.004540   -0.001180   -0.124912  
      4.304258  4.304258  2.582555    -0.004540   -0.001180   -0.124912  
      0.860852  0.860852  6.025961    -0.004540   -0.001180   -0.124912  
      4.304258  0.860852  6.025961    -0.004540   -0.001180   -0.124912  
      0.860852  4.304258  6.025961    -0.004540   -0.001180   -0.124912  
      4.304258  4.304258  6.025961    -0.004540   -0.001180   -0.124912  
      0.000000  1.721703  0.000000    -0.004540   -0.001180   -0.124912  
      3.443406  1.721703  0.000000    -0.004540   -0.001180   -0.124912  
      0.000000  5.165109  0.000000    -0.004540   -0.001180   -0.124912  
      3.443406  5.165109  0.000000    -0.004540   -0.001180   -0.124912  
      0.000000  1.721703  3.443406    -0.004540   -0.001180   -0.124912  
      3.443406  1.721703  3.443406    -0.004540   -0.001180   -0.124912  
      0.000000  5.165109  3.443406    -0.004540   -0.001180   -0.124912  
      3.443406  5.165109  3.443406    -0.004540   -0.001180   -0.124912  
      2.582555  2.582555  2.582555    -0.004540   -0.001180   -0.124912  
      6.025961  2.582555  2.582555    -0.004540   -0.001180   -0.124912  
      2.582555  6.025961  2.582555    -0.004540   -0.001180   -0.124912  
      6.025961  6.025961  2.582555    -0.004540   -0.001180   -0.124912  
      2.582555  2.582555  6.025961    -0.004540   -0.001180   -0.124912  
      6.025961  2.582555  6.025961    -0.004540   -0.001180   -0.124912  
      2.582555  6.025961  6.025961    -0.004540   -0.001180   -0.124912  
      6.025961  6.025961  6.025961    -0.004540   -0.001180   -0.124912  
      1.721703  0.000000  0.000000    -0.004540   -0.001180   -0.124912  
      5.165109  0.000000  0.000000    -0.004540   -0.001180   -0.124912  
      1.721703  3.443406  0.000000    -0.004540   -0.001180   -0.124912  
      5.165109  3.443406  0.000000    -0.004540   -0.001180   -0.124912  
      1.721703  0.000000  3.443406    -0.004540   -0.001180   -0.124912  
      5.165109  0.000000  3.443406    -0.004540   -0.001180   -0.124912  
      1.721703  3.443406  3.443406    -0.004540   -0.001180   -0.124912  
      5.165109  3.443406  3.443406    -0.004540   -0.001180   -0.124912  
      2.582555  0.860852  0.860852    -0.004540   -0.001180   -0.124912  
      6.025961  0.860852  0.860852    -0.004540   -0.001180   -0.124912  
      2.582555  4.304258  0.860852    -0.004540   -0.001180   -0.124912  
      6.025961  4.304258  0.860852    -0.004540   -0.001180   -0.124912  
      2.582555  0.860852  4.304258    -0.004540   -0.001180   -0.124912  
      6.025961  0.860852  4.304258    -0.004540   -0.001180   -0.124912  
      2.582555  4.304258  4.304258    -0.004540   -0.001180   -0.124912  
      6.025961  4.304258  4.304258    -0.004540   -0.001180   -0.124912  
      1.721703  1.721703  1.721703    -0.004540   -0.001180   -0.124912  
      5.165109  1.721703  1.721703    -0.004540   -0.001180   -0.124912  
      1.721703  5.165109  1.721703    -0.004540   -0.001180   -0.124912  
      5.165109  5.165109  1.721703    -0.004540   -0.001180   -0.124912  
      1.721703  1.721703  5.165109    -0.004540   -0.001180   -0.124912  
      5.165109  1.721703  5.165109    -0.004540   -0.001180   -0.124912  
      1.721703  5.165109  5.165109    -0.004540   -0.001180   -0.124912  
      5.165109  5.165109  5.165109    -0.004540   -0.001180   -0.124912  
 
 191 f/i=    0.000004 THz     0.000027 2PiTHz    0.000145 cm-1     0.000018 meV
             X         Y         Z           dx          dy          dz
      0.860852  2.582555  0.860852    -0.116382   -0.045370    0.004658  
      4.304258  2.582555  0.860852    -0.116382   -0.045370    0.004658  
      0.860852  6.025961  0.860852    -0.116382   -0.045370    0.004658  
      4.304258  6.025961  0.860852    -0.116382   -0.045370    0.004658  
      0.860852  2.582555  4.304258    -0.116382   -0.045370    0.004658  
      4.304258  2.582555  4.304258    -0.116382   -0.045370    0.004658  
      0.860852  6.025961  4.304258    -0.116382   -0.045370    0.004658  
      4.304258  6.025961  4.304258    -0.116382   -0.045370    0.004658  
      0.000000  0.000000  1.721703    -0.116382   -0.045370    0.004658  
      3.443406  0.000000  1.721703    -0.116382   -0.045370    0.004658  
      0.000000  3.443406  1.721703    -0.116382   -0.045370    0.004658  
      3.443406  3.443406  1.721703    -0.116382   -0.045370    0.004658  
      0.000000  0.000000  5.165109    -0.116382   -0.045370    0.004658  
      3.443406  0.000000  5.165109    -0.116382   -0.045370    0.004658  
      0.000000  3.443406  5.165109    -0.116382   -0.045370    0.004658  
      3.443406  3.443406  5.165109    -0.116382   -0.045370    0.004658  
      0.860852  0.860852  2.582555    -0.116382   -0.045370    0.004658  
      4.304258  0.860852  2.582555    -0.116382   -0.045370    0.004658  
      0.860852  4.304258  2.582555    -0.116382   -0.045370    0.004658  
      4.304258  4.304258  2.582555    -0.116382   -0.045370    0.004658  
      0.860852  0.860852  6.025961    -0.116382   -0.045370    0.004658  
      4.304258  0.860852  6.025961    -0.116382   -0.045370    0.004658  
      0.860852  4.304258  6.025961    -0.116382   -0.045370    0.004658  
      4.304258  4.304258  6.025961    -0.116382   -0.045370    0.004658  
      0.000000  1.721703  0.000000    -0.116382   -0.045370    0.004658  
      3.443406  1.721703  0.000000    -0.116382   -0.045370    0.004658  
      0.000000  5.165109  0.000000    -0.116382   -0.045370    0.004658  
      3.443406  5.165109  0.000000    -0.116382   -0.045370    0.004658  
      0.000000  1.721703  3.443406    -0.116382   -0.045370    0.004658  
      3.443406  1.721703  3.443406    -0.116382   -0.045370    0.004658  
      0.000000  5.165109  3.443406    -0.116382   -0.045370    0.004658  
      3.443406  5.165109  3.443406    -0.116382   -0.045370    0.004658  
      2.582555  2.582555  2.582555    -0.116382   -0.045370    0.004658  
      6.025961  2.582555  2.582555    -0.116382   -0.045370    0.004658  
      2.582555  6.025961  2.582555    -0.116382   -0.045370    0.004658  
      6.025961  6.025961  2.582555    -0.116382   -0.045370    0.004658  
      2.582555  2.582555  6.025961    -0.116382   -0.045370    0.004658  
      6.025961  2.582555  6.025961    -0.116382   -0.045370    0.004658  
      2.582555  6.025961  6.025961    -0.116382   -0.045370    0.004658  
      6.025961  6.025961  6.025961    -0.116382   -0.045370    0.004658  
      1.721703  0.000000  0.000000    -0.116382   -0.045370    0.004658  
      5.165109  0.000000  0.000000    -0.116382   -0.045370    0.004658  
      1.721703  3.443406  0.000000    -0.116382   -0.045370    0.004658  
      5.165109  3.443406  0.000000    -0.116382   -0.045370    0.004658  
      1.721703  0.000000  3.443406    -0.116382   -0.045370    0.004658  
      5.165109  0.000000  3.443406    -0.116382   -0.045370    0.004658  
      1.721703  3.443406  3.443406    -0.116382   -0.045370    0.004658  
      5.165109  3.443406  3.443406    -0.116382   -0.045370    0.004658  
      2.582555  0.860852  0.860852    -0.116382   -0.045370    0.004658  
      6.025961  0.860852  0.860852    -0.116382   -0.045370    0.004658  
      2.582555  4.304258  0.860852    -0.116382   -0.045370    0.004658  
      6.025961  4.304258  0.860852    -0.116382   -0.045370    0.004658  
      2.582555  0.860852  4.304258    -0.116382   -0.045370    0.004658  
      6.025961  0.860852  4.304258    -0.116382   -0.045370    0.004658  
      2.582555  4.304258  4.304258    -0.116382   -0.045370    0.004658  
      6.025961  4.304258  4.304258    -0.116382   -0.045370    0.004658  
      1.721703  1.721703  1.721703    -0.116382   -0.045370    0.004658  
      5.165109  1.721703  1.721703    -0.116382   -0.045370    0.004658  
      1.721703  5.165109  1.721703    -0.116382   -0.045370    0.004658  
      5.165109  5.165109  1.721703    -0.116382   -0.045370    0.004658  
      1.721703  1.721703  5.165109    -0.116382   -0.045370    0.004658  
      5.165109  1.721703  5.165109    -0.116382   -0.045370    0.004658  
      1.721703  5.165109  5.165109    -0.116382   -0.045370    0.004658  
      5.165109  5.165109  5.165109    -0.116382   -0.045370    0.004658  
 
 192 f/i=    0.000004 THz     0.000028 2PiTHz    0.000146 cm-1     0.000018 meV
             X         Y         Z           dx          dy          dz
      0.860852  2.582555  0.860852    -0.045382    0.116470    0.000549  
      4.304258  2.582555  0.860852    -0.045382    0.116470    0.000549  
      0.860852  6.025961  0.860852    -0.045382    0.116470    0.000549  
      4.304258  6.025961  0.860852    -0.045382    0.116470    0.000549  
      0.860852  2.582555  4.304258    -0.045382    0.116470    0.000549  
      4.304258  2.582555  4.304258    -0.045382    0.116470    0.000549  
      0.860852  6.025961  4.304258    -0.045382    0.116470    0.000549  
      4.304258  6.025961  4.304258    -0.045382    0.116470    0.000549  
      0.000000  0.000000  1.721703    -0.045382    0.116470    0.000549  
      3.443406  0.000000  1.721703    -0.045382    0.116470    0.000549  
      0.000000  3.443406  1.721703    -0.045382    0.116470    0.000549  
      3.443406  3.443406  1.721703    -0.045382    0.116470    0.000549  
      0.000000  0.000000  5.165109    -0.045382    0.116470    0.000549  
      3.443406  0.000000  5.165109    -0.045382    0.116470    0.000549  
      0.000000  3.443406  5.165109    -0.045382    0.116470    0.000549  
      3.443406  3.443406  5.165109    -0.045382    0.116470    0.000549  
      0.860852  0.860852  2.582555    -0.045382    0.116470    0.000549  
      4.304258  0.860852  2.582555    -0.045382    0.116470    0.000549  
      0.860852  4.304258  2.582555    -0.045382    0.116470    0.000549  
      4.304258  4.304258  2.582555    -0.045382    0.116470    0.000549  
      0.860852  0.860852  6.025961    -0.045382    0.116470    0.000549  
      4.304258  0.860852  6.025961    -0.045382    0.116470    0.000549  
      0.860852  4.304258  6.025961    -0.045382    0.116470    0.000549  
      4.304258  4.304258  6.025961    -0.045382    0.116470    0.000549  
      0.000000  1.721703  0.000000    -0.045382    0.116470    0.000549  
      3.443406  1.721703  0.000000    -0.045382    0.116470    0.000549  
      0.000000  5.165109  0.000000    -0.045382    0.116470    0.000549  
      3.443406  5.165109  0.000000    -0.045382    0.116470    0.000549  
      0.000000  1.721703  3.443406    -0.045382    0.116470    0.000549  
      3.443406  1.721703  3.443406    -0.045382    0.116470    0.000549  
      0.000000  5.165109  3.443406    -0.045382    0.116470    0.000549  
      3.443406  5.165109  3.443406    -0.045382    0.116470    0.000549  
      2.582555  2.582555  2.582555    -0.045382    0.116470    0.000549  
      6.025961  2.582555  2.582555    -0.045382    0.116470    0.000549  
      2.582555  6.025961  2.582555    -0.045382    0.116470    0.000549  
      6.025961  6.025961  2.582555    -0.045382    0.116470    0.000549  
      2.582555  2.582555  6.025961    -0.045382    0.116470    0.000549  
      6.025961  2.582555  6.025961    -0.045382    0.116470    0.000549  
      2.582555  6.025961  6.025961    -0.045382    0.116470    0.000549  
      6.025961  6.025961  6.025961    -0.045382    0.116470    0.000549  
      1.721703  0.000000  0.000000    -0.045382    0.116470    0.000549  
      5.165109  0.000000  0.000000    -0.045382    0.116470    0.000549  
      1.721703  3.443406  0.000000    -0.045382    0.116470    0.000549  
      5.165109  3.443406  0.000000    -0.045382    0.116470    0.000549  
      1.721703  0.000000  3.443406    -0.045382    0.116470    0.000549  
      5.165109  0.000000  3.443406    -0.045382    0.116470    0.000549  
      1.721703  3.443406  3.443406    -0.045382    0.116470    0.000549  
      5.165109  3.443406  3.443406    -0.045382    0.116470    0.000549  
      2.582555  0.860852  0.860852    -0.045382    0.116470    0.000549  
      6.025961  0.860852  0.860852    -0.045382    0.116470    0.000549  
      2.582555  4.304258  0.860852    -0.045382    0.116470    0.000549  
      6.025961  4.304258  0.860852    -0.045382    0.116470    0.000549  
      2.582555  0.860852  4.304258    -0.045382    0.116470    0.000549  
      6.025961  0.860852  4.304258    -0.045382    0.116470    0.000549  
      2.582555  4.304258  4.304258    -0.045382    0.116470    0.000549  
      6.025961  4.304258  4.304258    -0.045382    0.116470    0.000549  
      1.721703  1.721703  1.721703    -0.045382    0.116470    0.000549  
      5.165109  1.721703  1.721703    -0.045382    0.116470    0.000549  
      1.721703  5.165109  1.721703    -0.045382    0.116470    0.000549  
      5.165109  5.165109  1.721703    -0.045382    0.116470    0.000549  
      1.721703  1.721703  5.165109    -0.045382    0.116470    0.000549  
      5.165109  1.721703  5.165109    -0.045382    0.116470    0.000549  
      1.721703  5.165109  5.165109    -0.045382    0.116470    0.000549  
      5.165109  5.165109  5.165109    -0.045382    0.116470    0.000549  
 


--------------------------------------------------------------------------------------------------------



 ELASTIC MODULI CONTR FROM IONIC RELAXATION (kBar)
 Direction    XX          YY          ZZ          XY          YZ          ZX
 --------------------------------------------------------------------------------
 XX          -0.0000     -0.0000     -0.0000     -0.0000     -0.0000      0.0000
 YY          -0.0000     -0.0000     -0.0000     -0.0000     -0.0000      0.0000
 ZZ          -0.0000     -0.0000     -0.0000     -0.0000     -0.0000      0.0000
 XY          -0.0000     -0.0000     -0.0000   -343.3811     -0.0000      0.0000
 YZ          -0.0000     -0.0000     -0.0000     -0.0000   -343.3811     -0.0000
 ZX           0.0000      0.0000      0.0000      0.0000     -0.0000   -343.3811
 --------------------------------------------------------------------------------



--------------------------------------------------------------------------------------------------------


     LOOP+:  cpu time  771.6027: real time  771.8831
    4ORBIT:  cpu time    0.0000: real time    0.0000

 total amount of memory used by VASP MPI-rank0    67068. kBytes
=======================================================================

   base      :      30000. kBytes
   nonl-proj :      13934. kBytes
   fftplans  :       4537. kBytes
   grid      :       5806. kBytes
   one-center:        196. kBytes
   wavefun   :      12595. kBytes
 
  
  
 General timing and accounting informations for this job:
 ========================================================
  
                  Total CPU time used (sec):      779.591
                            User time (sec):      775.172
                          System time (sec):        4.420
                         Elapsed time (sec):      780.669
  
                   Maximum memory used (kb):      370924.
                   Average memory used (kb):           0.
  
                          Minor page faults:        39304
                          Major page faults:           35
                 Voluntary context switches:          861
