# Thermal properties / unit cell (natom)

unit:
  temperature:   K
  free_energy:   kJ/mol
  entropy:       J/K/mol
  heat_capacity: J/K/mol

natom: 8    
cutoff_frequency:    0.000
num_modes: 2654208
num_integrated_modes: 2654208

zero_point_energy:     153.9134256
high_T_entropy:        413.6862475

thermal_properties:
- temperature:         0.0000000
  free_energy:       153.9134256
  entropy:             0.0000000
  heat_capacity:       0.0000000
  energy:            153.9134256

- temperature:         2.0000000
  free_energy:       153.9134256
  entropy:             0.0000000
  heat_capacity:       0.0000000
  energy:            153.9134256

- temperature:         4.0000000
  free_energy:       153.9134256
  entropy:             0.0000054
  heat_capacity:       0.0000366
  energy:            153.9134257

- temperature:         6.0000000
  free_energy:       153.9134256
  entropy:             0.0000508
  heat_capacity:       0.0002291
  energy:            153.9134259

- temperature:         8.0000000
  free_energy:       153.9134254
  entropy:             0.0001630
  heat_capacity:       0.0006011
  energy:            153.9134267

- temperature:        10.0000000
  free_energy:       153.9134249
  entropy:             0.0003563
  heat_capacity:       0.0011950
  energy:            153.9134284

- temperature:        12.0000000
  free_energy:       153.9134239
  entropy:             0.0006470
  heat_capacity:       0.0020739
  energy:            153.9134317

- temperature:        14.0000000
  free_energy:       153.9134222
  entropy:             0.0010539
  heat_capacity:       0.0032995
  energy:            153.9134370

- temperature:        16.0000000
  free_energy:       153.9134196
  entropy:             0.0015963
  heat_capacity:       0.0049327
  energy:            153.9134451

- temperature:        18.0000000
  free_energy:       153.9134157
  entropy:             0.0022937
  heat_capacity:       0.0070342
  energy:            153.9134570

- temperature:        20.0000000
  free_energy:       153.9134103
  entropy:             0.0031661
  heat_capacity:       0.0096656
  energy:            153.9134736

- temperature:        22.0000000
  free_energy:       153.9134029
  entropy:             0.0042336
  heat_capacity:       0.0128893
  energy:            153.9134961

- temperature:        24.0000000
  free_energy:       153.9133932
  entropy:             0.0055164
  heat_capacity:       0.0167688
  energy:            153.9135256

- temperature:        26.0000000
  free_energy:       153.9133807
  entropy:             0.0070353
  heat_capacity:       0.0213688
  energy:            153.9135636

- temperature:        28.0000000
  free_energy:       153.9133649
  entropy:             0.0088109
  heat_capacity:       0.0267557
  energy:            153.9136116

- temperature:        30.0000000
  free_energy:       153.9133453
  entropy:             0.0108646
  heat_capacity:       0.0329974
  energy:            153.9136712

- temperature:        32.0000000
  free_energy:       153.9133212
  entropy:             0.0132178
  heat_capacity:       0.0401639
  energy:            153.9137442

- temperature:        34.0000000
  free_energy:       153.9132922
  entropy:             0.0158925
  heat_capacity:       0.0483273
  energy:            153.9138325

- temperature:        36.0000000
  free_energy:       153.9132574
  entropy:             0.0189109
  heat_capacity:       0.0575621
  energy:            153.9139382

- temperature:        38.0000000
  free_energy:       153.9132163
  entropy:             0.0222960
  heat_capacity:       0.0679459
  energy:            153.9140636

- temperature:        40.0000000
  free_energy:       153.9131680
  entropy:             0.0260710
  heat_capacity:       0.0795595
  energy:            153.9142108

- temperature:        42.0000000
  free_energy:       153.9131117
  entropy:             0.0302600
  heat_capacity:       0.0924875
  energy:            153.9143827

- temperature:        44.0000000
  free_energy:       153.9130467
  entropy:             0.0348877
  heat_capacity:       0.1068190
  energy:            153.9145817

- temperature:        46.0000000
  free_energy:       153.9129719
  entropy:             0.0399795
  heat_capacity:       0.1226483
  energy:            153.9148109

- temperature:        48.0000000
  free_energy:       153.9128864
  entropy:             0.0455617
  heat_capacity:       0.1400754
  energy:            153.9150734

- temperature:        50.0000000
  free_energy:       153.9127893
  entropy:             0.0516617
  heat_capacity:       0.1592067
  energy:            153.9153724

- temperature:        52.0000000
  free_energy:       153.9126794
  entropy:             0.0583079
  heat_capacity:       0.1801561
  energy:            153.9157114

- temperature:        54.0000000
  free_energy:       153.9125557
  entropy:             0.0655299
  heat_capacity:       0.2030449
  energy:            153.9160943

- temperature:        56.0000000
  free_energy:       153.9124169
  entropy:             0.0733588
  heat_capacity:       0.2280028
  energy:            153.9165250

- temperature:        58.0000000
  free_energy:       153.9122618
  entropy:             0.0818269
  heat_capacity:       0.2551682
  energy:            153.9170078

- temperature:        60.0000000
  free_energy:       153.9120891
  entropy:             0.0909682
  heat_capacity:       0.2846881
  energy:            153.9175472

- temperature:        62.0000000
  free_energy:       153.9118975
  entropy:             0.1008183
  heat_capacity:       0.3167183
  energy:            153.9181482

- temperature:        64.0000000
  free_energy:       153.9116854
  entropy:             0.1114144
  heat_capacity:       0.3514230
  energy:            153.9188159

- temperature:        66.0000000
  free_energy:       153.9114513
  entropy:             0.1227955
  heat_capacity:       0.3889746
  energy:            153.9195558

- temperature:        68.0000000
  free_energy:       153.9111936
  entropy:             0.1350025
  heat_capacity:       0.4295527
  energy:            153.9203738

- temperature:        70.0000000
  free_energy:       153.9109107
  entropy:             0.1480778
  heat_capacity:       0.4733439
  energy:            153.9212761

- temperature:        72.0000000
  free_energy:       153.9106007
  entropy:             0.1620657
  heat_capacity:       0.5205402
  energy:            153.9222694

- temperature:        74.0000000
  free_energy:       153.9102618
  entropy:             0.1770123
  heat_capacity:       0.5713383
  energy:            153.9233607

- temperature:        76.0000000
  free_energy:       153.9098920
  entropy:             0.1929650
  heat_capacity:       0.6259385
  energy:            153.9245573

- temperature:        78.0000000
  free_energy:       153.9094892
  entropy:             0.2099730
  heat_capacity:       0.6845431
  energy:            153.9258671

- temperature:        80.0000000
  free_energy:       153.9090514
  entropy:             0.2280868
  heat_capacity:       0.7473555
  energy:            153.9272983

- temperature:        82.0000000
  free_energy:       153.9085761
  entropy:             0.2473583
  heat_capacity:       0.8145788
  energy:            153.9288595

- temperature:        84.0000000
  free_energy:       153.9080611
  entropy:             0.2678402
  heat_capacity:       0.8864141
  energy:            153.9305597

- temperature:        86.0000000
  free_energy:       153.9075039
  entropy:             0.2895866
  heat_capacity:       0.9630600
  energy:            153.9324084

- temperature:        88.0000000
  free_energy:       153.9069019
  entropy:             0.3126520
  heat_capacity:       1.0447110
  energy:            153.9344153

- temperature:        90.0000000
  free_energy:       153.9062524
  entropy:             0.3370920
  heat_capacity:       1.1315561
  energy:            153.9365907

- temperature:        92.0000000
  free_energy:       153.9055526
  entropy:             0.3629621
  heat_capacity:       1.2237785
  energy:            153.9389451

- temperature:        94.0000000
  free_energy:       153.9047995
  entropy:             0.3903184
  heat_capacity:       1.3215542
  energy:            153.9414895

- temperature:        96.0000000
  free_energy:       153.9039903
  entropy:             0.4192171
  heat_capacity:       1.4250511
  energy:            153.9442351

- temperature:        98.0000000
  free_energy:       153.9031216
  entropy:             0.4497142
  heat_capacity:       1.5344286
  energy:            153.9471936

- temperature:       100.0000000
  free_energy:       153.9021903
  entropy:             0.4818654
  heat_capacity:       1.6498369
  energy:            153.9503769

- temperature:       102.0000000
  free_energy:       153.9011930
  entropy:             0.5157260
  heat_capacity:       1.7714166
  energy:            153.9537971

- temperature:       104.0000000
  free_energy:       153.9001262
  entropy:             0.5513508
  heat_capacity:       1.8992981
  energy:            153.9574667

- temperature:       106.0000000
  free_energy:       153.8989864
  entropy:             0.5887938
  heat_capacity:       2.0336016
  energy:            153.9613985

- temperature:       108.0000000
  free_energy:       153.8977698
  entropy:             0.6281081
  heat_capacity:       2.1744368
  energy:            153.9656055

- temperature:       110.0000000
  free_energy:       153.8964727
  entropy:             0.6693457
  heat_capacity:       2.3219029
  energy:            153.9701007

- temperature:       112.0000000
  free_energy:       153.8950911
  entropy:             0.7125577
  heat_capacity:       2.4760886
  energy:            153.9748976

- temperature:       114.0000000
  free_energy:       153.8936211
  entropy:             0.7577938
  heat_capacity:       2.6370722
  energy:            153.9800096

- temperature:       116.0000000
  free_energy:       153.8920586
  entropy:             0.8051025
  heat_capacity:       2.8049220
  energy:            153.9854504

- temperature:       118.0000000
  free_energy:       153.8903993
  entropy:             0.8545307
  heat_capacity:       2.9796961
  energy:            153.9912339

- temperature:       120.0000000
  free_energy:       153.8886390
  entropy:             0.9061240
  heat_capacity:       3.1614429
  energy:            153.9973739

- temperature:       122.0000000
  free_energy:       153.8867733
  entropy:             0.9599265
  heat_capacity:       3.3502016
  energy:            154.0038843

- temperature:       124.0000000
  free_energy:       153.8847978
  entropy:             1.0159806
  heat_capacity:       3.5460025
  energy:            154.0107794

- temperature:       126.0000000
  free_energy:       153.8827079
  entropy:             1.0743270
  heat_capacity:       3.7488671
  energy:            154.0180731

- temperature:       128.0000000
  free_energy:       153.8804989
  entropy:             1.1350050
  heat_capacity:       3.9588089
  energy:            154.0257796

- temperature:       130.0000000
  free_energy:       153.8781663
  entropy:             1.1980520
  heat_capacity:       4.1758338
  energy:            154.0339130

- temperature:       132.0000000
  free_energy:       153.8757051
  entropy:             1.2635039
  heat_capacity:       4.3999402
  energy:            154.0424876

- temperature:       134.0000000
  free_energy:       153.8731106
  entropy:             1.3313946
  heat_capacity:       4.6311199
  energy:            154.0515175

- temperature:       136.0000000
  free_energy:       153.8703779
  entropy:             1.4017568
  heat_capacity:       4.8693582
  energy:            154.0610168

- temperature:       138.0000000
  free_energy:       153.8675019
  entropy:             1.4746210
  heat_capacity:       5.1146348
  energy:            154.0709996

- temperature:       140.0000000
  free_energy:       153.8644777
  entropy:             1.5500165
  heat_capacity:       5.3669235
  energy:            154.0814800

- temperature:       142.0000000
  free_energy:       153.8613002
  entropy:             1.6279706
  heat_capacity:       5.6261934
  energy:            154.0924720

- temperature:       144.0000000
  free_energy:       153.8579641
  entropy:             1.7085091
  heat_capacity:       5.8924087
  energy:            154.1039894

- temperature:       146.0000000
  free_energy:       153.8544644
  entropy:             1.7916564
  heat_capacity:       6.1655296
  energy:            154.1160462

- temperature:       148.0000000
  free_energy:       153.8507957
  entropy:             1.8774351
  heat_capacity:       6.4455122
  energy:            154.1286561

- temperature:       150.0000000
  free_energy:       153.8469529
  entropy:             1.9658662
  heat_capacity:       6.7323092
  energy:            154.1418328

- temperature:       152.0000000
  free_energy:       153.8429305
  entropy:             2.0569696
  heat_capacity:       7.0258701
  energy:            154.1555899

- temperature:       154.0000000
  free_energy:       153.8387232
  entropy:             2.1507634
  heat_capacity:       7.3261415
  energy:            154.1699408

- temperature:       156.0000000
  free_energy:       153.8343256
  entropy:             2.2472644
  heat_capacity:       7.6330673
  energy:            154.1848989

- temperature:       158.0000000
  free_energy:       153.8297323
  entropy:             2.3464880
  heat_capacity:       7.9465891
  energy:            154.2004774

- temperature:       160.0000000
  free_energy:       153.8249378
  entropy:             2.4484483
  heat_capacity:       8.2666465
  energy:            154.2166896

- temperature:       162.0000000
  free_energy:       153.8199367
  entropy:             2.5531582
  heat_capacity:       8.5931771
  energy:            154.2335483

- temperature:       164.0000000
  free_energy:       153.8147234
  entropy:             2.6606292
  heat_capacity:       8.9261169
  energy:            154.2510666

- temperature:       166.0000000
  free_energy:       153.8092923
  entropy:             2.7708716
  heat_capacity:       9.2654004
  energy:            154.2692570

- temperature:       168.0000000
  free_energy:       153.8036380
  entropy:             2.8838947
  heat_capacity:       9.6109606
  energy:            154.2881323

- temperature:       170.0000000
  free_energy:       153.7977549
  entropy:             2.9997065
  heat_capacity:       9.9627295
  energy:            154.3077050

- temperature:       172.0000000
  free_energy:       153.7916373
  entropy:             3.1183140
  heat_capacity:      10.3206381
  energy:            154.3279874

- temperature:       174.0000000
  free_energy:       153.7852798
  entropy:             3.2397232
  heat_capacity:      10.6846161
  energy:            154.3489916

- temperature:       176.0000000
  free_energy:       153.7786766
  entropy:             3.3639389
  heat_capacity:      11.0545928
  energy:            154.3707298

- temperature:       178.0000000
  free_energy:       153.7718221
  entropy:             3.4909651
  heat_capacity:      11.4304965
  energy:            154.3932139

- temperature:       180.0000000
  free_energy:       153.7647108
  entropy:             3.6208048
  heat_capacity:      11.8122547
  energy:            154.4164557

- temperature:       182.0000000
  free_energy:       153.7573370
  entropy:             3.7534602
  heat_capacity:      12.1997945
  energy:            154.4404668

- temperature:       184.0000000
  free_energy:       153.7496951
  entropy:             3.8889324
  heat_capacity:      12.5930423
  energy:            154.4652587

- temperature:       186.0000000
  free_energy:       153.7417794
  entropy:             4.0272220
  heat_capacity:      12.9919241
  energy:            154.4908427

- temperature:       188.0000000
  free_energy:       153.7335844
  entropy:             4.1683284
  heat_capacity:      13.3963652
  energy:            154.5172301

- temperature:       190.0000000
  free_energy:       153.7251042
  entropy:             4.3122505
  heat_capacity:      13.8062907
  energy:            154.5444318

- temperature:       192.0000000
  free_energy:       153.7163335
  entropy:             4.4589864
  heat_capacity:      14.2216251
  energy:            154.5724589

- temperature:       194.0000000
  free_energy:       153.7072664
  entropy:             4.6085333
  heat_capacity:      14.6422924
  energy:            154.6013219

- temperature:       196.0000000
  free_energy:       153.6978975
  entropy:             4.7608881
  heat_capacity:      15.0682165
  energy:            154.6310315

- temperature:       198.0000000
  free_energy:       153.6882210
  entropy:             4.9160465
  heat_capacity:      15.4993207
  energy:            154.6615982

- temperature:       200.0000000
  free_energy:       153.6782314
  entropy:             5.0740040
  heat_capacity:      15.9355279
  energy:            154.6930322

- temperature:       202.0000000
  free_energy:       153.6679231
  entropy:             5.2347552
  heat_capacity:      16.3767608
  energy:            154.7253437

- temperature:       204.0000000
  free_energy:       153.6572905
  entropy:             5.3982942
  heat_capacity:      16.8229416
  energy:            154.7585426

- temperature:       206.0000000
  free_energy:       153.6463281
  entropy:             5.5646145
  heat_capacity:      17.2739923
  energy:            154.7926387

- temperature:       208.0000000
  free_energy:       153.6350302
  entropy:             5.7337091
  heat_capacity:      17.7298342
  energy:            154.8276417

- temperature:       210.0000000
  free_energy:       153.6233914
  entropy:             5.9055703
  heat_capacity:      18.1903888
  energy:            154.8635612

- temperature:       212.0000000
  free_energy:       153.6114061
  entropy:             6.0801899
  heat_capacity:      18.6555767
  energy:            154.9004064

- temperature:       214.0000000
  free_energy:       153.5990688
  entropy:             6.2575593
  heat_capacity:      19.1253186
  energy:            154.9381865

- temperature:       216.0000000
  free_energy:       153.5863741
  entropy:             6.4376693
  heat_capacity:      19.5995346
  energy:            154.9769106

- temperature:       218.0000000
  free_energy:       153.5733163
  entropy:             6.6205103
  heat_capacity:      20.0781446
  energy:            155.0165876

- temperature:       220.0000000
  free_energy:       153.5598902
  entropy:             6.8060722
  heat_capacity:      20.5610682
  energy:            155.0572261

- temperature:       222.0000000
  free_energy:       153.5460902
  entropy:             6.9943443
  heat_capacity:      21.0482245
  energy:            155.0988347

- temperature:       224.0000000
  free_energy:       153.5319110
  entropy:             7.1853158
  heat_capacity:      21.5395326
  energy:            155.1414217

- temperature:       226.0000000
  free_energy:       153.5173472
  entropy:             7.3789750
  heat_capacity:      22.0349111
  energy:            155.1849955

- temperature:       228.0000000
  free_energy:       153.5023933
  entropy:             7.5753102
  heat_capacity:      22.5342783
  energy:            155.2295641

- temperature:       230.0000000
  free_energy:       153.4870442
  entropy:             7.7743090
  heat_capacity:      23.0375525
  energy:            155.2751352

- temperature:       232.0000000
  free_energy:       153.4712943
  entropy:             7.9759590
  heat_capacity:      23.5446514
  energy:            155.3217168

- temperature:       234.0000000
  free_energy:       153.4551386
  entropy:             8.1802469
  heat_capacity:      24.0554927
  energy:            155.3693163

- temperature:       236.0000000
  free_energy:       153.4385716
  entropy:             8.3871594
  heat_capacity:      24.5699939
  energy:            155.4179412

- temperature:       238.0000000
  free_energy:       153.4215882
  entropy:             8.5966828
  heat_capacity:      25.0880723
  energy:            155.4675987

- temperature:       240.0000000
  free_energy:       153.4041831
  entropy:             8.8088030
  heat_capacity:      25.6096448
  energy:            155.5182958

- temperature:       242.0000000
  free_energy:       153.3863513
  entropy:             9.0235054
  heat_capacity:      26.1346286
  energy:            155.5700396

- temperature:       244.0000000
  free_energy:       153.3680874
  entropy:             9.2407753
  heat_capacity:      26.6629403
  energy:            155.6228366

- temperature:       246.0000000
  free_energy:       153.3493864
  entropy:             9.4605977
  heat_capacity:      27.1944967
  energy:            155.6766935

- temperature:       248.0000000
  free_energy:       153.3302433
  entropy:             9.6829571
  heat_capacity:      27.7292146
  energy:            155.7316167

- temperature:       250.0000000
  free_energy:       153.3106529
  entropy:             9.9078378
  heat_capacity:      28.2670104
  energy:            155.7876124

- temperature:       252.0000000
  free_energy:       153.2906103
  entropy:            10.1352239
  heat_capacity:      28.8078009
  energy:            155.8446867

- temperature:       254.0000000
  free_energy:       153.2701104
  entropy:            10.3650990
  heat_capacity:      29.3515026
  energy:            155.9028455

- temperature:       256.0000000
  free_energy:       153.2491483
  entropy:            10.5974467
  heat_capacity:      29.8980323
  energy:            155.9620946

- temperature:       258.0000000
  free_energy:       153.2277190
  entropy:            10.8322501
  heat_capacity:      30.4473066
  energy:            156.0224395

- temperature:       260.0000000
  free_energy:       153.2058176
  entropy:            11.0694922
  heat_capacity:      30.9992425
  energy:            156.0838856

- temperature:       262.0000000
  free_energy:       153.1834394
  entropy:            11.3091557
  heat_capacity:      31.5537568
  energy:            156.1464382

- temperature:       264.0000000
  free_energy:       153.1605794
  entropy:            11.5512231
  heat_capacity:      32.1107669
  energy:            156.2101023

- temperature:       266.0000000
  free_energy:       153.1372329
  entropy:            11.7956765
  heat_capacity:      32.6701900
  energy:            156.2748829

- temperature:       268.0000000
  free_energy:       153.1133951
  entropy:            12.0424981
  heat_capacity:      33.2319437
  energy:            156.3407846

- temperature:       270.0000000
  free_energy:       153.0890613
  entropy:            12.2916696
  heat_capacity:      33.7959459
  energy:            156.4078121

- temperature:       272.0000000
  free_energy:       153.0642269
  entropy:            12.5431726
  heat_capacity:      34.3621147
  energy:            156.4759698

- temperature:       274.0000000
  free_energy:       153.0388871
  entropy:            12.7969886
  heat_capacity:      34.9303686
  energy:            156.5452620

- temperature:       276.0000000
  free_energy:       153.0130374
  entropy:            13.0530987
  heat_capacity:      35.5006264
  energy:            156.6156926

- temperature:       278.0000000
  free_energy:       152.9866732
  entropy:            13.3114841
  heat_capacity:      36.0728073
  energy:            156.6872658

- temperature:       280.0000000
  free_energy:       152.9597900
  entropy:            13.5721255
  heat_capacity:      36.6468310
  energy:            156.7599851

- temperature:       282.0000000
  free_energy:       152.9323832
  entropy:            13.8350038
  heat_capacity:      37.2226175
  energy:            156.8338543

- temperature:       284.0000000
  free_energy:       152.9044485
  entropy:            14.1000994
  heat_capacity:      37.8000874
  energy:            156.9088767

- temperature:       286.0000000
  free_energy:       152.8759813
  entropy:            14.3673928
  heat_capacity:      38.3791617
  energy:            156.9850557

- temperature:       288.0000000
  free_energy:       152.8469774
  entropy:            14.6368643
  heat_capacity:      38.9597620
  energy:            157.0623944

- temperature:       290.0000000
  free_energy:       152.8174324
  entropy:            14.9084940
  heat_capacity:      39.5418104
  energy:            157.1408957

- temperature:       292.0000000
  free_energy:       152.7873420
  entropy:            15.1822619
  heat_capacity:      40.1252298
  energy:            157.2205625

- temperature:       294.0000000
  free_energy:       152.7567020
  entropy:            15.4581480
  heat_capacity:      40.7099433
  energy:            157.3013975

- temperature:       296.0000000
  free_energy:       152.7255080
  entropy:            15.7361319
  heat_capacity:      41.2958750
  energy:            157.3834031

- temperature:       298.0000000
  free_energy:       152.6937561
  entropy:            16.0161935
  heat_capacity:      41.8829495
  energy:            157.4665817

- temperature:       300.0000000
  free_energy:       152.6614419
  entropy:            16.2983124
  heat_capacity:      42.4710922
  energy:            157.5509356

- temperature:       302.0000000
  free_energy:       152.6285615
  entropy:            16.5824679
  heat_capacity:      43.0602290
  energy:            157.6364668

- temperature:       304.0000000
  free_energy:       152.5951107
  entropy:            16.8686396
  heat_capacity:      43.6502868
  energy:            157.7231771

- temperature:       306.0000000
  free_energy:       152.5610856
  entropy:            17.1568069
  heat_capacity:      44.2411930
  energy:            157.8110685

- temperature:       308.0000000
  free_energy:       152.5264821
  entropy:            17.4469490
  heat_capacity:      44.8328759
  energy:            157.9001424

- temperature:       310.0000000
  free_energy:       152.4912965
  entropy:            17.7390451
  heat_capacity:      45.4252645
  energy:            157.9904005

- temperature:       312.0000000
  free_energy:       152.4555247
  entropy:            18.0330745
  heat_capacity:      46.0182887
  energy:            158.0818439

- temperature:       314.0000000
  free_energy:       152.4191629
  entropy:            18.3290162
  heat_capacity:      46.6118793
  energy:            158.1744740

- temperature:       316.0000000
  free_energy:       152.3822073
  entropy:            18.6268494
  heat_capacity:      47.2059677
  energy:            158.2682918

- temperature:       318.0000000
  free_energy:       152.3446543
  entropy:            18.9265531
  heat_capacity:      47.8004862
  energy:            158.3632981

- temperature:       320.0000000
  free_energy:       152.3064999
  entropy:            19.2281064
  heat_capacity:      48.3953683
  energy:            158.4594939

- temperature:       322.0000000
  free_energy:       152.2677406
  entropy:            19.5314882
  heat_capacity:      48.9905479
  energy:            158.5568798

- temperature:       324.0000000
  free_energy:       152.2283727
  entropy:            19.8366776
  heat_capacity:      49.5859601
  energy:            158.6554563

- temperature:       326.0000000
  free_energy:       152.1883927
  entropy:            20.1436536
  heat_capacity:      50.1815408
  energy:            158.7552238

- temperature:       328.0000000
  free_energy:       152.1477970
  entropy:            20.4523950
  heat_capacity:      50.7772269
  energy:            158.8561825

- temperature:       330.0000000
  free_energy:       152.1065820
  entropy:            20.7628810
  heat_capacity:      51.3729562
  energy:            158.9583327

- temperature:       332.0000000
  free_energy:       152.0647443
  entropy:            21.0750905
  heat_capacity:      51.9686672
  energy:            159.0616743

- temperature:       334.0000000
  free_energy:       152.0222805
  entropy:            21.3890026
  heat_capacity:      52.5642997
  energy:            159.1662073

- temperature:       336.0000000
  free_energy:       151.9791871
  entropy:            21.7045961
  heat_capacity:      53.1597942
  energy:            159.2719314

- temperature:       338.0000000
  free_energy:       151.9354610
  entropy:            22.0218503
  heat_capacity:      53.7550924
  energy:            159.3788464

- temperature:       340.0000000
  free_energy:       151.8910987
  entropy:            22.3407441
  heat_capacity:      54.3501366
  energy:            159.4869516

- temperature:       342.0000000
  free_energy:       151.8460969
  entropy:            22.6612567
  heat_capacity:      54.9448703
  energy:            159.5962467

- temperature:       344.0000000
  free_energy:       151.8004526
  entropy:            22.9833672
  heat_capacity:      55.5392380
  energy:            159.7067309

- temperature:       346.0000000
  free_energy:       151.7541624
  entropy:            23.3070549
  heat_capacity:      56.1331851
  energy:            159.8184034

- temperature:       348.0000000
  free_energy:       151.7072233
  entropy:            23.6322989
  heat_capacity:      56.7266579
  energy:            159.9312633

- temperature:       350.0000000
  free_energy:       151.6596322
  entropy:            23.9590785
  heat_capacity:      57.3196038
  energy:            160.0453097

- temperature:       352.0000000
  free_energy:       151.6113860
  entropy:            24.2873732
  heat_capacity:      57.9119711
  energy:            160.1605413

- temperature:       354.0000000
  free_energy:       151.5624817
  entropy:            24.6171622
  heat_capacity:      58.5037091
  energy:            160.2769571

- temperature:       356.0000000
  free_energy:       151.5129163
  entropy:            24.9484252