<?xml version="1.0" encoding="ISO-8859-1"?>
<modeling>
 <generator>
  <i name="program" type="string">vasp </i>
  <i name="version" type="string">5.4.4.18Apr17-6-g9f103f2a35  </i>
  <i name="subversion" type="string">(build Mar 12 2022 03:36:41) complex            parallel </i>
  <i name="platform" type="string">IFC19.0.3.199_CrayMPICH7.7.19 </i>
  <i name="date" type="string">2022 12 02 </i>
  <i name="time" type="string">00:59:01 </i>
 </generator>
 <incar>
  <i type="string" name="PREC">accurate</i>
  <i type="int" name="IALGO">    38</i>
  <i type="logical" name="ADDGRID"> T  </i>
  <i type="int" name="IBRION">     8</i>
  <i name="EDIFF">      0.00000001</i>
  <i type="logical" name="LREAL"> F  </i>
  <i type="int" name="ISMEAR">     0</i>
  <i name="SIGMA">      0.06000000</i>
  <i type="logical" name="LWAVE"> F  </i>
  <i type="logical" name="LCHARG"> F  </i>
  <v type="int" name="KPOINT_BSE">    -1     0     0     0</v>
 </incar>
 <structure name="primitive_cell" >
  <crystal>
   <varray name="basis" >
    <v>       1.72170310       1.72170310       0.00000000 </v>
    <v>       1.72170310       0.00000000      -1.72170310 </v>
    <v>       0.00000000       1.72170310      -1.72170310 </v>
   </varray>
   <i name="volume">     10.20715668 </i>
   <varray name="rec_basis" >
    <v>       0.29041012       0.29041012       0.29041012 </v>
    <v>       0.29041012      -0.29041012      -0.29041012 </v>
    <v>      -0.29041012       0.29041012      -0.29041012 </v>
   </varray>
  </crystal>
  <varray name="positions" >
   <v>       0.25000000       0.25000000       0.25000000 </v>
   <v>      -0.50000000      -0.50000000      -0.50000000 </v>
  </varray>
 </structure>
 <varray name="primitive_index" >
  <v type="int" >        1 </v>
  <v type="int" >       11 </v>
 </varray>
 <kpoints>
  <generation param="Gamma">
   <v type="int" name="divisions">       6        6        6 </v>
   <v name="usershift">      0.00000000       0.00000000       0.00000000 </v>
   <v name="genvec1">      0.16666667       0.00000000       0.00000000 </v>
   <v name="genvec2">      0.00000000       0.16666667       0.00000000 </v>
   <v name="genvec3">      0.00000000       0.00000000       0.16666667 </v>
   <v name="shift">      0.00000000       0.00000000       0.00000000 </v>
  </generation>
  <varray name="kpointlist" >
   <v>       0.00000000       0.00000000       0.00000000 </v>
   <v>       0.16666667       0.00000000       0.00000000 </v>
   <v>       0.33333333       0.00000000       0.00000000 </v>
   <v>       0.50000000       0.00000000       0.00000000 </v>
   <v>       0.16666667       0.16666667       0.00000000 </v>
   <v>       0.33333333       0.16666667       0.00000000 </v>
   <v>       0.50000000       0.16666667       0.00000000 </v>
   <v>       0.33333333       0.33333333       0.00000000 </v>
   <v>       0.50000000       0.33333333       0.00000000 </v>
   <v>       0.50000000       0.50000000       0.00000000 </v>
   <v>       0.16666667       0.16666667       0.16666667 </v>
   <v>       0.33333333       0.16666667       0.16666667 </v>
   <v>       0.50000000       0.16666667       0.16666667 </v>
   <v>       0.33333333       0.33333333       0.16666667 </v>
   <v>       0.50000000       0.33333333       0.16666667 </v>
   <v>       0.50000000       0.50000000       0.16666667 </v>
   <v>       0.33333333       0.33333333       0.33333333 </v>
   <v>       0.50000000       0.33333333       0.33333333 </v>
   <v>       0.50000000       0.50000000       0.33333333 </v>
   <v>       0.50000000       0.50000000       0.50000000 </v>
  </varray>
  <varray name="weights" >
   <v>       0.00462963 </v>
   <v>       0.02777778 </v>
   <v>       0.02777778 </v>
   <v>       0.01388889 </v>
   <v>       0.05555556 </v>
   <v>       0.11111111 </v>
   <v>       0.05555556 </v>
   <v>       0.05555556 </v>
   <v>       0.05555556 </v>
   <v>       0.01388889 </v>
   <v>       0.03703704 </v>
   <v>       0.11111111 </v>
   <v>       0.05555556 </v>
   <v>       0.11111111 </v>
   <v>       0.11111111 </v>
   <v>       0.02777778 </v>
   <v>       0.03703704 </v>
   <v>       0.05555556 </v>
   <v>       0.02777778 </v>
   <v>       0.00462963 </v>
  </varray>
 </kpoints>
 <parameters>
  <separator name="general" >
   <i type="string" name="SYSTEM">unknown system</i>
   <i type="logical" name="LCOMPAT"> F  </i>
  </separator>
  <separator name="electronic" >
   <i type="string" name="PREC">accura</i>
   <i name="ENMAX">    400.00000000</i>
   <i name="ENAUG">    644.87300000</i>
   <i name="EDIFF">      0.00000001</i>
   <i type="int" name="IALGO">    38</i>
   <i type="int" name="IWAVPR">    11</i>
   <i type="int" name="NBANDS">   192</i>
   <i name="NELECT">    256.00000000</i>
   <i type="int" name="TURBO">     0</i>
   <i type="int" name="IRESTART">     0</i>
   <i type="int" name="NREBOOT">     0</i>
   <i type="int" name="NMIN">     0</i>
   <i name="EREF">      0.00000000</i>
   <separator name="electronic smearing" >
    <i type="int" name="ISMEAR">     0</i>
    <i name="SIGMA">      0.06000000</i>
    <i name="KSPACING">      0.50000000</i>
    <i type="logical" name="KGAMMA"> T  </i>
   </separator>
   <separator name="electronic projectors" >
    <i type="logical" name="LREAL"> F  </i>
    <v name="ROPT">      0.00000000</v>
    <i type="int" name="LMAXPAW">  -100</i>
    <i type="int" name="LMAXMIX">     2</i>
    <i type="logical" name="NLSPLINE"> F  </i>
   </separator>
   <separator name="electronic startup" >
    <i type="int" name="ISTART">     0</i>
    <i type="int" name="ICHARG">     2</i>
    <i type="int" name="INIWAV">     1</i>
   </separator>
   <separator name="electronic spin" >
    <i type="int" name="ISPIN">     1</i>
    <i type="logical" name="LNONCOLLINEAR"> F  </i>
    <v name="MAGMOM">      1.00000000      1.00000000      1.00000000      1.00000000      1.00000000      1.00000000      1.00000000      1.00000000      1.00000000      1.00000000      1.00000000      1.00000000      1.00000000      1.00000000      1.00000000      1.00000000      1.00000000      1.00000000      1.00000000      1.00000000
      1.00000000      1.00000000      1.00000000      1.00000000      1.00000000      1.00000000      1.00000000      1.00000000      1.00000000      1.00000000      1.00000000      1.00000000      1.00000000      1.00000000      1.00000000      1.00000000      1.00000000      1.00000000      1.00000000      1.00000000
      1.00000000      1.00000000      1.00000000      1.00000000      1.00000000      1.00000000      1.00000000      1.00000000      1.00000000      1.00000000      1.00000000      1.00000000      1.00000000      1.00000000      1.00000000      1.00000000      1.00000000      1.00000000      1.00000000      1.00000000
      1.00000000      1.00000000      1.00000000      1.00000000</v>
    <i name="NUPDOWN">     -1.00000000</i>
    <i type="logical" name="LSORBIT"> F  </i>
    <v name="SAXIS">      0.00000000      0.00000000      1.00000000</v>
    <i type="logical" name="LSPIRAL"> F  </i>
    <v name="QSPIRAL">      0.00000000      0.00000000      0.00000000</v>
    <i type="logical" name="LZEROZ"> F  </i>
   </separator>
   <separator name="electronic exchange-correlation" >
    <i type="logical" name="LASPH"> F  </i>
    <i type="logical" name="LMETAGGA"> F  </i>
   </separator>
   <separator name="electronic convergence" >
    <i type="int" name="NELM">    60</i>
    <i type="int" name="NELMDL">     0</i>
    <i type="int" name="NELMIN">     2</i>
    <i name="ENINI">    400.00000000</i>
    <separator name="electronic convergence detail" >
     <i type="logical" name="LDIAG"> T  </i>
     <i type="logical" name="LSUBROT"> F  </i>
     <i name="WEIMIN">      0.00100000</i>
     <i name="EBREAK">      0.00000000</i>
     <i name="DEPER">      0.30000000</i>
     <i type="int" name="NRMM">     4</i>
     <i name="TIME">      0.40000000</i>
    </separator>
   </separator>
   <separator name="electronic mixer" >
    <i name="AMIX">      0.40000000</i>
    <i name="BMIX">      1.00000000</i>
    <i name="AMIN">      0.10000000</i>
    <i name="AMIX_MAG">      1.60000000</i>
    <i name="BMIX_MAG">      1.00000000</i>
    <separator name="electronic mixer details" >
     <i type="int" name="IMIX">     4</i>
     <i type="logical" name="MIXFIRST"> F  </i>
     <i type="int" name="MAXMIX">   -45</i>
     <i name="WC">    100.00000000</i>
     <i type="int" name="INIMIX">     1</i>
     <i type="int" name="MIXPRE">     1</i>
     <i type="int" name="MREMOVE">     5</i>
    </separator>
   </separator>
   <separator name="electronic dipolcorrection" >
    <i type="logical" name="LDIPOL"> F  </i>
    <i type="logical" name="LMONO"> F  </i>
    <i type="int" name="IDIPOL">     0</i>
    <i name="EPSILON">      1.00000000</i>
    <v name="DIPOL">   -100.00000000   -100.00000000   -100.00000000</v>
    <i name="EFIELD">      0.00000000</i>
   </separator>
  </separator>
  <separator name="grids" >
   <i type="int" name="NGX">    48</i>
   <i type="int" name="NGY">    48</i>
   <i type="int" name="NGZ">    48</i>
   <i type="int" name="NGXF">    96</i>
   <i type="int" name="NGYF">    96</i>
   <i type="int" name="NGZF">    96</i>
   <i type="logical" name="ADDGRID"> T  </i>
  </separator>
  <separator name="ionic" >
   <i type="int" name="NSW">     1</i>
   <i type="int" name="IBRION">     8</i>
   <i type="int" name="MDALGO">     0</i>
   <i type="int" name="ISIF">     2</i>
   <i name="PSTRESS">      0.00000000</i>
   <i name="EDIFFG">      0.00000010</i>
   <i type="int" name="NFREE">     0</i>
   <i name="POTIM">      0.50000000</i>
   <i name="SMASS">     -3.00000000</i>
   <i name="SCALEE">      1.00000000</i>
  </separator>
  <separator name="ionic md" >
   <i name="TEBEG">      0.00010000</i>
   <i name="TEEND">      0.00010000</i>
   <i type="int" name="NBLOCK">     1</i>
   <i type="int" name="KBLOCK">     1</i>
   <i type="int" name="NPACO">   256</i>
   <i name="APACO">     16.00000000</i>
  </separator>
  <separator name="symmetry" >
   <i type="int" name="ISYM">     2</i>
   <i name="SYMPREC">      0.00001000</i>
  </separator>
  <separator name="dos" >
   <i type="int" name="LORBIT">     0</i>
   <v name="RWIGS">     -1.00000000</v>
   <i type="int" name="NEDOS">   301</i>
   <i name="EMIN">     10.00000000</i>
   <i name="EMAX">    -10.00000000</i>
   <i name="EFERMI">      0.00000000</i>
  </separator>
  <separator name="writing" >
   <i type="int" name="NWRITE">     2</i>
   <i type="logical" name="LWAVE"> F  </i>
   <i type="logical" name="LDOWNSAMPLE"> F  </i>
   <i type="logical" name="LCHARG"> F  </i>
   <i type="logical" name="LPARD"> F  </i>
   <i type="logical" name="LVTOT"> F  </i>
   <i type="logical" name="LVHAR"> F  </i>
   <i type="logical" name="LELF"> F  </i>
   <i type="logical" name="LOPTICS"> F  </i>
   <v name="STM">      0.00000000      0.00000000      0.00000000      0.00000000      0.00000000      0.00000000      0.00000000</v>
  </separator>
  <separator name="performance" >
   <i type="int" name="NPAR">    32</i>
   <i type="int" name="NSIM">     4</i>
   <i type="int" name="NBLK">    -1</i>
   <i type="logical" name="LPLANE"> T  </i>
   <i type="logical" name="LSCALAPACK"> T  </i>
   <i type="logical" name="LSCAAWARE"> F  </i>
   <i type="logical" name="LSCALU"> F  </i>
   <i type="logical" name="LASYNC"> F  </i>
   <i type="logical" name="LORBITALREAL"> F  </i>
  </separator>
  <separator name="miscellaneous" >
   <i type="int" name="IDIOT">     3</i>
   <i type="int" name="ISPECIAL">     0</i>
   <i type="logical" name="LMUSIC"> F  </i>
   <v name="POMASS">     12.01100000</v>
   <v name="DARWINR">      0.00000000</v>
   <v name="DARWINV">      1.00000000</v>
   <i type="logical" name="LCORR"> T  </i>
  </separator>
  <i type="logical" name="GGA_COMPAT"> T  </i>
  <i type="logical" name="LBERRY"> F  </i>
  <i type="int" name="ICORELEVEL">     0</i>
  <i type="logical" name="LDAU"> F  </i>
  <i type="int" name="I_CONSTRAINED_M">     0</i>
  <separator name="electronic exchange-correlation" >
   <i type="string" name="GGA">--</i>
   <i type="int" name="VOSKOWN">     0</i>
   <i type="logical" name="LHFCALC"> F  </i>
   <i type="string" name="PRECFOCK"></i>
   <i type="logical" name="LSYMGRAD"> F  </i>
   <i type="logical" name="LHFONE"> F  </i>
   <i type="logical" name="LRHFCALC"> F  </i>
   <i type="logical" name="LTHOMAS"> F  </i>
   <i type="logical" name="LMODELHF"> F  </i>
   <i name="ENCUT4O">     -1.00000000</i>
   <i type="int" name="EXXOEP">     0</i>
   <i type="int" name="FOURORBIT">     0</i>
   <i name="AEXX">      0.00000000</i>
   <i name="HFALPHA">      0.00000000</i>
   <i name="MCALPHA">      0.00000000</i>
   <i name="ALDAX">      1.00000000</i>
   <i name="AGGAX">      1.00000000</i>
   <i name="ALDAC">      1.00000000</i>
   <i name="AGGAC">      1.00000000</i>
   <i type="int" name="NKREDX">     1</i>
   <i type="int" name="NKREDY">     1</i>
   <i type="int" name="NKREDZ">     1</i>
   <i type="logical" name="SHIFTRED"> F  </i>
   <i type="logical" name="ODDONLY"> F  </i>
   <i type="logical" name="EVENONLY"> F  </i>
   <i type="int" name="LMAXFOCK">     0</i>
   <i type="int" name="NMAXFOCKAE">     0</i>
   <i type="logical" name="LFOCKAEDFT"> F  </i>
   <i name="HFSCREEN">      0.00000000</i>
   <i name="HFSCREENC">      0.00000000</i>
   <i type="int" name="NBANDSGWLOW">     0</i>
  </separator>
  <separator name="vdW DFT" >
   <i type="logical" name="LUSE_VDW"> F  </i>
   <i name="Zab_VDW">     -0.84910000</i>
   <i name="PARAM1">      0.12340000</i>
   <i name="PARAM2">      1.00000000</i>
   <i name="PARAM3">      0.00000000</i>
  </separator>
  <separator name="model GW" >
   <i type="int" name="MODEL_GW">     0</i>
   <i name="MODEL_EPS0">      3.06214700</i>
   <i name="MODEL_ALPHA">      1.00000000</i>
  </separator>
  <separator name="linear response parameters" >
   <i type="logical" name="LEPSILON"> F  </i>
   <i type="logical" name="LRPA"> F  </i>
   <i type="logical" name="LNABLA"> F  </i>
   <i type="logical" name="LVEL"> F  </i>
   <i type="int" name="KINTER">     0</i>
   <i name="CSHIFT">      0.10000000</i>
   <i name="OMEGAMAX">     -1.00000000</i>
   <i name="DEG_THRESHOLD">      0.00200000</i>
   <i name="RTIME">     -0.10000000</i>
   <i name="WPLASMAI">      0.00000000</i>
   <v name="DFIELD">      0.00000000      0.00000000      0.00000000</v>
   <v name="WPLASMA">      0.00000000      0.00000000      0.00000000      0.00000000      0.00000000      0.00000000      0.00000000      0.00000000      0.00000000</v>
  </separator>
  <separator name="orbital magnetization" >
   <i type="logical" name="NUCIND"> F  </i>
   <v name="MAGPOS">      0.00000000      0.00000000      0.00000000</v>
   <i type="logical" name="LNICSALL"> T  </i>
   <i type="logical" name="ORBITALMAG"> F  </i>
   <i type="logical" name="LMAGBLOCH"> F  </i>
   <i type="logical" name="LCHIMAG"> F  </i>
   <i type="logical" name="LGAUGE"> T  </i>
   <i type="int" name="MAGATOM">     0</i>
   <v name="MAGDIPOL">      0.00000000      0.00000000      0.00000000</v>
   <v name="AVECCONST">      0.00000000      0.00000000      0.00000000</v>
  </separator>
  <separator name="response functions" >
   <i type="logical" name="LADDER"> F  </i>
   <i type="logical" name="LRPAFORCE"> F  </i>
   <i type="logical" name="LFXC"> F  </i>
   <i type="logical" name="LHARTREE"> T  </i>
   <i type="int" name="IBSE">     0</i>
   <v type="int" name="KPOINT">    -1     0     0     0</v>
   <i type="logical" name="LTCTE"> F  </i>
   <i type="logical" name="LTETE"> F  </i>
   <i type="logical" name="LTRIPLET"> F  </i>
   <i type="logical" name="LFXCEPS"> F  </i>
   <i type="logical" name="LFXHEG"> F  </i>
   <i type="int" name="NATURALO">     2</i>
   <i type="logical" name="L2ORDER"> F  </i>
   <i type="logical" name="LMP2LT"> F  </i>
   <i type="logical" name="LUSEW"> F  </i>
   <i name="ENCUTGW">     -2.00000000</i>
   <i name="ENCUTGWSOFT">     -2.00000000</i>
   <i name="ENCUTLF">     -1.00000000</i>
   <i type="int" name="LMAXMP2">    -1</i>
   <i name="SCISSOR">      0.00000000</i>
   <i type="int" name="NOMEGA">     0</i>
   <i type="int" name="NOMEGAR">     0</i>
   <i type="int" name="NBANDSGW">    -1</i>
   <i type="int" name="NBANDSO">    -1</i>
   <i type="int" name="NBANDSV">    -1</i>
   <i type="int" name="NELM">     1</i>
   <i type="int" name="NELMHF">     1</i>
   <i type="int" name="DIM">     3</i>
   <i type="int" name="ANTIRES">     0</i>
   <i name="OMEGAMAX">    -30.00000000</i>
   <i name="OMEGAMIN">    -30.00000000</i>
   <i name="OMEGATL">   -200.00000000</i>
   <i type="int" name="OMEGAGRID">   140</i>
   <i name="CSHIFT">     -0.10000000</i>
   <i type="logical" name="SELFENERGY"> F  </i>
   <i type="logical" name="LSPECTRAL"> F  </i>
   <i type="logical" name="LSPECTRALGW"> F  </i>
   <i type="logical" name="LSINGLES"> F  </i>
   <i type="logical" name="LFERMIGW"> F  </i>
   <i type="logical" name="ODDONLYGW"> F  </i>
   <i type="logical" name="EVENONLYGW"> F  </i>
   <i type="int" name="NKREDLFX">     1</i>
   <i type="int" name="NKREDLFY">     1</i>
   <i type="int" name="NKREDLFZ">     1</i>
   <i type="int" name="MAXMEM">  2800</i>
   <i type="int" name="TELESCOPE">     0</i>
   <i type="int" name="TAUPAR">     1</i>
   <i type="int" name="OMEGAPAR">    -1</i>
   <i name="LAMBDA">      1.00000000</i>
  </separator>
  <separator name="External order field" >
   <i name="OFIELD_KAPPA">      0.00000000</i>
   <v name="OFIELD_K">      0.00000000      0.00000000      0.00000000</v>
   <i name="OFIELD_Q6_NEAR">      0.00000000</i>
   <i name="OFIELD_Q6_FAR">      0.00000000</i>
   <i name="OFIELD_A">      0.00000000</i>
  </separator>
 </parameters>
 <atominfo>
  <atoms>      64 </atoms>
  <types>       1 </types>
  <array name="atoms" >
   <dimension dim="1">ion</dimension>
   <field type="string">element</field>
   <field type="int">atomtype</field>
   <set>
    <rc><c>C </c><c>   1</c></rc>
    <rc><c>C </c><c>   1</c></rc>
    <rc><c>C </c><c>   1</c></rc>
    <rc><c>C </c><c>   1</c></rc>
    <rc><c>C </c><c>   1</c></rc>
    <rc><c>C </c><c>   1</c></rc>
    <rc><c>C </c><c>   1</c></rc>
    <rc><c>C </c><c>   1</c></rc>
    <rc><c>C </c><c>   1</c></rc>
    <rc><c>C </c><c>   1</c></rc>
    <rc><c>C </c><c>   1</c></rc>
    <rc><c>C </c><c>   1</c></rc>
    <rc><c>C </c><c>   1</c></rc>
    <rc><c>C </c><c>   1</c></rc>
    <rc><c>C </c><c>   1</c></rc>
    <rc><c>C </c><c>   1</c></rc>
    <rc><c>C </c><c>   1</c></rc>
    <rc><c>C </c><c>   1</c></rc>
    <rc><c>C </c><c>   1</c></rc>
    <rc><c>C </c><c>   1</c></rc>
    <rc><c>C </c><c>   1</c></rc>
    <rc><c>C </c><c>   1</c></rc>
    <rc><c>C </c><c>   1</c></rc>
    <rc><c>C </c><c>   1</c></rc>
    <rc><c>C </c><c>   1</c></rc>
    <rc><c>C </c><c>   1</c></rc>
    <rc><c>C </c><c>   1</c></rc>
    <rc><c>C </c><c>   1</c></rc>
    <rc><c>C </c><c>   1</c></rc>
    <rc><c>C </c><c>   1</c></rc>
    <rc><c>C </c><c>   1</c></rc>
    <rc><c>C </c><c>   1</c></rc>
    <rc><c>C </c><c>   1</c></rc>
    <rc><c>C </c><c>   1</c></rc>
    <rc><c>C </c><c>   1</c></rc>
    <rc><c>C </c><c>   1</c></rc>
    <rc><c>C </c><c>   1</c></rc>
    <rc><c>C </c><c>   1</c></rc>
    <rc><c>C </c><c>   1</c></rc>
    <rc><c>C </c><c>   1</c></rc>
    <rc><c>C </c><c>   1</c></rc>
    <rc><c>C </c><c>   1</c></rc>
    <rc><c>C </c><c>   1</c></rc>
    <rc><c>C </c><c>   1</c></rc>
    <rc><c>C </c><c>   1</c></rc>
    <rc><c>C </c><c>   1</c></rc>
    <rc><c>C </c><c>   1</c></rc>
    <rc><c>C </c><c>   1</c></rc>
    <rc><c>C </c><c>   1</c></rc>
    <rc><c>C </c><c>   1</c></rc>
    <rc><c>C </c><c>   1</c></rc>
    <rc><c>C </c><c>   1</c></rc>
    <rc><c>C </c><c>   1</c></rc>
    <rc><c>C </c><c>   1</c></rc>
    <rc><c>C </c><c>   1</c></rc>
    <rc><c>C </c><c>   1</c></rc>
    <rc><c>C </c><c>   1</c></rc>
    <rc><c>C </c><c>   1</c></rc>
    <rc><c>C </c><c>   1</c></rc>
    <rc><c>C </c><c>   1</c></rc>
    <rc><c>C </c><c>   1</c></rc>
    <rc><c>C </c><c>   1</c></rc>
    <rc><c>C </c><c>   1</c></rc>
    <rc><c>C </c><c>   1</c></rc>
   </set>
  </array>
  <array name="atomtypes" >
   <dimension dim="1">type</dimension>
   <field type="int">atomspertype</field>
   <field type="string">element</field>
   <field>mass</field>
   <field>valence</field>
   <field type="string">pseudopotential</field>
   <set>
    <rc><c>  64</c><c>C </c><c>     12.01100000</c><c>      4.00000000</c><c> PAW_PBE C 08Apr2002                    </c></rc>
   </set>
  </array>
 </atominfo>
 <structure name="initialpos" >
  <crystal>
   <varray name="basis" >
    <v>       6.88681241       0.00000000       0.00000000 </v>
    <v>       0.00000000       6.88681241       0.00000000 </v>
    <v>       0.00000000       0.00000000       6.88681241 </v>
   </varray>
   <i name="volume">    326.62901372 </i>
   <varray name="rec_basis" >
    <v>       0.14520506       0.00000000       0.00000000 </v>
    <v>       0.00000000       0.14520506       0.00000000 </v>
    <v>       0.00000000       0.00000000       0.14520506 </v>
   </varray>
  </crystal>
  <varray name="positions" >
   <v>       0.12500000       0.37500000       0.12500000 </v>
   <v>       0.62500000       0.37500000       0.12500000 </v>
   <v>       0.12500000       0.87500000       0.12500000 </v>
   <v>       0.62500000       0.87500000       0.12500000 </v>
   <v>       0.12500000       0.37500000       0.62500000 </v>
   <v>       0.62500000       0.37500000       0.62500000 </v>
   <v>       0.12500000       0.87500000       0.62500000 </v>
   <v>       0.62500000       0.87500000       0.62500000 </v>
   <v>       0.00000000       0.00000000       0.25000000 </v>
   <v>       0.50000000       0.00000000       0.25000000 </v>
   <v>       0.00000000       0.50000000       0.25000000 </v>
   <v>       0.50000000       0.50000000       0.25000000 </v>
   <v>       0.00000000       0.00000000       0.75000000 </v>
   <v>       0.50000000       0.00000000       0.75000000 </v>
   <v>       0.00000000       0.50000000       0.75000000 </v>
   <v>       0.50000000       0.50000000       0.75000000 </v>
   <v>       0.12500000       0.12500000       0.37500000 </v>
   <v>       0.62500000       0.12500000       0.37500000 </v>
   <v>       0.12500000       0.62500000       0.37500000 </v>
   <v>       0.62500000       0.62500000       0.37500000 </v>
   <v>       0.12500000       0.12500000       0.87500000 </v>
   <v>       0.62500000       0.12500000       0.87500000 </v>
   <v>       0.12500000       0.62500000       0.87500000 </v>
   <v>       0.62500000       0.62500000       0.87500000 </v>
   <v>       0.00000000       0.25000000       0.00000000 </v>
   <v>       0.50000000       0.25000000       0.00000000 </v>
   <v>       0.00000000       0.75000000       0.00000000 </v>
   <v>       0.50000000       0.75000000       0.00000000 </v>
   <v>       0.00000000       0.25000000       0.50000000 </v>
   <v>       0.50000000       0.25000000       0.50000000 </v>
   <v>       0.00000000       0.75000000       0.50000000 </v>
   <v>       0.50000000       0.75000000       0.50000000 </v>
   <v>       0.37500000       0.37500000       0.37500000 </v>
   <v>       0.87500000       0.37500000       0.37500000 </v>
   <v>       0.37500000       0.87500000       0.37500000 </v>
   <v>       0.87500000       0.87500000       0.37500000 </v>
   <v>       0.37500000       0.37500000       0.87500000 </v>
   <v>       0.87500000       0.37500000       0.87500000 </v>
   <v>       0.37500000       0.87500000       0.87500000 </v>
   <v>       0.87500000       0.87500000       0.87500000 </v>
   <v>       0.25000000       0.00000000       0.00000000 </v>
   <v>       0.75000000       0.00000000       0.00000000 </v>
   <v>       0.25000000       0.50000000       0.00000000 </v>
   <v>       0.75000000       0.50000000       0.00000000 </v>
   <v>       0.25000000       0.00000000       0.50000000 </v>
   <v>       0.75000000       0.00000000       0.50000000 </v>
   <v>       0.25000000       0.50000000       0.50000000 </v>
   <v>       0.75000000       0.50000000       0.50000000 </v>
   <v>       0.37500000       0.12500000       0.12500000 </v>
   <v>       0.87500000       0.12500000       0.12500000 </v>
   <v>       0.37500000       0.62500000       0.12500000 </v>
   <v>       0.87500000       0.62500000       0.12500000 </v>
   <v>       0.37500000       0.12500000       0.62500000 </v>
   <v>       0.87500000       0.12500000       0.62500000 </v>
   <v>       0.37500000       0.62500000       0.62500000 </v>
   <v>       0.87500000       0.62500000       0.62500000 </v>
   <v>       0.25000000       0.25000000       0.25000000 </v>
   <v>       0.75000000       0.25000000       0.25000000 </v>
   <v>       0.25000000       0.75000000       0.25000000 </v>
   <v>       0.75000000       0.75000000       0.25000000 </v>
   <v>       0.25000000       0.25000000       0.75000000 </v>
   <v>       0.75000000       0.25000000       0.75000000 </v>
   <v>       0.25000000       0.75000000       0.75000000 </v>
   <v>       0.75000000       0.75000000       0.75000000 </v>
  </varray>
 </structure>
 <calculation>
  <scstep>
   <time name="dav">   12.55   12.56</time>
   <time name="total">   12.67   12.80</time>
   <energy>
    <i name="alphaZ">   1021.77925941 </i>
    <i name="ewald"> -11533.69725622 </i>
    <i name="hartreedc">   -492.13632522 </i>
    <i name="XCdc">    937.34035242 </i>
    <i name="pawpsdc">   2421.21235816 </i>
    <i name="pawaedc">  -2494.84305711 </i>
    <i name="eentropy">     -0.01084209 </i>
    <i name="bandstr">   1253.26562048 </i>
    <i name="atom">   9416.14232778 </i>
    <i name="e_fr_energy">    529.05243761 </i>
    <i name="e_wo_entrp">    529.06327970 </i>
    <i name="e_0_energy">    529.05785866 </i>
   </energy>
  </scstep>
  <scstep>
   <time name="dav">   16.26   16.26</time>
   <time name="total">   16.26   16.26</time>
   <energy>
    <i name="e_fr_energy">   -563.49716542 </i>
    <i name="e_wo_entrp">   -563.49716542 </i>
    <i name="e_0_energy">   -563.49716542 </i>
   </energy>
  </scstep>
  <scstep>
   <time name="dav">   15.90   15.90</time>
   <time name="total">   15.90   15.90</time>
   <energy>
    <i name="e_fr_energy">   -602.70132514 </i>
    <i name="e_wo_entrp">   -602.70132514 </i>
    <i name="e_0_energy">   -602.70132514 </i>
   </energy>
  </scstep>
  <scstep>
   <time name="dav">   16.59   16.60</time>
   <time name="total">   16.60   16.60</time>
   <energy>
    <i name="e_fr_energy">   -603.05675654 </i>
    <i name="e_wo_entrp">   -603.05675654 </i>
    <i name="e_0_energy">   -603.05675654 </i>
   </energy>
  </scstep>
  <scstep>
   <time name="dav">   15.10   15.10</time>
   <time name="total">   15.62   15.62</time>
   <energy>
    <i name="e_fr_energy">   -603.06345267 </i>
    <i name="e_wo_entrp">   -603.06345267 </i>
    <i name="e_0_energy">   -603.06345267 </i>
   </energy>
  </scstep>
  <scstep>
   <time name="dav">   14.30   14.30</time>
   <time name="total">   14.94   14.94</time>
   <energy>
    <i name="e_fr_energy">   -582.45146804 </i>
    <i name="e_wo_entrp">   -582.45146804 </i>
    <i name="e_0_energy">   -582.45146804 </i>
   </energy>
  </scstep>
  <scstep>
   <time name="dav">   14.83   14.83</time>
   <time name="total">   15.45   15.45</time>
   <energy>
    <i name="e_fr_energy">   -575.51991518 </i>
    <i name="e_wo_entrp">   -575.51991518 </i>
    <i name="e_0_energy">   -575.51991518 </i>
   </energy>
  </scstep>
  <scstep>
   <time name="dav">   15.50   15.50</time>
   <time name="total">   16.15   16.15</time>
   <energy>
    <i name="e_fr_energy">   -575.59224984 </i>
    <i name="e_wo_entrp">   -575.59224984 </i>
    <i name="e_0_energy">   -575.59224984 </i>
   </energy>
  </scstep>
  <scstep>
   <time name="dav">   17.97   17.97</time>
   <time name="total">   18.62   18.62</time>
   <energy>
    <i name="e_fr_energy">   -575.59426006 </i>
    <i name="e_wo_entrp">   -575.59426006 </i>
    <i name="e_0_energy">   -575.59426006 </i>
   </energy>
  </scstep>
  <scstep>
   <time name="dav">   15.63   15.63</time>
   <time name="total">   16.32   16.32</time>
   <energy>
    <i name="e_fr_energy">   -575.59466041 </i>
    <i name="e_wo_entrp">   -575.59466041 </i>
    <i name="e_0_energy">   -575.59466041 </i>
   </energy>
  </scstep>
  <scstep>
   <time name="dav">   15.71   15.71</time>
   <time name="total">   16.34   16.34</time>
   <energy>
    <i name="e_fr_energy">   -575.59466758 </i>
    <i name="e_wo_entrp">   -575.59466758 </i>
    <i name="e_0_energy">   -575.59466758 </i>
   </energy>
  </scstep>
  <scstep>
   <time name="dav">   15.49   15.49</time>
   <time name="total">   16.11   16.11</time>
   <energy>
    <i name="e_fr_energy">   -575.59466714 </i>
    <i name="e_wo_entrp">   -575.59466714 </i>
    <i name="e_0_energy">   -575.59466714 </i>
   </energy>
  </scstep>
  <scstep>
   <time name="dav">   13.56   13.57</time>
   <time name="total">   13.68   13.68</time>
   <energy>
    <i name="alphaZ">   1021.77925941 </i>
    <i name="ewald"> -11533.69725622 </i>
    <i name="hartreedc">   -797.64239406 </i>
    <i name="XCdc">    966.40153336 </i>
    <i name="pawpsdc">   4693.42003344 </i>
    <i name="pawaedc">  -4776.75413024 </i>
    <i name="eentropy">     -0.00000000 </i>
    <i name="bandstr">    434.75595939 </i>
    <i name="atom">   9416.14232778 </i>
    <i name="e_fr_energy">   -575.59466714 </i>
    <i name="e_wo_entrp">   -575.59466714 </i>
    <i name="e_0_energy">   -575.59466714 </i>
   </energy>
  </scstep>
  <structure>
   <crystal>
    <varray name="basis" >
     <v>       6.88681241       0.00000000       0.00000000 </v>
     <v>       0.00000000       6.88681241       0.00000000 </v>
     <v>       0.00000000       0.00000000       6.88681241 </v>
    </varray>
    <i name="volume">    326.62901372 </i>
    <varray name="rec_basis" >
     <v>       0.14520506       0.00000000       0.00000000 </v>
     <v>       0.00000000       0.14520506       0.00000000 </v>
     <v>       0.00000000       0.00000000       0.14520506 </v>
    </varray>
   </crystal>
   <varray name="positions" >
    <v>       0.12500000       0.37500000       0.12500000 </v>
    <v>       0.62500000       0.37500000       0.12500000 </v>
    <v>       0.12500000       0.87500000       0.12500000 </v>
    <v>       0.62500000       0.87500000       0.12500000 </v>
    <v>       0.12500000       0.37500000       0.62500000 </v>
    <v>       0.62500000       0.37500000       0.62500000 </v>
    <v>       0.12500000       0.87500000       0.62500000 </v>
    <v>       0.62500000       0.87500000       0.62500000 </v>
    <v>       0.00000000       0.00000000       0.25000000 </v>
    <v>       0.50000000       0.00000000       0.25000000 </v>
    <v>       0.00000000       0.50000000       0.25000000 </v>
    <v>       0.50000000       0.50000000       0.25000000 </v>
    <v>       0.00000000       0.00000000       0.75000000 </v>
    <v>       0.50000000       0.00000000       0.75000000 </v>
    <v>       0.00000000       0.50000000       0.75000000 </v>
    <v>       0.50000000       0.50000000       0.75000000 </v>
    <v>       0.12500000       0.12500000       0.37500000 </v>
    <v>       0.62500000       0.12500000       0.37500000 </v>
    <v>       0.12500000       0.62500000       0.37500000 </v>
    <v>       0.62500000       0.62500000       0.37500000 </v>
    <v>       0.12500000       0.12500000       0.87500000 </v>
    <v>       0.62500000       0.12500000       0.87500000 </v>
    <v>       0.12500000       0.62500000       0.87500000 </v>
    <v>       0.62500000       0.62500000       0.87500000 </v>
    <v>       0.00000000       0.25000000       0.00000000 </v>
    <v>       0.50000000       0.25000000       0.00000000 </v>
    <v>       0.00000000       0.75000000       0.00000000 </v>
    <v>       0.50000000       0.75000000       0.00000000 </v>
    <v>       0.00000000       0.25000000       0.50000000 </v>
    <v>       0.50000000       0.25000000       0.50000000 </v>
    <v>       0.00000000       0.75000000       0.50000000 </v>
    <v>       0.50000000       0.75000000       0.50000000 </v>
    <v>       0.37500000       0.37500000       0.37500000 </v>
    <v>       0.87500000       0.37500000       0.37500000 </v>
    <v>       0.37500000       0.87500000       0.37500000 </v>
    <v>       0.87500000       0.87500000       0.37500000 </v>
    <v>       0.37500000       0.37500000       0.87500000 </v>
    <v>       0.87500000       0.37500000       0.87500000 </v>
    <v>       0.37500000       0.87500000       0.87500000 </v>
    <v>       0.87500000       0.87500000       0.87500000 </v>
    <v>       0.25000000       0.00000000       0.00000000 </v>
    <v>       0.75000000       0.00000000       0.00000000 </v>
    <v>       0.25000000       0.50000000       0.00000000 </v>
    <v>       0.75000000       0.50000000       0.00000000 </v>
    <v>       0.25000000       0.00000000       0.50000000 </v>
    <v>       0.75000000       0.00000000       0.50000000 </v>
    <v>       0.25000000       0.50000000       0.50000000 </v>
    <v>       0.75000000       0.50000000       0.50000000 </v>
    <v>       0.37500000       0.12500000       0.12500000 </v>
    <v>       0.87500000       0.12500000       0.12500000 </v>
    <v>       0.37500000       0.62500000       0.12500000 </v>
    <v>       0.87500000       0.62500000       0.12500000 </v>
    <v>       0.37500000       0.12500000       0.62500000 </v>
    <v>       0.87500000       0.12500000       0.62500000 </v>
    <v>       0.37500000       0.62500000       0.62500000 </v>
    <v>       0.87500000       0.62500000       0.62500000 </v>
    <v>       0.25000000       0.25000000       0.25000000 </v>
    <v>       0.75000000       0.25000000       0.25000000 </v>
    <v>       0.25000000       0.75000000       0.25000000 </v>
    <v>       0.75000000       0.75000000       0.25000000 </v>
    <v>       0.25000000       0.25000000       0.75000000 </v>
    <v>       0.75000000       0.25000000       0.75000000 </v>
    <v>       0.25000000       0.75000000       0.75000000 </v>
    <v>       0.75000000       0.75000000       0.75000000 </v>
   </varray>
  </structure>
  <varray name="forces" >
   <v>       0.00000000       0.00000000       0.00000000 </v>
   <v>       0.00000000       0.00000000       0.00000000 </v>
   <v>      -0.00000000      -0.00000000       0.00000000 </v>
   <v>       0.00000000      -0.00000000       0.00000000 </v>
   <v>       0.00000000      -0.00000000       0.00000000 </v>
   <v>       0.00000000      -0.00000000       0.00000000 </v>
   <v>       0.00000000       0.00000000       0.00000000 </v>
   <v>       0.00000000      -0.00000000       0.00000000 </v>
   <v>      -0.00000000       0.00000000      -0.00000000 </v>
   <v>      -0.00000000      -0.00000000      -0.00000000 </v>
   <v>      -0.00000000       0.00000000      -0.00000000 </v>
   <v>      -0.00000000       0.00000000      -0.00000000 </v>
   <v>      -0.00000000      -0.00000000      -0.00000000 </v>
   <v>      -0.00000000       0.00000000      -0.00000000 </v>
   <v>      -0.00000000       0.00000000       0.00000000 </v>
   <v>      -0.00000000      -0.00000000      -0.00000000 </v>
   <v>       0.00000000       0.00000000       0.00000000 </v>
   <v>       0.00000000      -0.00000000       0.00000000 </v>
   <v>       0.00000000       0.00000000       0.00000000 </v>
   <v>       0.00000000       0.00000000       0.00000000 </v>
   <v>       0.00000000      -0.00000000       0.00000000 </v>
   <v>       0.00000000      -0.00000000       0.00000000 </v>
   <v>       0.00000000      -0.00000000       0.00000000 </v>
   <v>       0.00000000      -0.00000000       0.00000000 </v>
   <v>      -0.00000000      -0.00000000      -0.00000000 </v>
   <v>      -0.00000000       0.00000000      -0.00000000 </v>
   <v>      -0.00000000       0.00000000      -0.00000000 </v>
   <v>      -0.00000000      -0.00000000      -0.00000000 </v>
   <v>      -0.00000000       0.00000000      -0.00000000 </v>
   <v>      -0.00000000      -0.00000000      -0.00000000 </v>
   <v>      -0.00000000       0.00000000      -0.00000000 </v>
   <v>      -0.00000000       0.00000000      -0.00000000 </v>
   <v>       0.00000000      -0.00000000       0.00000000 </v>
   <v>       0.00000000       0.00000000       0.00000000 </v>
   <v>       0.00000000       0.00000000       0.00000000 </v>
   <v>       0.00000000      -0.00000000       0.00000000 </v>
   <v>       0.00000000      -0.00000000       0.00000000 </v>
   <v>       0.00000000      -0.00000000       0.00000000 </v>
   <v>       0.00000000      -0.00000000      -0.00000000 </v>
   <v>       0.00000000      -0.00000000       0.00000000 </v>
   <v>      -0.00000000      -0.00000000      -0.00000000 </v>
   <v>      -0.00000000       0.00000000      -0.00000000 </v>
   <v>      -0.00000000      -0.00000000      -0.00000000 </v>
   <v>      -0.00000000       0.00000000       0.00000000 </v>
   <v>      -0.00000000       0.00000000      -0.00000000 </v>
   <v>      -0.00000000       0.00000000      -0.00000000 </v>
   <v>      -0.00000000       0.00000000      -0.00000000 </v>
   <v>      -0.00000000       0.00000000      -0.00000000 </v>
   <v>       0.00000000       0.00000000       0.00000000 </v>
   <v>       0.00000000       0.00000000       0.00000000 </v>
   <v>       0.00000000       0.00000000       0.00000000 </v>
   <v>       0.00000000      -0.00000000       0.00000000 </v>
   <v>       0.00000000       0.00000000       0.00000000 </v>
   <v>       0.00000000      -0.00000000       0.00000000 </v>
   <v>       0.00000000      -0.00000000       0.00000000 </v>
   <v>       0.00000000      -0.00000000       0.00000000 </v>
   <v>      -0.00000000       0.00000000      -0.00000000 </v>
   <v>      -0.00000000       0.00000000      -0.00000000 </v>
   <v>      -0.00000000      -0.00000000      -0.00000000 </v>
   <v>      -0.00000000      -0.00000000      -0.00000000 </v>
   <v>      -0.00000000       0.00000000      -0.00000000 </v>
   <v>      -0.00000000      -0.00000000       0.00000000 </v>
   <v>      -0.00000000       0.00000000      -0.00000000 </v>
   <v>      -0.00000000       0.00000000      -0.00000000 </v>
  </varray>
  <varray name="stress" >
   <v>     551.14330837       0.00000000       0.00000000 </v>
   <v>      -0.00000000     551.14330837       0.00000000 </v>
   <v>      -0.00000000      -0.00000000     551.14330837 </v>
  </varray>
  <energy>
   <i name="e_fr_energy">   -575.59466714 </i>
   <i name="e_wo_entrp">   -575.59466714 </i>
   <i name="e_0_energy">     -0.00000000 </i>
  </energy>
  <kpoints>
   <generation param="Gamma">
    <v type="int" name="divisions">       6        6        6 </v>
    <v name="usershift">      0.00000000       0.00000000       0.00000000 </v>
    <v name="genvec1">      0.16666667       0.00000000       0.00000000 </v>
    <v name="genvec2">      0.00000000       0.16666667       0.00000000 </v>
    <v name="genvec3">      0.00000000       0.00000000       0.16666667 </v>
    <v name="shift">      0.00000000       0.00000000       0.00000000 </v>
   </generation>
   <varray name="kpointlist" >
    <v>       0.00000000       0.00000000       0.00000000 </v>
    <v>       0.16666667       0.00000000       0.00000000 </v>
    <v>       0.33333333       0.00000000       0.00000000 </v>
    <v>       0.50000000       0.00000000       0.00000000 </v>
    <v>       0.00000000       0.16666667       0.00000000 </v>
    <v>       0.16666667       0.16666667       0.00000000 </v>
    <v>       0.33333333       0.16666667       0.00000000 </v>
    <v>       0.50000000       0.16666667       0.00000000 </v>
    <v>       0.00000000       0.33333333       0.00000000 </v>
    <v>       0.16666667       0.33333333       0.00000000 </v>
    <v>       0.33333333       0.33333333       0.00000000 </v>
    <v>       0.50000000       0.33333333       0.00000000 </v>
    <v>       0.00000000       0.50000000       0.00000000 </v>
    <v>       0.16666667       0.50000000       0.00000000 </v>
    <v>       0.33333333       0.50000000       0.00000000 </v>
    <v>       0.50000000       0.50000000       0.00000000 </v>
    <v>       0.00000000       0.16666667       0.16666667 </v>
    <v>       0.16666667       0.16666667       0.16666667 </v>
    <v>       0.33333333       0.16666667       0.16666667 </v>
    <v>       0.50000000       0.16666667       0.16666667 </v>
    <v>       0.00000000       0.33333333       0.16666667 </v>
    <v>       0.16666667       0.33333333       0.16666667 </v>
    <v>       0.33333333       0.33333333       0.16666667 </v>
    <v>       0.50000000       0.33333333       0.16666667 </v>
    <v>       0.00000000       0.50000000       0.16666667 </v>
    <v>       0.16666667       0.50000000       0.16666667 </v>
    <v>       0.33333333       0.50000000       0.16666667 </v>
    <v>       0.50000000       0.50000000       0.16666667 </v>
    <v>       0.00000000      -0.33333333       0.16666667 </v>
    <v>       0.16666667      -0.33333333       0.16666667 </v>
    <v>       0.33333333      -0.33333333       0.16666667 </v>
    <v>       0.50000000      -0.33333333       0.16666667 </v>
    <v>       0.00000000      -0.16666667       0.16666667 </v>
    <v>       0.16666667      -0.16666667       0.16666667 </v>
    <v>       0.33333333      -0.16666667       0.16666667 </v>
    <v>       0.50000000      -0.16666667       0.16666667 </v>
    <v>       0.00000000       0.33333333       0.33333333 </v>
    <v>       0.16666667       0.33333333       0.33333333 </v>
    <v>       0.33333333       0.33333333       0.33333333 </v>
    <v>       0.50000000       0.33333333       0.33333333 </v>
    <v>       0.00000000       0.50000000       0.33333333 </v>
    <v>       0.16666667       0.50000000       0.33333333 </v>
    <v>       0.33333333       0.50000000       0.33333333 </v>
    <v>       0.50000000       0.50000000       0.33333333 </v>
    <v>       0.00000000      -0.33333333       0.33333333 </v>
    <v>       0.16666667      -0.33333333       0.33333333 </v>
    <v>       0.33333333      -0.33333333       0.33333333 </v>
    <v>       0.50000000      -0.33333333       0.33333333 </v>
    <v>       0.00000000       0.50000000       0.50000000 </v>
    <v>       0.16666667       0.50000000       0.50000000 </v>
    <v>       0.33333333       0.50000000       0.50000000 </v>
    <v>       0.50000000       0.50000000       0.50000000 </v>
   </varray>
   <varray name="weights" >
    <v>       0.00462963 </v>
    <v>       0.00925926 </v>
    <v>       0.00925926 </v>
    <v>       0.00462963 </v>
    <v>       0.01851852 </v>
    <v>       0.03703704 </v>
    <v>       0.03703704 </v>
    <v>       0.01851852 </v>
    <v>       0.01851852 </v>
    <v>       0.03703704 </v>
    <v>       0.03703704 </v>
    <v>       0.01851852 </v>
    <v>       0.00925926 </v>
    <v>       0.01851852 </v>
    <v>       0.01851852 </v>
    <v>       0.00925926 </v>
    <v>       0.00925926 </v>
    <v>       0.01851852 </v>
    <v>       0.01851852 </v>
    <v>       0.00925926 </v>
    <v>       0.01851852 </v>
    <v>       0.03703704 </v>
    <v>       0.03703704 </v>
    <v>       0.01851852 </v>
    <v>       0.01851852 </v>
    <v>       0.03703704 </v>
    <v>       0.03703704 </v>
    <v>       0.01851852 </v>
    <v>       0.01851852 </v>
    <v>       0.03703704 </v>
    <v>       0.03703704 </v>
    <v>       0.01851852 </v>
    <v>       0.00925926 </v>
    <v>       0.01851852 </v>
    <v>       0.01851852 </v>
    <v>       0.00925926 </v>
    <v>       0.00925926 </v>
    <v>       0.01851852 </v>
    <v>       0.01851852 </v>
    <v>       0.00925926 </v>
    <v>       0.01851852 </v>
    <v>       0.03703704 </v>
    <v>       0.03703704 </v>
    <v>       0.01851852 </v>
    <v>       0.00925926 </v>
    <v>       0.01851852 </v>
    <v>       0.01851852 </v>
    <v>       0.00925926 </v>
    <v>       0.00462963 </v>
    <v>       0.00925926 </v>
    <v>       0.00925926 </v>
    <v>       0.00462963 </v>
   </varray>
  </kpoints>
  <scstep>
   <time name="total">   41.67   41.67</time>
   <energy>
    <i name="e_fr_energy">   -384.57004490 </i>
    <i name="e_wo_entrp">   -384.57004490 </i>
    <i name="e_0_energy">   -384.57004490 </i>
   </energy>
  </scstep>
  <scstep>
   <time name="total">   30.47   30.47</time>
   <energy>
    <i name="e_fr_energy">   -321.78013221 </i>
    <i name="e_wo_entrp">   -321.78013221 </i>
    <i name="e_0_energy">   -321.78013221 </i>
   </energy>
  </scstep>
  <scstep>
   <time name="total">   30.06   30.07</time>
   <energy>
    <i name="e_fr_energy">   -320.94983100 </i>
    <i name="e_wo_entrp">   -320.94983100 </i>
    <i name="e_0_energy">   -320.94983100 </i>
   </energy>
  </scstep>
  <scstep>
   <time name="total">   30.85   30.85</time>
   <energy>
    <i name="e_fr_energy">   -321.85731054 </i>
    <i name="e_wo_entrp">   -321.85731054 </i>
    <i name="e_0_energy">   -321.85731054 </i>
   </energy>
  </scstep>
  <scstep>
   <time name="total">   31.05   31.05</time>
   <energy>
    <i name="e_fr_energy">   -322.15585348 </i>
    <i name="e_wo_entrp">   -322.15585348 </i>
    <i name="e_0_energy">   -322.15585348 </i>
   </energy>
  </scstep>
  <scstep>
   <time name="total">   30.58   30.58</time>
   <energy>
    <i name="e_fr_energy">   -322.12051181 </i>
    <i name="e_wo_entrp">   -322.12051181 </i>
    <i name="e_0_energy">   -322.12051181 </i>
   </energy>
  </scstep>
  <scstep>
   <time name="total">   31.23   31.23</time>
   <energy>
    <i name="e_fr_energy">   -322.10001503 </i>
    <i name="e_wo_entrp">   -322.10001503 </i>
    <i name="e_0_energy">   -322.10001503 </i>
   </energy>
  </scstep>
  <scstep>
   <time name="total">   31.36   31.36</time>
   <energy>
    <i name="e_fr_energy">   -322.09864191 </i>
    <i name="e_wo_entrp">   -322.09864191 </i>
    <i name="e_0_energy">   -322.09864191 </i>
   </energy>
  </scstep>
  <scstep>
   <time name="total">   31.37   31.37</time>
   <energy>
    <i name="e_fr_energy">   -322.09794914 </i>
    <i name="e_wo_entrp">   -322.09794914 </i>
    <i name="e_0_energy">   -322.09794914 </i>
   </energy>
  </scstep>
  <scstep>
   <time name="total">   31.77   31.77</time>
   <energy>
    <i name="e_fr_energy">   -322.09807956 </i>
    <i name="e_wo_entrp">   -322.09807956 </i>
    <i name="e_0_energy">   -322.09807956 </i>
   </energy>
  </scstep>
  <scstep>
   <time name="total">   31.88   31.88</time>
   <energy>
    <i name="e_fr_energy">   -322.09806599 </i>
    <i name="e_wo_entrp">   -322.09806599 </i>
    <i name="e_0_energy">   -322.09806599 </i>
   </energy>
  </scstep>
  <kpoints>
   <generation param="Gamma">
    <v type="int" name="divisions">       6        6        6 </v>
    <v name="usershift">      0.00000000       0.00000000       0.00000000 </v>
    <v name="genvec1">      0.16666667       0.00000000       0.00000000 </v>
    <v name="genvec2">      0.00000000       0.16666667       0.00000000 </v>
    <v name="genvec3">      0.00000000       0.00000000       0.16666667 </v>
    <v name="shift">      0.00000000       0.00000000       0.00000000 </v>
   </generation>
   <varray name="kpointlist" >
    <v>       0.00000000       0.00000000       0.00000000 </v>
    <v>       0.16666667       0.00000000       0.00000000 </v>
    <v>       0.33333333       0.00000000       0.00000000 </v>
    <v>       0.50000000       0.00000000       0.00000000 </v>
    <v>       0.16666667       0.16666667       0.00000000 </v>
    <v>       0.33333333       0.16666667       0.00000000 </v>
    <v>       0.50000000       0.16666667       0.00000000 </v>
    <v>       0.33333333       0.33333333       0.00000000 </v>
    <v>       0.50000000       0.33333333       0.00000000 </v>
    <v>       0.50000000       0.50000000       0.00000000 </v>
    <v>       0.16666667       0.16666667       0.16666667 </v>
    <v>       0.33333333       0.16666667       0.16666667 </v>
    <v>       0.50000000       0.16666667       0.16666667 </v>
    <v>       0.33333333       0.33333333       0.16666667 </v>
    <v>       0.50000000       0.33333333       0.16666667 </v>
    <v>       0.50000000       0.50000000       0.16666667 </v>
    <v>       0.33333333       0.33333333       0.33333333 </v>
    <v>       0.50000000       0.33333333       0.33333333 </v>
    <v>       0.50000000       0.50000000       0.33333333 </v>
    <v>       0.50000000       0.50000000       0.50000000 </v>
   </varray>
   <varray name="weights" >
    <v>       0.00462963 </v>
    <v>       0.02777778 </v>
    <v>       0.02777778 </v>
    <v>       0.01388889 </v>
    <v>       0.05555556 </v>
    <v>       0.11111111 </v>
    <v>       0.05555556 </v>
    <v>       0.05555556 </v>
    <v>       0.05555556 </v>
    <v>       0.01388889 </v>
    <v>       0.03703704 </v>
    <v>       0.11111111 </v>
    <v>       0.05555556 </v>
    <v>       0.11111111 </v>
    <v>       0.11111111 </v>
    <v>       0.02777778 </v>
    <v>       0.03703704 </v>
    <v>       0.05555556 </v>
    <v>       0.02777778 </v>
    <v>       0.00462963 </v>
   </varray>
  </kpoints>
  <dynmat>
   <varray name="hessian" >
    <v>      -4.58860075      -0.00000000      -0.00000000       0.01658389       0.00000000      -0.00000000       0.00843066       0.00000000       0.00000000       0.01337953       0.00000000       0.00000000       0.00843066       0.00000000       0.00000000       0.01337953      -0.00000000       0.00000000      -0.05007117      -0.00000000      -0.00000000       0.00514687      -0.00000000      -0.00000000      -0.01415576      -0.00822130       0.00432221       0.00874069      -0.01174585      -0.02118024       0.94876679      -0.35345035      -0.35345035      -0.00577929      -0.00822130      -0.00822130       0.03033316      -0.02118024      -0.02118024      -0.00286411      -0.00250144      -0.00250144      -0.01415576       0.00432221      -0.00822130       0.00874069      -0.02118024      -0.01174585      -0.12892127       0.07105887      -0.07105887      -0.00650769       0.00390161      -0.00390161      -0.12892127       0.07105887       0.07105887      -0.00650769       0.00390161       0.00390161      -0.12892127      -0.07105887      -0.07105887      -0.00650769      -0.00390161      -0.00390161      -0.12892127      -0.07105887       0.07105887      -0.00650769      -0.00390161       0.00390161       0.94876679       0.35345035       0.35345035      -0.00577929       0.00822130       0.00822130      -0.01415576       0.00822130      -0.00432221       0.00874069       0.01174585       0.02118024      -0.01415576      -0.00432221       0.00822130       0.00874069       0.02118024       0.01174585       0.03033316       0.02118024       0.02118024      -0.00286411       0.00250144       0.00250144       0.15177784      -0.07105887       0.15891897       0.15177784      -0.07105887      -0.15891897       0.00778854      -0.00390161      -0.00586366       0.00778854      -0.00390161       0.00586366       0.15177784       0.07105887      -0.15891897       0.15177784       0.07105887       0.15891897       0.00778854       0.00390161       0.00586366       0.00778854       0.00390161      -0.00586366      -0.01415576       0.00822130       0.00432221       0.00874069       0.01174585      -0.02118024       0.94876679       0.35345035      -0.35345035      -0.00577929       0.00822130      -0.00822130       0.03033316       0.02118024      -0.02118024      -0.00286411       0.00250144      -0.00250144      -0.01415576      -0.00432221      -0.00822130       0.00874069       0.02118024      -0.01174585       0.15177784      -0.15891897       0.07105887       0.15177784       0.15891897       0.07105887       0.15177784       0.15891897      -0.07105887       0.15177784      -0.15891897      -0.07105887       0.00778854       0.00586366       0.00390161       0.00778854      -0.00586366       0.00390161       0.00778854      -0.00586366      -0.00390161       0.00778854       0.00586366      -0.00390161       0.94876679      -0.35345035       0.35345035      -0.00577929      -0.00822130       0.00822130      -0.01415576      -0.00822130      -0.00432221       0.00874069      -0.01174585       0.02118024      -0.01415576       0.00432221       0.00822130       0.00874069      -0.02118024       0.01174585       0.03033316      -0.02118024       0.02118024      -0.00286411      -0.00250144       0.00250144 </v>
    <v>      -0.00000000      -4.58860075      -0.00000000       0.00000000       0.00843066       0.00000000       0.00000000       0.01658389      -0.00000000       0.00000000       0.01337953       0.00000000       0.00000000       0.00843066       0.00000000      -0.00000000      -0.05007117      -0.00000000      -0.00000000       0.01337953       0.00000000      -0.00000000       0.00514687      -0.00000000      -0.00822130      -0.00577929       0.00822130      -0.01174585       0.00874069       0.02118024      -0.35345035       0.94876679       0.35345035      -0.00822130      -0.01415576      -0.00432221      -0.02118024       0.00874069       0.01174585      -0.00250144      -0.00286411       0.00250144       0.00432221      -0.01415576       0.00822130      -0.02118024       0.03033316       0.02118024      -0.07105887       0.15177784      -0.15891897      -0.00390161       0.00778854       0.00586366      -0.07105887       0.15177784       0.15891897      -0.00390161       0.00778854      -0.00586366       0.07105887       0.15177784       0.15891897       0.00390161       0.00778854      -0.00586366       0.07105887       0.15177784      -0.15891897       0.00390161       0.00778854       0.00586366       0.35345035       0.94876679       0.35345035       0.00822130      -0.01415576      -0.00432221       0.00822130      -0.00577929       0.00822130       0.01174585       0.00874069       0.02118024      -0.00432221      -0.01415576       0.00822130       0.02118024       0.03033316       0.02118024       0.02118024       0.00874069       0.01174585       0.00250144      -0.00286411       0.00250144       0.07105887      -0.12892127       0.07105887       0.07105887      -0.12892127      -0.07105887       0.00390161      -0.00650769       0.00390161       0.00390161      -0.00650769      -0.00390161      -0.07105887      -0.12892127       0.07105887      -0.07105887      -0.12892127      -0.07105887      -0.00390161      -0.00650769       0.00390161      -0.00390161      -0.00650769      -0.00390161       0.00822130      -0.00577929      -0.00822130       0.01174585       0.00874069      -0.02118024       0.35345035       0.94876679      -0.35345035       0.00822130      -0.01415576       0.00432221       0.02118024       0.00874069      -0.01174585       0.00250144      -0.00286411      -0.00250144      -0.00432221      -0.01415576      -0.00822130       0.02118024       0.03033316      -0.02118024      -0.15891897       0.15177784      -0.07105887       0.15891897       0.15177784       0.07105887       0.15891897       0.15177784      -0.07105887      -0.15891897       0.15177784       0.07105887       0.00586366       0.00778854      -0.00390161      -0.00586366       0.00778854       0.00390161      -0.00586366       0.00778854      -0.00390161       0.00586366       0.00778854       0.00390161      -0.35345035       0.94876679      -0.35345035      -0.00822130      -0.01415576       0.00432221      -0.00822130      -0.00577929      -0.00822130      -0.01174585       0.00874069      -0.02118024       0.00432221      -0.01415576      -0.00822130      -0.02118024       0.03033316      -0.02118024      -0.02118024       0.00874069      -0.01174585      -0.00250144      -0.00286411      -0.00250144 </v>
    <v>      -0.00000000      -0.00000000      -4.58860075      -0.00000000       0.00000000       0.00843066       0.00000000      -0.00000000       0.00843066       0.00000000       0.00000000      -0.05007117       0.00000000       0.00000000       0.01658389       0.00000000      -0.00000000       0.01337953      -0.00000000       0.00000000       0.01337953      -0.00000000      -0.00000000       0.00514687       0.00432221       0.00822130      -0.01415576      -0.02118024       0.02118024       0.03033316      -0.35345035       0.35345035       0.94876679      -0.00822130      -0.00432221      -0.01415576      -0.02118024       0.01174585       0.00874069      -0.00250144       0.00250144      -0.00286411      -0.00822130       0.00822130      -0.00577929      -0.01174585       0.02118024       0.00874069       0.07105887      -0.15891897       0.15177784       0.00390161       0.00586366       0.00778854      -0.07105887       0.15891897       0.15177784      -0.00390161      -0.00586366       0.00778854       0.07105887       0.15891897       0.15177784       0.00390161      -0.00586366       0.00778854      -0.07105887      -0.15891897       0.15177784      -0.00390161       0.00586366       0.00778854       0.35345035       0.35345035       0.94876679       0.00822130      -0.00432221      -0.01415576      -0.00432221       0.00822130      -0.01415576       0.02118024       0.02118024       0.03033316       0.00822130       0.00822130      -0.00577929       0.01174585       0.02118024       0.00874069       0.02118024       0.01174585       0.00874069       0.00250144       0.00250144      -0.00286411       0.15891897      -0.07105887       0.15177784      -0.15891897       0.07105887       0.15177784      -0.00586366      -0.00390161       0.00778854       0.00586366       0.00390161       0.00778854      -0.15891897      -0.07105887       0.15177784       0.15891897       0.07105887       0.15177784       0.00586366      -0.00390161       0.00778854      -0.00586366       0.00390161       0.00778854       0.00432221      -0.00822130      -0.01415576      -0.02118024      -0.02118024       0.03033316      -0.35345035      -0.35345035       0.94876679      -0.00822130       0.00432221      -0.01415576      -0.02118024      -0.01174585       0.00874069      -0.00250144      -0.00250144      -0.00286411      -0.00822130      -0.00822130      -0.00577929      -0.01174585      -0.02118024       0.00874069      -0.07105887       0.07105887      -0.12892127      -0.07105887      -0.07105887      -0.12892127       0.07105887       0.07105887      -0.12892127       0.07105887      -0.07105887      -0.12892127      -0.00390161       0.00390161      -0.00650769      -0.00390161      -0.00390161      -0.00650769       0.00390161       0.00390161      -0.00650769       0.00390161      -0.00390161      -0.00650769       0.35345035      -0.35345035       0.94876679       0.00822130       0.00432221      -0.01415576      -0.00432221      -0.00822130      -0.01415576       0.02118024      -0.02118024       0.03033316       0.00822130      -0.00822130      -0.00577929       0.01174585      -0.02118024       0.00874069       0.02118024      -0.01174585       0.00874069       0.00250144      -0.00250144      -0.00286411 </v>
    <v>       0.01658389       0.00000000      -0.00000000      -4.58860075      -0.00000000      -0.00000000       0.01337953       0.00000000       0.00000000       0.00843066       0.00000000       0.00000000       0.01337953      -0.00000000       0.00000000       0.00843066       0.00000000       0.00000000       0.00514687      -0.00000000      -0.00000000      -0.05007117      -0.00000000      -0.00000000       0.00874069      -0.01174585      -0.02118024      -0.01415576      -0.00822130       0.00432221      -0.00577929      -0.00822130      -0.00822130       0.94876679      -0.35345035      -0.35345035      -0.00286411      -0.00250144      -0.00250144       0.03033316      -0.02118024      -0.02118024       0.00874069      -0.02118024      -0.01174585      -0.01415576       0.00432221      -0.00822130      -0.00650769       0.00390161      -0.00390161      -0.12892127       0.07105887      -0.07105887      -0.00650769       0.00390161       0.00390161      -0.12892127       0.07105887       0.07105887      -0.00650769      -0.00390161      -0.00390161      -0.12892127      -0.07105887      -0.07105887      -0.00650769      -0.00390161       0.00390161      -0.12892127      -0.07105887       0.07105887      -0.00577929       0.00822130       0.00822130       0.94876679       0.35345035       0.35345035       0.00874069       0.01174585       0.02118024      -0.01415576       0.00822130      -0.00432221       0.00874069       0.02118024       0.01174585      -0.01415576      -0.00432221       0.00822130      -0.00286411       0.00250144       0.00250144       0.03033316       0.02118024       0.02118024       0.15177784      -0.07105887      -0.15891897       0.15177784      -0.07105887       0.15891897       0.00778854      -0.00390161       0.00586366       0.00778854      -0.00390161      -0.00586366       0.15177784       0.07105887       0.15891897       0.15177784       0.07105887      -0.15891897       0.00778854       0.00390161      -0.00586366       0.00778854       0.00390161       0.00586366       0.00874069       0.01174585      -0.02118024      -0.01415576       0.00822130       0.00432221      -0.00577929       0.00822130      -0.00822130       0.94876679       0.35345035      -0.35345035      -0.00286411       0.00250144      -0.00250144       0.03033316       0.02118024      -0.02118024       0.00874069       0.02118024      -0.01174585      -0.01415576      -0.00432221      -0.00822130       0.15177784       0.15891897       0.07105887       0.15177784      -0.15891897       0.07105887       0.15177784      -0.15891897      -0.07105887       0.15177784       0.15891897      -0.07105887       0.00778854      -0.00586366       0.00390161       0.00778854       0.00586366       0.00390161       0.00778854       0.00586366      -0.00390161       0.00778854      -0.00586366      -0.00390161      -0.00577929      -0.00822130       0.00822130       0.94876679      -0.35345035       0.35345035       0.00874069      -0.01174585       0.02118024      -0.01415576      -0.00822130      -0.00432221       0.00874069      -0.02118024       0.01174585      -0.01415576       0.00432221       0.00822130      -0.00286411      -0.00250144       0.00250144       0.03033316      -0.02118024       0.02118024 </v>
    <v>       0.00000000       0.00843066       0.00000000      -0.00000000      -4.58860075      -0.00000000       0.00000000       0.01337953       0.00000000       0.00000000       0.01658389      -0.00000000      -0.00000000      -0.05007117      -0.00000000       0.00000000       0.00843066       0.00000000      -0.00000000       0.00514687      -0.00000000      -0.00000000       0.01337953       0.00000000      -0.01174585       0.00874069       0.02118024      -0.00822130      -0.00577929       0.00822130      -0.00822130      -0.01415576      -0.00432221      -0.35345035       0.94876679       0.35345035      -0.00250144      -0.00286411       0.00250144      -0.02118024       0.00874069       0.01174585      -0.02118024       0.03033316       0.02118024       0.00432221      -0.01415576       0.00822130      -0.00390161       0.00778854       0.00586366      -0.07105887       0.15177784      -0.15891897      -0.00390161       0.00778854      -0.00586366      -0.07105887       0.15177784       0.15891897       0.00390161       0.00778854      -0.00586366       0.07105887       0.15177784       0.15891897       0.00390161       0.00778854       0.00586366       0.07105887       0.15177784      -0.15891897       0.00822130      -0.01415576      -0.00432221       0.35345035       0.94876679       0.35345035       0.01174585       0.00874069       0.02118024       0.00822130      -0.00577929       0.00822130       0.02118024       0.03033316       0.02118024      -0.00432221      -0.01415576       0.00822130       0.00250144      -0.00286411       0.00250144       0.02118024       0.00874069       0.01174585       0.07105887      -0.12892127      -0.07105887       0.07105887      -0.12892127       0.07105887       0.00390161      -0.00650769      -0.00390161       0.00390161      -0.00650769       0.00390161      -0.07105887      -0.12892127      -0.07105887      -0.07105887      -0.12892127       0.07105887      -0.00390161      -0.00650769      -0.00390161      -0.00390161      -0.00650769       0.00390161       0.01174585       0.00874069      -0.02118024       0.00822130      -0.00577929      -0.00822130       0.00822130      -0.01415576       0.00432221       0.35345035       0.94876679      -0.35345035       0.00250144      -0.00286411      -0.00250144       0.02118024       0.00874069      -0.01174585       0.02118024       0.03033316      -0.02118024      -0.00432221      -0.01415576      -0.00822130       0.15891897       0.15177784       0.07105887      -0.15891897       0.15177784      -0.07105887      -0.15891897       0.15177784       0.07105887       0.15891897       0.15177784      -0.07105887      -0.00586366       0.00778854       0.00390161       0.00586366       0.00778854      -0.00390161       0.00586366       0.00778854       0.00390161      -0.00586366       0.00778854      -0.00390161      -0.00822130      -0.01415576       0.00432221      -0.35345035       0.94876679      -0.35345035      -0.01174585       0.00874069      -0.02118024      -0.00822130      -0.00577929      -0.00822130      -0.02118024       0.03033316      -0.02118024       0.00432221      -0.01415576      -0.00822130      -0.00250144      -0.00286411      -0.00250144      -0.02118024       0.00874069      -0.01174585 </v>
    <v>      -0.00000000       0.00000000       0.00843066      -0.00000000      -0.00000000      -4.58860075       0.00000000       0.00000000      -0.05007117       0.00000000      -0.00000000       0.00843066       0.00000000      -0.00000000       0.01337953       0.00000000       0.00000000       0.01658389      -0.00000000      -0.00000000       0.00514687      -0.00000000       0.00000000       0.01337953      -0.02118024       0.02118024       0.03033316       0.00432221       0.00822130      -0.01415576      -0.00822130      -0.00432221      -0.01415576      -0.35345035       0.35345035       0.94876679      -0.00250144       0.00250144      -0.00286411      -0.02118024       0.01174585       0.00874069      -0.01174585       0.02118024       0.00874069      -0.00822130       0.00822130      -0.00577929       0.00390161       0.00586366       0.00778854       0.07105887      -0.15891897       0.15177784      -0.00390161      -0.00586366       0.00778854      -0.07105887       0.15891897       0.15177784       0.00390161      -0.00586366       0.00778854       0.07105887       0.15891897       0.15177784      -0.00390161       0.00586366       0.00778854      -0.07105887      -0.15891897       0.15177784       0.00822130      -0.00432221      -0.01415576       0.35345035       0.35345035       0.94876679       0.02118024       0.02118024       0.03033316      -0.00432221       0.00822130      -0.01415576       0.01174585       0.02118024       0.00874069       0.00822130       0.00822130      -0.00577929       0.00250144       0.00250144      -0.00286411       0.02118024       0.01174585       0.00874069      -0.15891897       0.07105887       0.15177784       0.15891897      -0.07105887       0.15177784       0.00586366       0.00390161       0.00778854      -0.00586366      -0.00390161       0.00778854       0.15891897       0.07105887       0.15177784      -0.15891897      -0.07105887       0.15177784      -0.00586366       0.00390161       0.00778854       0.00586366      -0.00390161       0.00778854      -0.02118024      -0.02118024       0.03033316       0.00432221      -0.00822130      -0.01415576      -0.00822130       0.00432221      -0.01415576      -0.35345035      -0.35345035       0.94876679      -0.00250144      -0.00250144      -0.00286411      -0.02118024      -0.01174585       0.00874069      -0.01174585      -0.02118024       0.00874069      -0.00822130      -0.00822130      -0.00577929      -0.07105887      -0.07105887      -0.12892127      -0.07105887       0.07105887      -0.12892127       0.07105887      -0.07105887      -0.12892127       0.07105887       0.07105887      -0.12892127      -0.00390161      -0.00390161      -0.00650769      -0.00390161       0.00390161      -0.00650769       0.00390161      -0.00390161      -0.00650769       0.00390161       0.00390161      -0.00650769       0.00822130       0.00432221      -0.01415576       0.35345035      -0.35345035       0.94876679       0.02118024      -0.02118024       0.03033316      -0.00432221      -0.00822130      -0.01415576       0.01174585      -0.02118024       0.00874069       0.00822130      -0.00822130      -0.00577929       0.00250144      -0.00250144      -0.00286411       0.02118024      -0.01174585       0.00874069 </v>
    <v>       0.00843066       0.00000000       0.00000000       0.01337953       0.00000000       0.00000000      -4.58860075      -0.00000000      -0.00000000       0.01658389       0.00000000      -0.00000000      -0.05007117      -0.00000000      -0.00000000       0.00514687      -0.00000000      -0.00000000       0.00843066       0.00000000       0.00000000       0.01337953      -0.00000000       0.00000000       0.94876679      -0.35345035      -0.35345035      -0.00577929      -0.00822130      -0.00822130      -0.01415576      -0.00822130       0.00432221       0.00874069      -0.01174585      -0.02118024      -0.01415576       0.00432221      -0.00822130       0.00874069      -0.02118024      -0.01174585       0.03033316      -0.02118024      -0.02118024      -0.00286411      -0.00250144      -0.00250144      -0.12892127       0.07105887       0.07105887      -0.00650769       0.00390161       0.00390161      -0.12892127       0.07105887      -0.07105887      -0.00650769       0.00390161      -0.00390161      -0.12892127      -0.07105887       0.07105887      -0.00650769      -0.00390161       0.00390161      -0.12892127      -0.07105887      -0.07105887      -0.00650769      -0.00390161      -0.00390161      -0.01415576       0.00822130      -0.00432221       0.00874069       0.01174585       0.02118024       0.94876679       0.35345035       0.35345035      -0.00577929       0.00822130       0.00822130       0.03033316       0.02118024       0.02118024      -0.00286411       0.00250144       0.00250144      -0.01415576      -0.00432221       0.00822130       0.00874069       0.02118024       0.01174585       0.00778854      -0.00390161      -0.00586366       0.00778854      -0.00390161       0.00586366       0.15177784      -0.07105887       0.15891897       0.15177784      -0.07105887      -0.15891897       0.00778854       0.00390161       0.00586366       0.00778854       0.00390161      -0.00586366       0.15177784       0.07105887      -0.15891897       0.15177784       0.07105887       0.15891897       0.94876679       0.35345035      -0.35345035      -0.00577929       0.00822130      -0.00822130      -0.01415576       0.00822130       0.00432221       0.00874069       0.01174585      -0.02118024      -0.01415576      -0.00432221      -0.00822130       0.00874069       0.02118024      -0.01174585       0.03033316       0.02118024      -0.02118024      -0.00286411       0.00250144      -0.00250144       0.15177784       0.15891897      -0.07105887       0.15177784      -0.15891897      -0.07105887       0.15177784      -0.15891897       0.07105887       0.15177784       0.15891897       0.07105887       0.00778854      -0.00586366      -0.00390161       0.00778854       0.00586366      -0.00390161       0.00778854       0.00586366       0.00390161       0.00778854      -0.00586366       0.00390161      -0.01415576      -0.00822130      -0.00432221       0.00874069      -0.01174585       0.02118024       0.94876679      -0.35345035       0.35345035      -0.00577929      -0.00822130       0.00822130       0.03033316      -0.02118024       0.02118024      -0.00286411      -0.00250144       0.00250144      -0.01415576       0.00432221       0.00822130       0.00874069      -0.02118024       0.01174585 </v>
    <v>       0.00000000       0.01658389      -0.00000000       0.00000000       0.01337953       0.00000000      -0.00000000      -4.58860075      -0.00000000       0.00000000       0.00843066       0.00000000      -0.00000000       0.01337953       0.00000000      -0.00000000       0.00514687      -0.00000000       0.00000000       0.00843066       0.00000000      -0.00000000      -0.05007117      -0.00000000      -0.35345035       0.94876679       0.35345035      -0.00822130      -0.01415576      -0.00432221      -0.00822130      -0.00577929       0.00822130      -0.01174585       0.00874069       0.02118024       0.00432221      -0.01415576       0.00822130      -0.02118024       0.03033316       0.02118024      -0.02118024       0.00874069       0.01174585      -0.00250144      -0.00286411       0.00250144      -0.07105887       0.15177784       0.15891897      -0.00390161       0.00778854      -0.00586366      -0.07105887       0.15177784      -0.15891897      -0.00390161       0.00778854       0.00586366       0.07105887       0.15177784      -0.15891897       0.00390161       0.00778854       0.00586366       0.07105887       0.15177784       0.15891897       0.00390161       0.00778854      -0.00586366       0.00822130      -0.00577929       0.00822130       0.01174585       0.00874069       0.02118024       0.35345035       0.94876679       0.35345035       0.00822130      -0.01415576      -0.00432221       0.02118024       0.00874069       0.01174585       0.00250144      -0.00286411       0.00250144      -0.00432221      -0.01415576       0.00822130       0.02118024       0.03033316       0.02118024       0.00390161      -0.00650769       0.00390161       0.00390161      -0.00650769      -0.00390161       0.07105887      -0.12892127       0.07105887       0.07105887      -0.12892127      -0.07105887      -0.00390161      -0.00650769       0.00390161      -0.00390161      -0.00650769      -0.00390161      -0.07105887      -0.12892127       0.07105887      -0.07105887      -0.12892127      -0.07105887       0.35345035       0.94876679      -0.35345035       0.00822130      -0.01415576       0.00432221       0.00822130      -0.00577929      -0.00822130       0.01174585       0.00874069      -0.02118024      -0.00432221      -0.01415576      -0.00822130       0.02118024       0.03033316      -0.02118024       0.02118024       0.00874069      -0.01174585       0.00250144      -0.00286411      -0.00250144       0.15891897       0.15177784      -0.07105887      -0.15891897       0.15177784       0.07105887      -0.15891897       0.15177784      -0.07105887       0.15891897       0.15177784       0.07105887      -0.00586366       0.00778854      -0.00390161       0.00586366       0.00778854       0.00390161       0.00586366       0.00778854      -0.00390161      -0.00586366       0.00778854       0.00390161      -0.00822130      -0.00577929      -0.00822130      -0.01174585       0.00874069      -0.02118024      -0.35345035       0.94876679      -0.35345035      -0.00822130      -0.01415576       0.00432221      -0.02118024       0.00874069      -0.01174585      -0.00250144      -0.00286411      -0.00250144       0.00432221      -0.01415576      -0.00822130      -0.02118024       0.03033316      -0.02118024 </v>
    <v>       0.00000000      -0.00000000       0.00843066       0.00000000       0.00000000      -0.05007117      -0.00000000      -0.00000000      -4.58860075      -0.00000000       0.00000000       0.00843066      -0.00000000       0.00000000       0.01337953      -0.00000000      -0.00000000       0.00514687       0.00000000       0.00000000       0.01658389       0.00000000      -0.00000000       0.01337953      -0.35345035       0.35345035       0.94876679      -0.00822130      -0.00432221      -0.01415576       0.00432221       0.00822130      -0.01415576      -0.02118024       0.02118024       0.03033316      -0.00822130       0.00822130      -0.00577929      -0.01174585       0.02118024       0.00874069      -0.02118024       0.01174585       0.00874069      -0.00250144       0.00250144      -0.00286411      -0.07105887       0.15891897       0.15177784      -0.00390161      -0.00586366       0.00778854       0.07105887      -0.15891897       0.15177784       0.00390161       0.00586366       0.00778854      -0.07105887      -0.15891897       0.15177784      -0.00390161       0.00586366       0.00778854       0.07105887       0.15891897       0.15177784       0.00390161      -0.00586366       0.00778854      -0.00432221       0.00822130      -0.01415576       0.02118024       0.02118024       0.03033316       0.35345035       0.35345035       0.94876679       0.00822130      -0.00432221      -0.01415576       0.02118024       0.01174585       0.00874069       0.00250144       0.00250144      -0.00286411       0.00822130       0.00822130      -0.00577929       0.01174585       0.02118024       0.00874069      -0.00586366      -0.00390161       0.00778854       0.00586366       0.00390161       0.00778854       0.15891897      -0.07105887       0.15177784      -0.15891897       0.07105887       0.15177784       0.00586366      -0.00390161       0.00778854      -0.00586366       0.00390161       0.00778854      -0.15891897      -0.07105887       0.15177784       0.15891897       0.07105887       0.15177784      -0.35345035      -0.35345035       0.94876679      -0.00822130       0.00432221      -0.01415576       0.00432221      -0.00822130      -0.01415576      -0.02118024      -0.02118024       0.03033316      -0.00822130      -0.00822130      -0.00577929      -0.01174585      -0.02118024       0.00874069      -0.02118024      -0.01174585       0.00874069      -0.00250144      -0.00250144      -0.00286411       0.07105887       0.07105887      -0.12892127       0.07105887      -0.07105887      -0.12892127      -0.07105887       0.07105887      -0.12892127      -0.07105887      -0.07105887      -0.12892127       0.00390161       0.00390161      -0.00650769       0.00390161      -0.00390161      -0.00650769      -0.00390161       0.00390161      -0.00650769      -0.00390161      -0.00390161      -0.00650769      -0.00432221      -0.00822130      -0.01415576       0.02118024      -0.02118024       0.03033316       0.35345035      -0.35345035       0.94876679       0.00822130       0.00432221      -0.01415576       0.02118024      -0.01174585       0.00874069       0.00250144      -0.00250144      -0.00286411       0.00822130      -0.00822130      -0.00577929       0.01174585      -0.02118024       0.00874069 </v>
[...]
      </set>
     </set>
    </set>
   </array>
  </eigenvalues>
  <separator name="orbital magnetization" >
   <v name="MAGDIPOLOUT">      0.00000000      0.00000000      0.00000000</v>
  </separator>
  <dos>
   <i name="efermi">     11.65457826 </i>
   <total>
    <array>
     <dimension dim="1">gridpoints</dimension>
     <dimension dim="2">spin</dimension>
     <field>energy</field>
     <field>total</field>
     <field>integrated</field>
     <set>
      <set comment="spin 1">
       <r>   -13.3789     0.0000     0.0000 </r>
       <r>   -13.2486     0.0000     0.0000 </r>
       <r>   -13.1182     0.0000     0.0000 </r>
       <r>   -12.9879     0.0000     0.0000 </r>
       <r>   -12.8576     0.0000     0.0000 </r>
       <r>   -12.7272     0.0000     0.0000 </r>
       <r>   -12.5969     0.0000     0.0000 </r>
       <r>   -12.4665     0.0000     0.0000 </r>
       <r>   -12.3362     0.0000     0.0000 </r>
       <r>   -12.2059     0.0000     0.0000 </r>
       <r>   -12.0755     0.0000     0.0000 </r>
       <r>   -11.9452     0.0000     0.0000 </r>
       <r>   -11.8148     0.0000     0.0000 </r>
       <r>   -11.6845     0.0019     0.0002 </r>
       <r>   -11.5541     0.2048     0.0269 </r>
       <r>   -11.4238     1.1404     0.1756 </r>
       <r>   -11.2935     1.2508     0.3386 </r>
       <r>   -11.1631     2.6761     0.6874 </r>
       <r>   -11.0328     1.3170     0.8591 </r>
       <r>   -10.9024     3.2900     1.2879 </r>
       <r>   -10.7721     2.6344     1.6313 </r>
       <r>   -10.6418     3.4941     2.0867 </r>
       <r>   -10.5114     2.1322     2.3646 </r>
       <r>   -10.3811     4.2090     2.9132 </r>
       <r>   -10.2507     3.9879     3.4330 </r>
       <r>   -10.1204     4.6558     4.0398 </r>
       <r>    -9.9901     2.1740     4.3232 </r>
       <r>    -9.8597     3.9638     4.8398 </r>
       <r>    -9.7294     6.1986     5.6477 </r>
       <r>    -9.5990     4.6870     6.2586 </r>
       <r>    -9.4687     4.5105     6.8465 </r>
       <r>    -9.3384     3.2501     7.2702 </r>
       <r>    -9.2080     6.4065     8.1052 </r>
       <r>    -9.0777     4.6401     8.7100 </r>
       <r>    -8.9473     5.4989     9.4267 </r>
       <r>    -8.8170     5.1037    10.0919 </r>
       <r>    -8.6867     7.5922    11.0815 </r>
       <r>    -8.5563     4.8904    11.7189 </r>
       <r>    -8.4260     6.1284    12.5177 </r>
       <r>    -8.2956     2.3581    12.8251 </r>
       <r>    -8.1653     8.6980    13.9588 </r>
       <r>    -8.0350     6.2134    14.7686 </r>
       <r>    -7.9046     9.4602    16.0017 </r>
       <r>    -7.7743     4.9953    16.6527 </r>
       <r>    -7.6439     5.6423    17.3882 </r>
       <r>    -7.5136     5.7073    18.1321 </r>
       <r>    -7.3833     9.0579    19.3127 </r>
       <r>    -7.2529     3.4228    19.7588 </r>
       <r>    -7.1226    11.0394    21.1977 </r>
       <r>    -6.9922     6.9714    22.1063 </r>
       <r>    -6.8619     8.8112    23.2548 </r>
       <r>    -6.7316     3.5371    23.7158 </r>
       <r>    -6.6012    11.5205    25.2174 </r>
       <r>    -6.4709     8.5077    26.3263 </r>
       <r>    -6.3405     6.9614    27.2336 </r>
       <r>    -6.2102     5.1728    27.9079 </r>
       <r>    -6.0799     9.3937    29.1323 </r>
       <r>    -5.9495     8.8464    30.2853 </r>
       <r>    -5.8192     9.8220    31.5655 </r>
       <r>    -5.6888    10.7685    32.9691 </r>
       <r>    -5.5585    10.3212    34.3143 </r>
       <r>    -5.4282     8.9038    35.4749 </r>
       <r>    -5.2978     7.5676    36.4612 </r>
       <r>    -5.1675     8.2344    37.5345 </r>
       <r>    -5.0371    11.8472    39.0787 </r>
       <r>    -4.9068    12.4366    40.6997 </r>
       <r>    -4.7765    10.7988    42.1072 </r>
       <r>    -4.6461    12.4045    43.7240 </r>
       <r>    -4.5158     7.6046    44.7152 </r>
       <r>    -4.3854     8.7930    45.8612 </r>
       <r>    -4.2551    12.8863    47.5408 </r>
       <r>    -4.1247     9.0134    48.7157 </r>
       <r>    -3.9944     7.6569    49.7137 </r>
       <r>    -3.8641     9.7564    50.9853 </r>
       <r>    -3.7337     4.9092    51.6252 </r>
       <r>    -3.6034     6.3145    52.4482 </r>
       <r>    -3.4730    11.8276    53.9898 </r>
       <r>    -3.3427    10.8113    55.3990 </r>
       <r>    -3.2124     4.8130    56.0263 </r>
       <r>    -3.0820     6.6152    56.8885 </r>
       <r>    -2.9517    11.5703    58.3966 </r>
       <r>    -2.8213     7.8273    59.4168 </r>
       <r>    -2.6910    15.5614    61.4451 </r>
       <r>    -2.5607     4.0544    61.9736 </r>
       <r>    -2.4303     5.1726    62.6478 </r>
       <r>    -2.3000     9.5692    63.8950 </r>
       <r>    -2.1696     7.8454    64.9176 </r>
       <r>    -2.0393    12.3725    66.5302 </r>
       <r>    -1.9090    10.5929    67.9109 </r>
       <r>    -1.7786     9.8888    69.1998 </r>
       <r>    -1.6483    12.3836    70.8139 </r>
       <r>    -1.5179     8.5536    71.9288 </r>
       <r>    -1.3876     8.1283    72.9882 </r>
       <r>    -1.2573    11.1086    74.4361 </r>
       <r>    -1.1269     9.6892    75.6990 </r>
       <r>    -0.9966    15.7946    77.7577 </r>
       <r>    -0.8662    12.7008    79.4131 </r>
       <r>    -0.7359     8.6542    80.5411 </r>
       <r>    -0.6056    25.0434    83.8053 </r>
       <r>    -0.4752    24.0642    86.9418 </r>
       <r>    -0.3449    15.0700    88.9060 </r>
       <r>    -0.2145     6.8969    89.8050 </r>
       <r>    -0.0842    11.7105    91.3313 </r>
       <r>     0.0461     6.7525    92.2114 </r>
       <r>     0.1765     7.6000    93.2020 </r>
       <r>     0.3068    10.5701    94.5797 </r>
       <r>     0.4372     7.8034    95.5968 </r>
       <r>     0.5675     7.6147    96.5893 </r>
       <r>     0.6978    11.8690    98.1363 </r>
       <r>     0.8282    16.4583   100.2815 </r>
       <r>     0.9585    13.3038   102.0155 </r>
       <r>     1.0889     4.4340   102.5935 </r>
       <r>     1.2192     6.6324   103.4579 </r>
       <r>     1.3495     8.5185   104.5683 </r>
       <r>     1.4799    15.2328   106.5537 </r>
       <r>     1.6102    19.0330   109.0345 </r>
       <r>     1.7406    10.7594   110.4369 </r>
       <r>     1.8709    13.8353   112.2402 </r>
       <r>     2.0012    18.9426   114.7091 </r>
       <r>     2.1316    12.9245   116.3937 </r>
       <r>     2.2619    15.2908   118.3867 </r>
       <r>     2.3923    17.5323   120.6719 </r>
       <r>     2.5226     9.2841   121.8820 </r>
       <r>     2.6529    14.6547   123.7921 </r>
       <r>     2.7833    15.4334   125.8037 </r>
       <r>     2.9136    26.5231   129.2607 </r>
       <r>     3.0440    14.1503   131.1051 </r>
       <r>     3.1743     7.3080   132.0576 </r>
       <r>     3.3046    14.6166   133.9627 </r>
       <r>     3.4350    19.7510   136.5371 </r>
       <r>     3.5653    14.5583   138.4346 </r>
       <r>     3.6957    18.5187   140.8483 </r>
       <r>     3.8260    22.2756   143.7518 </r>
       <r>     3.9564    19.4765   146.2903 </r>
       <r>     4.0867    19.3501   148.8124 </r>
       <r>     4.2170    13.3512   150.5526 </r>
       <r>     4.3474    21.4442   153.3477 </r>
       <r>     4.4777    22.0436   156.2208 </r>
       <r>     4.6081    36.8738   161.0270 </r>
       <r>     4.7384    14.2492   162.8842 </r>
       <r>     4.8687    19.4783   165.4230 </r>
       <r>     4.9991    21.7578   168.2590 </r>
       <r>     5.1294    23.0301   171.2607 </r>
       <r>     5.2598    24.0085   174.3900 </r>
       <r>     5.3901    25.8156   177.7548 </r>
       <r>     5.5204    23.8282   180.8606 </r>
       <r>     5.6508    24.5498   184.0604 </r>
       <r>     5.7811    15.0876   186.0269 </r>
       <r>     5.9115    19.3055   188.5432 </r>
       <r>     6.0418    15.1846   190.5224 </r>
       <r>     6.1721    26.4975   193.9761 </r>
       <r>     6.3025    23.3067   197.0139 </r>
       <r>     6.4328    24.2554   200.1754 </r>
       <r>     6.5632    18.2891   202.5592 </r>
       <r>     6.6935    21.2979   205.3351 </r>
       <r>     6.8238    15.1204   207.3059 </r>
       <r>     6.9542    24.1239   210.4503 </r>
       <r>     7.0845    15.6387   212.4886 </r>
       <r>     7.2149    12.7710   214.1532 </r>
       <r>     7.3452    26.3421   217.5866 </r>
       <r>     7.4755    25.3937   220.8965 </r>
       <r>     7.6059    15.9640   222.9772 </r>
       <r>     7.7362    21.9516   225.8384 </r>
       <r>     7.8666    14.8245   227.7706 </r>
       <r>     7.9969    11.3554   229.2507 </r>
       <r>     8.1272    15.7204   231.2997 </r>
       <r>     8.2576    22.1211   234.1830 </r>
       <r>     8.3879    28.3162   237.8737 </r>
       <r>     8.5183    12.3690   239.4859 </r>
       <r>     8.6486     6.5095   240.3343 </r>
       <r>     8.7789     5.9114   241.1048 </r>
       <r>     8.9093    12.8290   242.7770 </r>
       <r>     9.0396    10.8889   244.1962 </r>
       <r>     9.1700    11.9790   245.7576 </r>
       <r>     9.3003    11.2465   247.2235 </r>
       <r>     9.4306     5.3478   247.9205 </r>
       <r>     9.5610     6.6659   248.7893 </r>
       <r>     9.6913     5.8092   249.5465 </r>
       <r>     9.8217     6.2222   250.3575 </r>
       <r>     9.9520     7.4923   251.3340 </r>
       <r>    10.0823     6.8807   252.2309 </r>
       <r>    10.2127     3.0745   252.6316 </r>
       <r>    10.3430     3.8056   253.1276 </r>
       <r>    10.4734     6.4352   253.9664 </r>
       <r>    10.6037     3.2885   254.3950 </r>
       <r>    10.7340     2.1024   254.6690 </r>
       <r>    10.8644     3.1375   255.0780 </r>
       <r>    10.9947     2.9339   255.4604 </r>
       <r>    11.1251     2.6126   255.8009 </r>
       <r>    11.2554     0.7168   255.8944 </r>
       <r>    11.3858     0.7533   255.9925 </r>
       <r>    11.5161     0.0572   256.0000 </r>
       <r>    11.6464     0.0000   256.0000 </r>
       <r>    11.7768     0.0000   256.0000 </r>
       <r>    11.9071     0.0000   256.0000 </r>
       <r>    12.0375     0.0000   256.0000 </r>
       <r>    12.1678     0.0000   256.0000 </r>
       <r>    12.2981     0.0000   256.0000 </r>
       <r>    12.4285     0.0000   256.0000 </r>
       <r>    12.5588     0.0000   256.0000 </r>
       <r>    12.6892     0.0000   256.0000 </r>
       <r>    12.8195     0.0000   256.0000 </r>
       <r>    12.9498     0.0000   256.0000 </r>
       <r>    13.0802     0.0000   256.0000 </r>
       <r>    13.2105     0.0000   256.0000 </r>
       <r>    13.3409     0.0000   256.0000 </r>
       <r>    13.4712     0.0000   256.0000 </r>
       <r>    13.6015     0.0000   256.0000 </r>
       <r>    13.7319     0.0000   256.0000 </r>
       <r>    13.8622     0.0000   256.0000 </r>
       <r>    13.9926     0.0000   256.0000 </r>
       <r>    14.1229     0.0000   256.0000 </r>
       <r>    14.2532     0.0000   256.0000 </r>
       <r>    14.3836     0.0000   256.0000 </r>
       <r>    14.5139     0.0000   256.0000 </r>
       <r>    14.6443     0.0000   256.0000 </r>
       <r>    14.7746     0.0000   256.0000 </r>
       <r>    14.9049     0.0000   256.0000 </r>
       <r>    15.0353     0.0000   256.0000 </r>
       <r>    15.1656     0.0000   256.0000 </r>
       <r>    15.2960     0.0000   256.0000 </r>
       <r>    15.4263     0.0000   256.0000 </r>
       <r>    15.5566     0.0000   256.0000 </r>
       <r>    15.6870     0.1198   256.0156 </r>
       <r>    15.8173     1.0432   256.1516 </r>
       <r>    15.9477     0.6668   256.2385 </r>
       <r>    16.0780     3.9383   256.7518 </r>
       <r>    16.2083     4.1318   257.2904 </r>
       <r>    16.3387     7.4811   258.2655 </r>
       <r>    16.4690     5.2008   258.9433 </r>
       <r>    16.5994     2.6346   259.2867 </r>
       <r>    16.7297     3.8418   259.7875 </r>
       <r>    16.8600    15.2752   261.7784 </r>
       <r>    16.9904    13.2706   263.5081 </r>
       <r>    17.1207     9.4308   264.7373 </r>
       <r>    17.2511     9.4056   265.9633 </r>
       <r>    17.3814    14.0603   267.7959 </r>
       <r>    17.5117    11.3028   269.2691 </r>
       <r>    17.6421    10.9297   270.6937 </r>
       <r>    17.7724    14.1719   272.5409 </r>
       <r>    17.9028    18.9232   275.0073 </r>
       <r>    18.0331    12.2711   276.6067 </r>
       <r>    18.1634    20.2667   279.2483 </r>
       <r>    18.2938    14.0226   281.0760 </r>
       <r>    18.4241    15.6292   283.1131 </r>
       <r>    18.5545    15.7430   285.1651 </r>
       <r>    18.6848    23.7307   288.2582 </r>
       <r>    18.8152    18.9182   290.7240 </r>
       <r>    18.9455    17.1898   292.9645 </r>
       <r>    19.0758    24.0382   296.0976 </r>
       <r>    19.2062    18.4662   298.5045 </r>
       <r>    19.3365    11.5674   300.0122 </r>
       <r>    19.4669    14.7793   301.9386 </r>
       <r>    19.5972    23.0612   304.9444 </r>
       <r>    19.7275    42.2818   310.4554 </r>
       <r>    19.8579    43.6104   316.1396 </r>
       <r>    19.9882    27.8379   319.7680 </r>
       <r>    20.1186    22.6927   322.7258 </r>
       <r>    20.2489    19.6190   325.2829 </r>
       <r>    20.3792    21.3374   328.0640 </r>
       <r>    20.5096    29.6059   331.9229 </r>
       <r>    20.6399    19.3579   334.4460 </r>
       <r>    20.7703    20.0567   337.0602 </r>
       <r>    20.9006    27.4054   340.6322 </r>
       <r>    21.0309    33.0169   344.9357 </r>
       <r>    21.1613    20.8829   347.6575 </r>
       <r>    21.2916    28.4897   351.3709 </r>
       <r>    21.4220    23.6838   354.4579 </r>
       <r>    21.5523    30.0370   358.3729 </r>
       <r>    21.6826    25.8298   361.7396 </r>
       <r>    21.8130    19.6252   364.2975 </r>
       <r>    21.9433    18.1496   366.6631 </r>
       <r>    22.0737    31.1663   370.7254 </r>
       <r>    22.2040    23.8927   373.8395 </r>
       <r>    22.3343    16.0818   375.9357 </r>
       <r>    22.4647    19.3987   378.4641 </r>
       <r>    22.5950    12.3529   380.0742 </r>
       <r>    22.7254     9.3964   381.2989 </r>
       <r>    22.8557     8.0120   382.3432 </r>
       <r>    22.9860     2.5107   382.6704 </r>
       <r>    23.1164     3.8013   383.1659 </r>
       <r>    23.2467     3.4169   383.6112 </r>
       <r>    23.3771     0.1411   383.6296 </r>
       <r>    23.5074     0.0807   383.6401 </r>
       <r>    23.6377     0.9941   383.7697 </r>
       <r>    23.7681     0.0619   383.7778 </r>
       <r>    23.8984     0.2581   383.8114 </r>
       <r>    24.0288     1.4113   383.9954 </r>
       <r>    24.1591     0.0354   384.0000 </r>
       <r>    24.2894     0.0000   384.0000 </r>
       <r>    24.4198     0.0000   384.0000 </r>
       <r>    24.5501     0.0000   384.0000 </r>
       <r>    24.6805     0.0000   384.0000 </r>
       <r>    24.8108     0.0000   384.0000 </r>
       <r>    24.9411     0.0000   384.0000 </r>
       <r>    25.0715     0.0000   384.0000 </r>
       <r>    25.2018     0.0000   384.0000 </r>
       <r>    25.3322     0.0000   384.0000 </r>
       <r>    25.4625     0.0000   384.0000 </r>
       <r>    25.5928     0.0000   384.0000 </r>
       <r>    25.7232     0.0000   384.0000 </r>
      </set>
     </set>
    </array>
   </total>
  </dos>
 </calculation>
 <structure name="finalpos" >
  <crystal>
   <varray name="basis" >
    <v>       6.88681241       0.00000000       0.00000000 </v>
    <v>       0.00000000       6.88681241       0.00000000 </v>
    <v>       0.00000000       0.00000000       6.88681241 </v>
   </varray>
   <i name="volume">    326.62901372 </i>
   <varray name="rec_basis" >
    <v>       0.14520506       0.00000000       0.00000000 </v>
    <v>       0.00000000       0.14520506       0.00000000 </v>
    <v>       0.00000000       0.00000000       0.14520506 </v>
   </varray>
  </crystal>
  <varray name="positions" >
   <v>       0.12500000       0.37500000       0.12500000 </v>
   <v>       0.62500000       0.37500000       0.12500000 </v>
   <v>       0.12500000       0.87500000       0.12500000 </v>
   <v>       0.62500000       0.87500000       0.12500000 </v>
   <v>       0.12500000       0.37500000       0.62500000 </v>
   <v>       0.62500000       0.37500000       0.62500000 </v>
   <v>       0.12500000       0.87500000       0.62500000 </v>
   <v>       0.62500000       0.87500000       0.62500000 </v>
   <v>       0.00000000       0.00000000       0.25000000 </v>
   <v>       0.50000000       0.00000000       0.25000000 </v>
   <v>       0.00000000       0.50000000       0.25000000 </v>
   <v>       0.50000000       0.50000000       0.25000000 </v>
   <v>       0.00000000       0.00000000       0.75000000 </v>
   <v>       0.50000000       0.00000000       0.75000000 </v>
   <v>       0.00000000       0.50000000       0.75000000 </v>
   <v>       0.50000000       0.50000000       0.75000000 </v>
   <v>       0.12500000       0.12500000       0.37500000 </v>
   <v>       0.62500000       0.12500000       0.37500000 </v>
   <v>       0.12500000       0.62500000       0.37500000 </v>
   <v>       0.62500000       0.62500000       0.37500000 </v>
   <v>       0.12500000       0.12500000       0.87500000 </v>
   <v>       0.62500000       0.12500000       0.87500000 </v>
   <v>       0.12500000       0.62500000       0.87500000 </v>
   <v>       0.62500000       0.62500000       0.87500000 </v>
   <v>       0.00000000       0.25000000       0.00000000 </v>
   <v>       0.50000000       0.25000000       0.00000000 </v>
   <v>       0.00000000       0.75000000       0.00000000 </v>
   <v>       0.50000000       0.75000000       0.00000000 </v>
   <v>       0.00000000       0.25000000       0.50000000 </v>
   <v>       0.50000000       0.25000000       0.50000000 </v>
   <v>       0.00000000       0.75000000       0.50000000 </v>
   <v>       0.50000000       0.75000000       0.50000000 </v>
   <v>       0.37500000       0.37500000       0.37500000 </v>
   <v>       0.87500000       0.37500000       0.37500000 </v>
   <v>       0.37500000       0.87500000       0.37500000 </v>
   <v>       0.87500000       0.87500000       0.37500000 </v>
   <v>       0.37500000       0.37500000       0.87500000 </v>
   <v>       0.87500000       0.37500000       0.87500000 </v>
   <v>       0.37500000       0.87500000       0.87500000 </v>
   <v>       0.87500000       0.87500000       0.87500000 </v>
   <v>       0.25000000       0.00000000       0.00000000 </v>
   <v>       0.75000000       0.00000000       0.00000000 </v>
   <v>       0.25000000       0.50000000       0.00000000 </v>
   <v>       0.75000000       0.50000000       0.00000000 </v>
   <v>       0.25000000       0.00000000       0.50000000 </v>
   <v>       0.75000000       0.00000000       0.50000000 </v>
   <v>       0.25000000       0.50000000       0.50000000 </v>
   <v>       0.75000000       0.50000000       0.50000000 </v>
   <v>       0.37500000       0.12500000       0.12500000 </v>
   <v>       0.87500000       0.12500000       0.12500000 </v>
   <v>       0.37500000       0.62500000       0.12500000 </v>
   <v>       0.87500000       0.62500000       0.12500000 </v>
   <v>       0.37500000       0.12500000       0.62500000 </v>
   <v>       0.87500000       0.12500000       0.62500000 </v>
   <v>       0.37500000       0.62500000       0.62500000 </v>
   <v>       0.87500000       0.62500000       0.62500000 </v>
   <v>       0.25000000       0.25000000       0.25000000 </v>
   <v>       0.75000000       0.25000000       0.25000000 </v>
   <v>       0.25000000       0.75000000       0.25000000 </v>
   <v>       0.75000000       0.75000000       0.25000000 </v>
   <v>       0.25000000       0.25000000       0.75000000 </v>
   <v>       0.75000000       0.25000000       0.75000000 </v>
   <v>       0.25000000       0.75000000       0.75000000 </v>
   <v>       0.75000000       0.75000000       0.75000000 </v>
  </varray>
 </structure>
</modeling>
