  64  64   0   0
  0.4938066E+01  0.6811545E-09  0.6811545E-09  0.6811545E-09  0.5000000E-15
  1.000000000000000E-004
  CAR 
 unknown system                          
     26.54333326    -13.37493746  301     12.18107210      1.00000000
    -13.375  0.0000E+00  0.0000E+00
    -13.242  0.0000E+00  0.0000E+00
    -13.109  0.0000E+00  0.0000E+00
    -12.976  0.0000E+00  0.0000E+00
    -12.843  0.0000E+00  0.0000E+00
    -12.710  0.0000E+00  0.0000E+00
    -12.577  0.0000E+00  0.0000E+00
    -12.444  0.0000E+00  0.0000E+00
    -12.310  0.0000E+00  0.0000E+00
    -12.177  0.0000E+00  0.0000E+00
    -12.044  0.0000E+00  0.0000E+00
    -11.911  0.3863E-17  0.5140E-18
    -11.778  0.9972E-08  0.1327E-08
    -11.645  0.1653E-02  0.2199E-03
    -11.512  0.1978E+00  0.2654E-01
    -11.379  0.1120E+01  0.1756E+00
    -11.246  0.1214E+01  0.3371E+00
    -11.113  0.2636E+01  0.6879E+00
    -10.980  0.1269E+01  0.8567E+00
    -10.847  0.3225E+01  0.1286E+01
    -10.714  0.2583E+01  0.1629E+01
    -10.581  0.3405E+01  0.2083E+01
    -10.448  0.2097E+01  0.2362E+01
    -10.315  0.4099E+01  0.2907E+01
    -10.181  0.3909E+01  0.3427E+01
    -10.048  0.4558E+01  0.4034E+01
     -9.915  0.2139E+01  0.4318E+01
     -9.782  0.3796E+01  0.4823E+01
     -9.649  0.6155E+01  0.5642E+01
     -9.516  0.4475E+01  0.6238E+01
     -9.383  0.4552E+01  0.6843E+01
     -9.250  0.3050E+01  0.7249E+01
     -9.117  0.6278E+01  0.8085E+01
     -8.984  0.4560E+01  0.8691E+01
     -8.851  0.5465E+01  0.9419E+01
     -8.718  0.4712E+01  0.1005E+02
     -8.585  0.7636E+01  0.1106E+02
     -8.452  0.4622E+01  0.1168E+02
     -8.319  0.6245E+01  0.1251E+02
     -8.186  0.2109E+01  0.1279E+02
     -8.053  0.8431E+01  0.1391E+02
     -7.919  0.6062E+01  0.1472E+02
     -7.786  0.9364E+01  0.1596E+02
     -7.653  0.4798E+01  0.1660E+02
     -7.520  0.5493E+01  0.1733E+02
     -7.387  0.5536E+01  0.1807E+02
     -7.254  0.8956E+01  0.1926E+02
     -7.121  0.3162E+01  0.1968E+02
     -6.988  0.1075E+02  0.2111E+02
     -6.855  0.6683E+01  0.2200E+02
     -6.722  0.9126E+01  0.2321E+02
     -6.589  0.3167E+01  0.2364E+02
     -6.456  0.1067E+02  0.2506E+02
     -6.323  0.8353E+01  0.2617E+02
     -6.190  0.7717E+01  0.2719E+02
     -6.057  0.4094E+01  0.2774E+02
     -5.924  0.9278E+01  0.2897E+02
     -5.790  0.8468E+01  0.3010E+02
     -5.657  0.9896E+01  0.3142E+02
     -5.524  0.8649E+01  0.3257E+02
     -5.391  0.1228E+02  0.3420E+02
     -5.258  0.7267E+01  0.3517E+02
     -5.125  0.8189E+01  0.3626E+02
     -4.992  0.6162E+01  0.3708E+02
     -4.859  0.1251E+02  0.3874E+02
     -4.726  0.1141E+02  0.4026E+02
     -4.593  0.1100E+02  0.4173E+02
     -4.460  0.1057E+02  0.4313E+02
     -4.327  0.1110E+02  0.4461E+02
     -4.194  0.6521E+01  0.4548E+02
     -4.061  0.1118E+02  0.4696E+02
     -3.928  0.1139E+02  0.4848E+02
     -3.795  0.5431E+01  0.4920E+02
     -3.661  0.1200E+02  0.5080E+02
     -3.528  0.4108E+01  0.5135E+02
     -3.395  0.5655E+01  0.5210E+02
     -3.262  0.9459E+01  0.5336E+02
     -3.129  0.1227E+02  0.5499E+02
     -2.996  0.7857E+01  0.5604E+02
     -2.863  0.4714E+01  0.5666E+02
     -2.730  0.1057E+02  0.5807E+02
     -2.597  0.1057E+02  0.5948E+02
     -2.464  0.1296E+02  0.6120E+02
     -2.331  0.5734E+01  0.6196E+02
     -2.198  0.6434E+01  0.6282E+02
     -2.065  0.9059E+01  0.6402E+02
     -1.932  0.8937E+01  0.6521E+02
     -1.799  0.9227E+01  0.6644E+02
     -1.666  0.1066E+02  0.6786E+02
     -1.533  0.1137E+02  0.6937E+02
     -1.399  0.1381E+02  0.7121E+02
     -1.266  0.6848E+01  0.7212E+02
     -1.133  0.8556E+01  0.7326E+02
     -1.000  0.9393E+01  0.7451E+02
     -0.867  0.1304E+02  0.7625E+02
     -0.734  0.1269E+02  0.7793E+02
     -0.601  0.1238E+02  0.7958E+02
     -0.468  0.8215E+01  0.8068E+02
     -0.335  0.2014E+02  0.8336E+02
     -0.202  0.2518E+02  0.8671E+02
     -0.069  0.1572E+02  0.8880E+02
      0.064  0.7792E+01  0.8983E+02
      0.197  0.1212E+02  0.9145E+02
      0.330  0.6699E+01  0.9234E+02
      0.463  0.6617E+01  0.9322E+02
      0.596  0.9359E+01  0.9446E+02
      0.730  0.9223E+01  0.9569E+02
      0.863  0.6650E+01  0.9658E+02
      0.996  0.1141E+02  0.9809E+02
      1.129  0.1405E+02  0.9996E+02
      1.262  0.1817E+02  0.1024E+03
      1.395  0.4510E+01  0.1030E+03
      1.528  0.5145E+01  0.1037E+03
      1.661  0.1086E+02  0.1051E+03
      1.794  0.1642E+02  0.1073E+03
      1.927  0.1814E+02  0.1097E+03
      2.060  0.1376E+02  0.1115E+03
      2.193  0.1167E+02  0.1131E+03
      2.326  0.1538E+02  0.1151E+03
      2.459  0.1130E+02  0.1166E+03
      2.592  0.1794E+02  0.1190E+03
      2.725  0.1716E+02  0.1213E+03
      2.858  0.9259E+01  0.1225E+03
      2.992  0.1522E+02  0.1246E+03
      3.125  0.1506E+02  0.1266E+03
      3.258  0.2690E+02  0.1302E+03
      3.391  0.1167E+02  0.1317E+03
      3.524  0.7283E+01  0.1327E+03
      3.657  0.1662E+02  0.1349E+03
      3.790  0.1819E+02  0.1373E+03
      3.923  0.1086E+02  0.1388E+03
      4.056  0.2211E+02  0.1417E+03
      4.189  0.2427E+02  0.1449E+03
      4.322  0.1776E+02  0.1473E+03
      4.455  0.1806E+02  0.1497E+03
      4.588  0.1707E+02  0.1520E+03
      4.721  0.1347E+02  0.1538E+03
      4.854  0.3218E+02  0.1580E+03
      4.987  0.2839E+02  0.1618E+03
      5.121  0.1816E+02  0.1642E+03
      5.254  0.1593E+02  0.1664E+03
      5.387  0.2353E+02  0.1695E+03
      5.520  0.2179E+02  0.1724E+03
      5.653  0.2241E+02  0.1754E+03
      5.786  0.2331E+02  0.1785E+03
      5.919  0.2844E+02  0.1823E+03
      6.052  0.2023E+02  0.1849E+03
      6.185  0.1566E+02  0.1870E+03
      6.318  0.1453E+02  0.1890E+03
      6.451  0.1978E+02  0.1916E+03
      6.584  0.2366E+02  0.1947E+03
      6.717  0.2396E+02  0.1979E+03
      6.850  0.2379E+02  0.2011E+03
      6.983  0.1863E+02  0.2036E+03
      7.116  0.1560E+02  0.2057E+03
      7.250  0.2007E+02  0.2083E+03
      7.383  0.1951E+02  0.2109E+03
      7.516  0.1498E+02  0.2129E+03
      7.649  0.1366E+02  0.2147E+03
      7.782  0.2878E+02  0.2186E+03
      7.915  0.2130E+02  0.2214E+03
      8.048  0.1826E+02  0.2238E+03
      8.181  0.1780E+02  0.2262E+03
      8.314  0.1434E+02  0.2281E+03
      8.447  0.1070E+02  0.2295E+03
      8.580  0.1634E+02  0.2317E+03
      8.713  0.2344E+02  0.2348E+03
      8.846  0.2687E+02  0.2384E+03
      8.979  0.9232E+01  0.2396E+03
      9.112  0.6345E+01  0.2405E+03
      9.245  0.5824E+01  0.2412E+03
      9.378  0.1250E+02  0.2429E+03
      9.512  0.1082E+02  0.2443E+03
      9.645  0.1210E+02  0.2460E+03
      9.778  0.1017E+02  0.2473E+03
      9.911  0.5901E+01  0.2481E+03
     10.044  0.5271E+01  0.2488E+03
     10.177  0.5965E+01  0.2496E+03
     10.310  0.6168E+01  0.2504E+03
     10.443  0.7434E+01  0.2514E+03
     10.576  0.6658E+01  0.2523E+03
     10.709  0.2850E+01  0.2527E+03
     10.842  0.3705E+01  0.2532E+03
     10.975  0.6259E+01  0.2540E+03
     11.108  0.3126E+01  0.2544E+03
     11.241  0.2063E+01  0.2547E+03
     11.374  0.3062E+01  0.2551E+03
     11.507  0.2900E+01  0.2555E+03
     11.641  0.2496E+01  0.2558E+03
     11.774  0.6876E+00  0.2559E+03
     11.907  0.7431E+00  0.2560E+03
     12.040  0.5399E-01  0.2560E+03
     12.173  0.1383E-04  0.2560E+03
     12.306  0.3602E-12  0.2560E+03
     12.439  0.0000E+00  0.2560E+03
     12.572  0.0000E+00  0.2560E+03
     12.705  0.0000E+00  0.2560E+03
     12.838  0.0000E+00  0.2560E+03
     12.971  0.0000E+00  0.2560E+03
     13.104  0.0000E+00  0.2560E+03
     13.237  0.0000E+00  0.2560E+03
     13.370  0.0000E+00  0.2560E+03
     13.503  0.0000E+00  0.2560E+03
     13.636  0.0000E+00  0.2560E+03
     13.769  0.0000E+00  0.2560E+03
     13.903  0.0000E+00  0.2560E+03
     14.036  0.0000E+00  0.2560E+03
     14.169  0.0000E+00  0.2560E+03
     14.302  0.0000E+00  0.2560E+03
     14.435  0.0000E+00  0.2560E+03
     14.568  0.0000E+00  0.2560E+03
     14.701  0.0000E+00  0.2560E+03
     14.834  0.0000E+00  0.2560E+03
     14.967  0.0000E+00  0.2560E+03
     15.100  0.0000E+00  0.2560E+03
     15.233  0.0000E+00  0.2560E+03
     15.366  0.0000E+00  0.2560E+03
     15.499  0.0000E+00  0.2560E+03
     15.632  0.0000E+00  0.2560E+03
     15.765  0.0000E+00  0.2560E+03
     15.898  0.0000E+00  0.2560E+03
     16.032  0.2287E-11  0.2560E+03
     16.165  0.5439E-04  0.2560E+03
     16.298  0.1645E+00  0.2560E+03
     16.431  0.1041E+01  0.2562E+03
     16.564  0.7045E+00  0.2563E+03
     16.697  0.4168E+01  0.2568E+03
     16.830  0.4214E+01  0.2574E+03
     16.963  0.7665E+01  0.2584E+03
     17.096  0.4397E+01  0.2590E+03
     17.229  0.3063E+01  0.2594E+03
     17.362  0.4195E+01  0.2599E+03
     17.495  0.1643E+02  0.2621E+03
     17.628  0.1123E+02  0.2636E+03
     17.761  0.1001E+02  0.2650E+03
     17.894  0.1010E+02  0.2663E+03
     18.027  0.1397E+02  0.2682E+03
     18.160  0.9935E+01  0.2695E+03
     18.294  0.1095E+02  0.2709E+03
     18.427  0.1537E+02  0.2730E+03
     18.560  0.1837E+02  0.2754E+03
     18.693  0.1266E+02  0.2771E+03
     18.826  0.1840E+02  0.2796E+03
     18.959  0.1421E+02  0.2814E+03
     19.092  0.1511E+02  0.2835E+03
     19.225  0.1686E+02  0.2857E+03
     19.358  0.2233E+02  0.2887E+03
     19.491  0.1917E+02  0.2912E+03
     19.624  0.1766E+02  0.2936E+03
     19.757  0.2485E+02  0.2969E+03
     19.890  0.1429E+02  0.2988E+03
     20.023  0.1237E+02  0.3004E+03
     20.156  0.1522E+02  0.3025E+03
     20.289  0.2543E+02  0.3058E+03
     20.423  0.4362E+02  0.3116E+03
     20.556  0.4123E+02  0.3171E+03
     20.689  0.2409E+02  0.3203E+03
     20.822  0.2590E+02  0.3238E+03
     20.955  0.1520E+02  0.3258E+03
     21.088  0.2325E+02  0.3289E+03
     21.221  0.2732E+02  0.3325E+03
     21.354  0.1710E+02  0.3348E+03
     21.487  0.1850E+02  0.3373E+03
     21.620  0.2397E+02  0.3405E+03
     21.753  0.2506E+02  0.3438E+03
     21.886  0.2624E+02  0.3473E+03
     22.019  0.2886E+02  0.3511E+03
     22.152  0.2354E+02  0.3543E+03
     22.285  0.3093E+02  0.3584E+03
     22.418  0.2375E+02  0.3615E+03
     22.552  0.1571E+02  0.3636E+03
     22.685  0.1727E+02  0.3659E+03
     22.818  0.2722E+02  0.3695E+03
     22.951  0.2420E+02  0.3728E+03
     23.084  0.1460E+02  0.3747E+03
     23.217  0.2358E+02  0.3778E+03
     23.350  0.1258E+02  0.3795E+03
     23.483  0.1582E+02  0.3816E+03
     23.616  0.5214E+01  0.3823E+03
     23.749  0.2101E+01  0.3826E+03
     23.882  0.4943E+01  0.3833E+03
     24.015  0.2760E+01  0.3836E+03
     24.148  0.7577E-01  0.3836E+03
     24.281  0.2198E+00  0.3837E+03
     24.414  0.8811E+00  0.3838E+03
     24.547  0.1242E-01  0.3838E+03
     24.680  0.2184E+00  0.3838E+03
     24.814  0.1415E+01  0.3840E+03
     24.947  0.3681E-01  0.3840E+03
     25.080  0.2182E-06  0.3840E+03
     25.213  0.0000E+00  0.3840E+03
     25.346  0.0000E+00  0.3840E+03
     25.479  0.0000E+00  0.3840E+03
     25.612  0.0000E+00  0.3840E+03
     25.745  0.0000E+00  0.3840E+03
     25.878  0.0000E+00  0.3840E+03
     26.011  0.0000E+00  0.3840E+03
     26.144  0.0000E+00  0.3840E+03
     26.277  0.0000E+00  0.3840E+03
     26.410  0.0000E+00  0.3840E+03
     26.543  0.0000E+00  0.3840E+03
