   64   64    1    1
  0.4938066E+01  0.6811545E-09  0.6811545E-09  0.6811545E-09  0.5000000E-15
  1.000000000000000E-004
  CAR 
 unknown system                          
    256     20    192
 
  0.0000000E+00  0.0000000E+00  0.0000000E+00  0.4629630E-02
    1      -11.560471   1.000000
    2       -9.050543   1.000000
    3       -9.050543   1.000000
    4       -9.050543   1.000000
    5       -9.050543   1.000000
    6       -9.050543   1.000000
    7       -9.050543   1.000000
    8       -6.623689   1.000000
    9       -6.623689   1.000000
   10       -6.623689   1.000000
   11       -6.623689   1.000000
   12       -6.623689   1.000000
   13       -6.623689   1.000000
   14       -6.623689   1.000000
   15       -6.623689   1.000000
   16       -6.623689   1.000000
   17       -6.623689   1.000000
   18       -6.623689   1.000000
   19       -6.623689   1.000000
   20       -4.941759   1.000000
   21       -4.941759   1.000000
   22       -4.941759   1.000000
   23       -4.941759   1.000000
   24       -3.135990   1.000000
   25       -3.135990   1.000000
   26       -3.135990   1.000000
   27       -3.135990   1.000000
   28       -1.937948   1.000000
   29       -1.937948   1.000000
   30       -1.937948   1.000000
   31       -1.937948   1.000000
   32       -1.937948   1.000000
   33       -1.937948   1.000000
   34       -0.894733   1.000000
   35       -0.894733   1.000000
   36       -0.894733   1.000000
   37       -0.894733   1.000000
   38       -0.894733   1.000000
   39       -0.894733   1.000000
   40       -0.894733   1.000000
   41       -0.894733   1.000000
   42       -0.894733   1.000000
   43       -0.894733   1.000000
   44       -0.894733   1.000000
   45       -0.894733   1.000000
   46        2.278870   1.000000
   47        2.278870   1.000000
   48        2.278870   1.000000
   49        2.278870   1.000000
   50        2.278870   1.000000
   51        2.278870   1.000000
   52        2.278870   1.000000
   53        2.278870   1.000000
   54        2.278870   1.000000
   55        2.278870   1.000000
   56        2.278870   1.000000
   57        2.278870   1.000000
   58        2.429944   1.000000
   59        2.429944   1.000000
   60        2.429944   1.000000
   61        2.429944   1.000000
   62        2.429944   1.000000
   63        2.429944   1.000000
   64        2.429944   1.000000
   65        2.429944   1.000000
   66        2.429944   1.000000
   67        2.429944   1.000000
   68        2.429944   1.000000
   69        2.429944   1.000000
   70        3.265086   1.000000
   71        3.265086   1.000000
   72        3.265086   1.000000
   73        3.265086   1.000000
   74        3.265086   1.000000
   75        3.265086   1.000000
   76        3.265086   1.000000
   77        3.265086   1.000000
   78        3.265086   1.000000
   79        3.265086   1.000000
   80        3.265086   1.000000
   81        3.265086   1.000000
   82        4.686153   1.000000
   83        4.686153   1.000000
   84        4.686153   1.000000
   85        4.686153   1.000000
   86        4.686153   1.000000
   87        4.686153   1.000000
   88        7.139947   1.000000
   89        7.139947   1.000000
   90        7.139947   1.000000
   91        7.139947   1.000000
   92        7.139947   1.000000
   93        7.139947   1.000000
   94        7.139947   1.000000
   95        7.139947   1.000000
   96        7.139947   1.000000
   97        7.139947   1.000000
   98        7.139947   1.000000
   99        7.139947   1.000000
  100        7.177413   1.000000
  101        7.177413   1.000000
  102        7.177413   1.000000
  103        7.177413   1.000000
  104        7.177413   1.000000
  105        7.177413   1.000000
  106        8.441169   1.000000
  107        8.441169   1.000000
  108        8.441169   1.000000
  109        8.441169   1.000000
  110        8.441169   1.000000
  111        8.441169   1.000000
  112        8.441169   1.000000
  113        8.441169   1.000000
  114        8.441169   1.000000
  115        8.441169   1.000000
  116        8.441169   1.000000
  117        8.441169   1.000000
  118        8.696307   1.000000
  119        8.696307   1.000000
  120        8.696307   1.000000
  121        8.696307   1.000000
  122        8.696307   1.000000
  123        8.696307   1.000000
  124        8.696307   1.000000
  125        8.696307   1.000000
  126       11.877552   1.000000
  127       11.877552   1.000000
  128       11.877552   1.000000
  129       16.677069   0.000000
  130       16.677069   0.000000
  131       16.677069   0.000000
  132       16.677069   0.000000
  133       16.677069   0.000000
  134       16.677069   0.000000
  135       16.914929   0.000000
  136       16.914929   0.000000
  137       16.914929   0.000000
  138       16.914929   0.000000
  139       16.914929   0.000000
  140       16.914929   0.000000
  141       17.867130   0.000000
  142       17.867130   0.000000
  143       17.867130   0.000000
  144       20.480186   0.000000
  145       20.480186   0.000000
  146       20.480186   0.000000
  147       20.480186   0.000000
  148       20.480186   0.000000
  149       20.480186   0.000000
  150       20.480186   0.000000
  151       20.480186   0.000000
  152       20.480186   0.000000
  153       20.480186   0.000000
  154       20.480186   0.000000
  155       20.480186   0.000000
  156       20.933421   0.000000
  157       20.933421   0.000000
  158       20.933421   0.000000
  159       20.933421   0.000000
  160       20.933421   0.000000
  161       20.933421   0.000000
  162       20.933421   0.000000
  163       20.933421   0.000000
  164       22.680500   0.000000
  165       22.680500   0.000000
  166       22.680500   0.000000
  167       22.680500   0.000000
  168       22.912015   0.000000
  169       22.912015   0.000000
  170       22.912015   0.000000
  171       22.912015   0.000000
  172       22.912015   0.000000
  173       22.912015   0.000000
  174       22.912015   0.000000
  175       22.912015   0.000000
  176       22.912015   0.000000
  177       22.912017   0.000000
  178       22.912018   0.000000
  179       22.912021   0.000000
  180       22.945228   0.000000
  181       22.945233   0.000000
  182       22.945240   0.000000
  183       22.945247   0.000000
  184       22.945307   0.000000
  185       22.945490   0.000000
  186       23.146608   0.000000
  187       23.146608   0.000000
  188       23.146608   0.000000
  189       23.146608   0.000000
  190       23.146608   0.000000
  191       23.146608   0.000000
  192       23.146608   0.000000
 
  0.1666667E+00  0.0000000E+00  0.0000000E+00  0.2777778E-01
    1      -11.490136   1.000000
    2       -9.812195   1.000000
    3       -8.981881   1.000000
    4       -8.981881   1.000000
    5       -8.981881   1.000000
    6       -8.981881   1.000000
    7       -8.157230   1.000000
    8       -7.354224   1.000000
    9       -7.354224   1.000000
   10       -7.354224   1.000000
   11       -7.354224   1.000000
   12       -6.558959   1.000000
   13       -6.558959   1.000000
   14       -6.558959   1.000000
   15       -6.558959   1.000000
   16       -5.776164   1.000000
   17       -5.776164   1.000000
   18       -5.776164   1.000000
   19       -5.776164   1.000000
   20       -5.189230   1.000000
   21       -5.189230   1.000000
   22       -5.189230   1.000000
   23       -5.189230   1.000000
   24       -3.382748   1.000000
   25       -2.763911   1.000000
   26       -2.763911   1.000000
   27       -2.763911   1.000000
   28       -2.763911   1.000000
   29       -1.887623   1.000000
   30       -1.887623   1.000000
   31       -1.887623   1.000000
   32       -1.887623   1.000000
   33       -1.724937   1.000000
   34       -1.724937   1.000000
   35       -1.724937   1.000000
   36       -1.724937   1.000000
   37       -0.999193   1.000000
   38       -0.999193   1.000000
   39       -0.999193   1.000000
   40       -0.999193   1.000000
   41       -0.424225   1.000000
   42       -0.294534   1.000000
   43       -0.294534   1.000000
   44       -0.294534   1.000000
   45       -0.294534   1.000000
   46        1.462345   1.000000
   47        1.462345   1.000000
   48        1.462345   1.000000
   49        1.462345   1.000000
   50        1.756603   1.000000
   51        1.756603   1.000000
   52        1.756603   1.000000
   53        1.756603   1.000000
   54        1.767246   1.000000
   55        1.767246   1.000000
   56        1.767246   1.000000
   57        1.767246   1.000000
   58        2.458377   1.000000
   59        2.458377   1.000000
   60        2.458377   1.000000
   61        2.458377   1.000000
   62        2.635900   1.000000
   63        2.635900   1.000000
   64        2.635900   1.000000
   65        2.635900   1.000000
   66        3.175274   1.000000
   67        3.175274   1.000000
   68        3.175274   1.000000
   69        3.175274   1.000000
   70        3.193695   1.000000
   71        3.193695   1.000000
   72        3.193695   1.000000
   73        3.193695   1.000000
   74        3.997218   1.000000
   75        3.997218   1.000000
   76        3.997218   1.000000
   77        3.997218   1.000000
   78        4.258976   1.000000
   79        4.258976   1.000000
   80        4.258976   1.000000
   81        4.258976   1.000000
   82        4.524327   1.000000
   83        4.524327   1.000000
   84        4.524327   1.000000
   85        4.524327   1.000000
   86        4.756438   1.000000
   87        4.756438   1.000000
   88        5.766680   1.000000
   89        6.409968   1.000000
   90        6.409968   1.000000
   91        6.436518   1.000000
   92        6.436518   1.000000
   93        6.436518   1.000000
   94        6.436518   1.000000
   95        6.927922   1.000000
   96        6.927922   1.000000
   97        6.927922   1.000000
   98        6.927922   1.000000
   99        7.766824   1.000000
  100        7.766824   1.000000
  101        7.766824   1.000000
  102        7.766824   1.000000
  103        7.779317   1.000000
  104        7.779317   1.000000
  105        7.779317   1.000000
  106        7.779317   1.000000
  107        7.976948   1.000000
  108        7.976948   1.000000
  109        8.454231   1.000000
  110        8.454231   1.000000
  111        8.454231   1.000000
  112        8.454231   1.000000
  113        8.457860   1.000000
  114        8.457860   1.000000
  115        8.457860   1.000000
  116        8.457860   1.000000
  117        8.472314   1.000000
  118        8.679909   1.000000
  119        8.679909   1.000000
  120        8.679909   1.000000
  121        8.679909   1.000000
  122        8.781423   1.000000
  123        8.781423   1.000000
  124        8.781423   1.000000
  125        8.781423   1.000000
  126       11.565759   1.000000
  127       11.565759   1.000000
  128       11.721020   1.000000
  129       16.481654   0.000000
  130       16.583064   0.000000
  131       16.925209   0.000000
  132       16.987043   0.000000
  133       16.987043   0.000000
  134       16.987043   0.000000
  135       16.987043   0.000000
  136       17.207434   0.000000
  137       17.207434   0.000000
  138       17.207434   0.000000
  139       17.207434   0.000000
  140       17.406897   0.000000
  141       17.815370   0.000000
  142       18.244427   0.000000
  143       18.244427   0.000000
  144       20.216632   0.000000
  145       20.216632   0.000000
  146       20.216632   0.000000
  147       20.216632   0.000000
  148       20.513996   0.000000
  149       20.513996   0.000000
  150       20.513996   0.000000
  151       20.513996   0.000000
  152       20.925325   0.000000
  153       20.925325   0.000000
  154       20.925325   0.000000
  155       20.925325   0.000000
  156       21.043992   0.000000
  157       21.043992   0.000000
  158       21.043992   0.000000
  159       21.043992   0.000000
  160       21.105307   0.000000
  161       21.105307   0.000000
  162       21.105307   0.000000
  163       21.105307   0.000000
  164       21.389222   0.000000
  165       21.844451   0.000000
  166       21.844451   0.000000
  167       21.844451   0.000000
  168       21.844451   0.000000
  169       22.257580   0.000000
  170       22.257580   0.000000
  171       22.257580   0.000000
  172       22.257580   0.000000
  173       22.367972   0.000000
  174       22.367972   0.000000
  175       22.367972   0.000000
  176       22.367972   0.000000
  177       22.747694   0.000000
  178       22.747694   0.000000
  179       22.747694   0.000000
  180       22.747694   0.000000
  181       22.808258   0.000000
  182       22.808258   0.000000
  183       22.808258   0.000000
  184       22.808258   0.000000
  185       23.136721   0.000000
  186       23.136723   0.000000
  187       23.136822   0.000000
  188       23.137155   0.000000
  189       23.335113   0.000000
  190       23.335372   0.000000
  191       23.438006   0.000000
  192       23.438188   0.000000
 
  0.3333333E+00  0.0000000E+00  0.0000000E+00  0.2777778E-01
    1      -11.279300   1.000000
    2      -10.439005   1.000000
    3       -8.776254   1.000000
    4       -8.776254   1.000000
    5       -8.776254   1.000000
    6       -8.776254   1.000000
    7       -7.959678   1.000000
    8       -7.959678   1.000000
    9       -7.959678   1.000000
   10       -7.959678   1.000000
   11       -7.136654   1.000000
   12       -6.366497   1.000000
   13       -6.366497   1.000000
   14       -6.366497   1.000000
   15       -6.366497   1.000000
   16       -5.639523   1.000000
   17       -5.639523   1.000000
   18       -5.639523   1.000000
   19       -5.639523   1.000000
   20       -4.825947   1.000000
   21       -4.825947   1.000000
   22       -4.825947   1.000000
   23       -4.825947   1.000000
   24       -4.739787   1.000000
   25       -2.734154   1.000000
   26       -2.734154   1.000000
   27       -2.734154   1.000000
   28       -2.734154   1.000000
   29       -1.941913   1.000000
   30       -1.941913   1.000000
   31       -1.941913   1.000000
   32       -1.941913   1.000000
   33       -1.741159   1.000000
   34       -1.741159   1.000000
   35       -1.741159   1.000000
   36       -1.741159   1.000000
   37       -1.243249   1.000000
   38       -1.243249   1.000000
   39       -1.243249   1.000000
   40       -1.243249   1.000000
   41        0.179587   1.000000
   42        0.179587   1.000000
   43        0.179587   1.000000
   44        0.179587   1.000000
   45        0.235515   1.000000
   46        0.235515   1.000000
   47        0.235515   1.000000
   48        0.235515   1.000000
   49        1.134421   1.000000
   50        1.162925   1.000000
   51        1.162925   1.000000
   52        1.162925   1.000000
   53        1.162925   1.000000
   54        1.639632   1.000000
   55        1.639632   1.000000
   56        1.639632   1.000000
   57        1.639632   1.000000
   58        2.133558   1.000000
   59        2.133558   1.000000
   60        2.133558   1.000000
   61        2.133558   1.000000
   62        2.919384   1.000000
   63        2.919384   1.000000
   64        2.919384   1.000000
   65        2.919384   1.000000
   66        3.976728   1.000000
   67        3.976728   1.000000
   68        3.976728   1.000000
   69        3.976728   1.000000
   70        4.092528   1.000000
   71        4.092528   1.000000
   72        4.092528   1.000000
   73        4.092528   1.000000
   74        4.265963   1.000000
   75        4.367003   1.000000
   76        4.367003   1.000000
   77        4.367003   1.000000
   78        4.367003   1.000000
   79        4.798155   1.000000
   80        4.798155   1.000000
   81        4.798155   1.000000
   82        4.798155   1.000000
   83        4.966640   1.000000
   84        4.966640   1.000000
   85        5.547969   1.000000
   86        5.547969   1.000000
   87        5.547969   1.000000
   88        5.547969   1.000000
   89        5.642407   1.000000
   90        5.642407   1.000000
   91        5.642407   1.000000
   92        5.642407   1.000000
   93        5.800786   1.000000
   94        5.800786   1.000000
   95        6.369246   1.000000
   96        6.369246   1.000000
   97        6.369246   1.000000
   98        6.369246   1.000000
   99        6.793014   1.000000
  100        6.793014   1.000000
  101        6.793014   1.000000
  102        6.793014   1.000000
  103        7.768402   1.000000
  104        7.768402   1.000000
  105        7.768402   1.000000
  106        7.768402   1.000000
  107        8.279411   1.000000
  108        8.279411   1.000000
  109        8.279411   1.000000
  110        8.279411   1.000000
  111        8.502537   1.000000
  112        8.502537   1.000000
  113        8.502537   1.000000
  114        8.502537   1.000000
  115        8.633213   1.000000
  116        8.633213   1.000000
  117        8.633213   1.000000
  118        8.633213   1.000000
  119        8.825105   1.000000
  120        8.825105   1.000000
  121        8.825105   1.000000
  122        8.825105   1.000000
  123        8.897945   1.000000
  124        8.897945   1.000000
  125        9.600164   1.000000
  126       10.805789   1.000000
  127       10.805789   1.000000
  128       11.265265   1.000000
  129       16.357269   0.000000
  130       16.392250   0.000000
  131       17.184841   0.000000
  132       17.659934   0.000000
  133       17.835995   0.000000
  134       17.835995   0.000000
  135       17.835995   0.000000
  136       17.835995   0.000000
  137       18.030760   0.000000
  138       18.030760   0.000000
  139       18.030760   0.000000
  140       18.030760   0.000000
  141       18.079889   0.000000
  142       19.193663   0.000000
  143       19.193663   0.000000
  144       20.056984   0.000000
  145       20.341081   0.000000
  146       20.341081   0.000000
  147       20.341081   0.000000
  148       20.341081   0.000000
  149       20.454033   0.000000
  150       20.454033   0.000000
  151       20.454033   0.000000
  152       20.454033   0.000000
  153       20.610454   0.000000
  154       20.610454   0.000000
  155       20.610454   0.000000
  156       20.610454   0.000000
  157       20.734419   0.000000
  158       20.734419   0.000000
  159       20.734419   0.000000
  160       20.734419   0.000000
  161       20.865736   0.000000
  162       20.865736   0.000000
  163       20.865736   0.000000
  164       20.865736   0.000000
  165       21.361151   0.000000
  166       21.361151   0.000000
  167       21.361151   0.000000
  168       21.361151   0.000000
  169       21.524781   0.000000
  170       21.524781   0.000000
  171       21.524781   0.000000
  172       21.524781   0.000000
  173       21.860647   0.000000
  174       21.860647   0.000000
  175       21.971370   0.000000
  176       21.971370   0.000000
  177       21.971370   0.000000
  178       21.971370   0.000000
  179       22.328655   0.000000
  180       22.328655   0.000000
  181       22.328655   0.000000
  182       22.328655   0.000000
  183       23.208154   0.000000
  184       23.208154   0.000000
  185       23.208154   0.000000
  186       23.208157   0.000000
  187       23.442269   0.000000
  188       23.442341   0.000000
  189       23.443398   0.000000
  190       23.446355   0.000000
  191       23.646993   0.000000
  192       23.649902   0.000000
 
  0.5000000E+00  0.0000000E+00  0.0000000E+00  0.1388889E-01
    1      -10.928565   1.000000
    2      -10.928565   1.000000
    3       -8.434831   1.000000
    4       -8.434831   1.000000
    5       -8.434831   1.000000
    6       -8.434831   1.000000
    7       -8.434831   1.000000
    8       -8.434831   1.000000
    9       -8.434831   1.000000
   10       -8.434831   1.000000
   11       -6.053533   1.000000
   12       -6.053533   1.000000
   13       -6.053533   1.000000
   14       -6.053533   1.000000
   15       -6.053533   1.000000
   16       -6.053533   1.000000
   17       -6.053533   1.000000
   18       -6.053533   1.000000
   19       -5.994833   1.000000
   20       -5.994833   1.000000
   21       -3.796788   1.000000
   22       -3.796788   1.000000
   23       -3.796788   1.000000
   24       -3.796788   1.000000
   25       -3.796788   1.000000
   26       -3.796788   1.000000
   27       -3.796788   1.000000
   28       -3.796788   1.000000
   29       -1.514356   1.000000
   30       -1.514356   1.000000
   31       -1.514356   1.000000
   32       -1.514356   1.000000
   33       -1.514356   1.000000
   34       -1.514356   1.000000
   35       -1.514356   1.000000
   36       -1.514356   1.000000
   37       -0.916184   1.000000
   38       -0.916184   1.000000
   39       -0.916184   1.000000
   40       -0.916184   1.000000
   41       -0.916184   1.000000
   42       -0.916184   1.000000
   43       -0.916184   1.000000
   44       -0.916184   1.000000
   45        0.645066   1.000000
   46        0.645066   1.000000
   47        0.645066   1.000000
   48        0.645066   1.000000
   49        0.645066   1.000000
   50        0.645066   1.000000
   51        0.645066   1.000000
   52        0.645066   1.000000
   53        1.787345   1.000000
   54        1.787345   1.000000
   55        1.787345   1.000000
   56        1.787345   1.000000
   57        1.787345   1.000000
   58        1.787345   1.000000
   59        1.787345   1.000000
   60        1.787345   1.000000
   61        2.708643   1.000000
   62        2.708643   1.000000
   63        3.512705   1.000000
   64        3.512705   1.000000
   65        3.512705   1.000000
   66        3.512705   1.000000
   67        3.512705   1.000000
   68        3.512705   1.000000
   69        3.512705   1.000000
   70        3.512705   1.000000
   71        4.808258   1.000000
   72        4.808258   1.000000
   73        4.808258   1.000000
   74        4.808258   1.000000
   75        4.808258   1.000000
   76        4.808258   1.000000
   77        4.808258   1.000000
   78        4.808258   1.000000
   79        5.316311   1.000000
   80        5.316311   1.000000
   81        5.316311   1.000000
   82        5.316311   1.000000
   83        5.615335   1.000000
   84        5.615335   1.000000
   85        5.615335   1.000000
   86        5.615335   1.000000
   87        5.615335   1.000000
   88        5.615335   1.000000
   89        5.615335   1.000000
   90        5.615335   1.000000
   91        5.616970   1.000000
   92        5.616970   1.000000
   93        5.616970   1.000000
   94        5.616970   1.000000
   95        5.616970   1.000000
   96        5.616970   1.000000
   97        5.616970   1.000000
   98        5.616970   1.000000
   99        6.756064   1.000000
  100        6.756064   1.000000
  101        6.756064   1.000000
  102        6.756064   1.000000
  103        6.756064   1.000000
  104        6.756064   1.000000
  105        6.756064   1.000000
  106        6.756064   1.000000
  107        8.567380   1.000000
  108        8.567380   1.000000
  109        8.567380   1.000000
  110        8.567380   1.000000
  111        8.567380   1.000000
  112        8.567380   1.000000
  113        8.567380   1.000000
  114        8.567380   1.000000
  115        8.638010   1.000000
  116        8.638010   1.000000
  117        8.638010   1.000000
  118        8.638010   1.000000
  119        8.638010   1.000000
  120        8.638010   1.000000
  121        8.638010   1.000000
  122        8.638010   1.000000
  123        9.865592   1.000000
  124        9.865592   1.000000
  125        9.865592   1.000000
  126        9.865592   1.000000
  127       10.544700   1.000000
  128       10.544700   1.000000
  129       16.319750   0.000000
  130       16.319750   0.000000
  131       17.442232   0.000000
  132       17.442232   0.000000
  133       18.956470   0.000000
  134       18.956470   0.000000
  135       19.046940   0.000000
  136       19.046940   0.000000
  137       19.046940   0.000000
  138       19.046940   0.000000
  139       19.046940   0.000000
  140       19.046940   0.000000
  141       19.046940   0.000000
  142       19.046940   0.000000
  143       19.257743   0.000000
  144       19.257743   0.000000
  145       19.257743   0.000000
  146       19.257743   0.000000
  147       19.257743   0.000000
  148       19.257743   0.000000
  149       19.257743   0.000000
  150       19.257743   0.000000
  151       20.453565   0.000000
  152       20.453565   0.000000
  153       20.453565   0.000000
  154       20.453565   0.000000
  155       20.744298   0.000000
  156       20.744298   0.000000
  157       20.744298   0.000000
  158       20.744298   0.000000
  159       20.744298   0.000000
  160       20.744298   0.000000
  161       20.744298   0.000000
  162       20.744298   0.000000
  163       20.806676   0.000000
  164       20.806676   0.000000
  165       20.806676   0.000000
  166       20.806676   0.000000
  167       20.806676   0.000000
  168       20.806676   0.000000
  169       20.806676   0.000000
  170       20.806676   0.000000
  171       21.821018   0.000000
  172       21.821018   0.000000
  173       21.821018   0.000000
  174       21.821018   0.000000
  175       21.821018   0.000000
  176       21.821018   0.000000
  177       21.821018   0.000000
  178       21.821018   0.000000
  179       22.875882   0.000000
  180       22.875882   0.000000
  181       22.875882   0.000000
  182       22.875882   0.000000
  183       22.875882   0.000000
  184       22.875882   0.000000
  185       22.875882   0.000000
  186       22.875882   0.000000
  187       23.733847   0.000000
  188       23.734092   0.000000
  189       23.735880   0.000000
  190       23.737075   0.000000
  191       23.755082   0.000000
  192       23.792533   0.000000
 
  0.1666667E+00  0.1666667E+00  0.0000000E+00  0.5555556E-01
    1      -11.419825   1.000000
    2       -9.742925   1.000000
    3       -9.742925   1.000000
    4       -8.913263   1.000000
    5       -8.913263   1.000000
    6       -8.096643   1.000000
    7       -8.089428   1.000000
    8       -8.089428   1.000000
    9       -7.287686   1.000000
   10       -7.287686   1.000000
   11       -7.287686   1.000000
   12       -7.287686   1.000000
   13       -6.488790   1.000000
   14       -6.488790   1.000000
   15       -5.767850   1.000000
   16       -5.767850   1.000000
   17       -5.715120   1.000000
   18       -5.715120   1.000000
   19       -5.715120   1.000000
   20       -5.715120   1.000000
   21       -4.957331   1.000000
   22       -4.819707   1.000000
   23       -4.819707   1.000000
   24       -3.325169   1.000000
   25       -3.325169   1.000000
   26       -3.000085   1.000000
   27       -3.000085   1.000000
   28       -2.109756   1.000000
   29       -2.109756   1.000000
   30       -2.070343   1.000000
   31       -2.070343   1.000000
   32       -1.993526   1.000000
   33       -1.993526   1.000000
   34       -1.863743   1.000000
   35       -1.814211   1.000000
   36       -1.486163   1.000000
   37       -1.486163   1.000000
   38       -0.648277   1.000000
   39       -0.648277   1.000000
   40       -0.429559   1.000000
   41       -0.429559   1.000000
   42       -0.386516   1.000000
   43       -0.386516   1.000000
   44       -0.070638   1.000000
   45       -0.070638   1.000000
   46        0.791476   1.000000
   47        0.791476   1.000000
   48        0.791476   1.000000
   49        0.791476   1.000000
   50        1.115891   1.000000
   51        1.659259   1.000000
   52        1.659259   1.000000
   53        1.970656   1.000000
   54        1.970656   1.000000
   55        2.030866   1.000000
   56        2.195938   1.000000
   57        2.195938   1.000000
   58        2.234630   1.000000
   59        2.234630   1.000000
   60        2.234630   1.000000
   61        2.234630   1.000000
   62        2.465707   1.000000
   63        2.465707   1.000000
   64        3.095285   1.000000
   65        3.095285   1.000000
   66        3.348748   1.000000
   67        3.348748   1.000000
   68        3.540482   1.000000
   69        3.540482   1.000000
   70        3.567678   1.000000
   71        3.567678   1.000000
   72        3.638382   1.000000
   73        3.638382   1.000000
   74        3.638382   1.000000
   75        3.638382   1.000000
   76        3.954711   1.000000
   77        3.967703   1.000000
   78        4.583512   1.000000
   79        4.583512   1.000000
   80        4.611765   1.000000
   81        4.611765   1.000000
   82        4.745929   1.000000
   83        4.809135   1.000000
   84        4.944259   1.000000
   85        4.944259   1.000000
   86        4.944259   1.000000
   87        4.944259   1.000000
   88        5.392191   1.000000
   89        5.392191   1.000000
   90        5.826168   1.000000
   91        5.826168   1.000000
   92        6.206677   1.000000
   93        6.206677   1.000000
   94        6.688940   1.000000
   95        6.688940   1.000000
   96        7.227507   1.000000
   97        7.227507   1.000000
   98        7.393005   1.000000
   99        7.393005   1.000000
  100        7.442878   1.000000
  101        7.755082   1.000000
  102        7.755082   1.000000
  103        7.799093   1.000000
  104        7.799093   1.000000
  105        7.799093   1.000000
  106        7.799093   1.000000
  107        7.815904   1.000000
  108        7.815904   1.000000
  109        7.816098   1.000000
  110        7.816098   1.000000
  111        8.104356   1.000000
  112        8.104356   1.000000
  113        8.437655   1.000000
  114        8.437655   1.000000
  115        8.573015   1.000000
  116        8.573015   1.000000
  117        8.656430   1.000000
  118        8.656430   1.000000
  119        8.781679   1.000000
  120        8.781679   1.000000
  121        8.781679   1.000000
  122        8.781679   1.000000
  123        8.938448   1.000000
  124        8.938448   1.000000
  125        9.433970   1.000000