mesh: [    48,    48,    48 ]
nqpoint: 2600   
reciprocal_lattice:
- [   0.29361915,   0.00000000,   0.00000000 ] # a*
- [   0.00000000,   0.29361915,   0.00000000 ] # b*
- [   0.00000000,   0.00000000,   0.29361915 ] # c*
natom:   8      
lattice:
- [     3.405772442836720,     0.000000000000000,     0.000000000000000 ] # a
- [     0.000000000000000,     3.405772442836720,     0.000000000000000 ] # b
- [     0.000000000000000,     0.000000000000000,     3.405772442836720 ] # c
points:
- symbol: C  # 1
  coordinates: [  0.250000000000000,  0.750000000000000,  0.250000000000000 ]
  mass: 12.010700
- symbol: C  # 2
  coordinates: [  0.000000000000000,  0.000000000000000,  0.500000000000000 ]
  mass: 12.010700
- symbol: C  # 3
  coordinates: [  0.250000000000000,  0.250000000000000,  0.750000000000000 ]
  mass: 12.010700
- symbol: C  # 4
  coordinates: [  0.000000000000000,  0.500000000000000,  0.000000000000000 ]
  mass: 12.010700
- symbol: C  # 5
  coordinates: [  0.750000000000000,  0.750000000000000,  0.750000000000000 ]
  mass: 12.010700
- symbol: C  # 6
  coordinates: [  0.500000000000000,  0.000000000000000,  0.000000000000000 ]
  mass: 12.010700
- symbol: C  # 7
  coordinates: [  0.750000000000000,  0.250000000000000,  0.250000000000000 ]
  mass: 12.010700
- symbol: C  # 8
  coordinates: [  0.500000000000000,  0.500000000000000,  0.500000000000000 ]
  mass: 12.010700

phonon:
- q-position: [    0.0104167,    0.0104167,    0.0104167 ]
  distance_from_gamma:  0.005297534
  weight: 8    
  band:
  - # 1
    frequency:     0.6402086751
  - # 2
    frequency:     0.6402086751
  - # 3
    frequency:     1.0794117789
  - # 4
    frequency:    24.0537340561
  - # 5
    frequency:    24.0537340561
  - # 6
    frequency:    24.0537340561
  - # 7
    frequency:    24.0716058897
  - # 8
    frequency:    24.0716058897
  - # 9
    frequency:    24.0716058897
  - # 10
    frequency:    39.1057088517
  - # 11
    frequency:    39.1057088517
  - # 12
    frequency:    39.1057088517
  - # 13
    frequency:    39.1281291999
  - # 14
    frequency:    39.1281291999
  - # 15
    frequency:    39.1281291999
  - # 16
    frequency:    40.5234243314
  - # 17
    frequency:    40.5234243314
  - # 18
    frequency:    40.5234243314
  - # 19
    frequency:    40.9076747275
  - # 20
    frequency:    40.9076747275
  - # 21
    frequency:    40.9076747275
  - # 22
    frequency:    44.7277030401
  - # 23
    frequency:    44.7277030401
  - # 24
    frequency:    44.7306416497

- q-position: [    0.0312500,    0.0104167,    0.0104167 ]
  distance_from_gamma:  0.010144006
  weight: 24   
  band:
  - # 1
    frequency:     1.2554430269
  - # 2
    frequency:     1.3130609605
  - # 3
    frequency:     1.9929095869
  - # 4
    frequency:    24.0312108520
  - # 5
    frequency:    24.0490914443
  - # 6
    frequency:    24.0689254309
  - # 7
    frequency:    24.0689254309
  - # 8
    frequency:    24.1224271195
  - # 9
    frequency:    24.1224271195
  - # 10
    frequency:    39.0425362306
  - # 11
    frequency:    39.0425362306
  - # 12
    frequency:    39.1082097126
  - # 13
    frequency:    39.1082097126
  - # 14
    frequency:    39.1129121549
  - # 15
    frequency:    39.1400999313
  - # 16
    frequency:    40.1239805643
  - # 17
    frequency:    40.5457000286
  - # 18
    frequency:    40.5457000286
  - # 19
    frequency:    40.9233505305
  - # 20
    frequency:    40.9233505305
  - # 21
    frequency:    41.2724924068
  - # 22
    frequency:    44.7165759617
  - # 23
    frequency:    44.7174025196
  - # 24
    frequency:    44.7337878559

- q-position: [    0.0520833,    0.0104167,    0.0104167 ]
  distance_from_gamma:  0.015892603
  weight: 24   
  band:
  - # 1
    frequency:     2.0374463568
  - # 2
    frequency:     2.0848334035
  - # 3
    frequency:     3.0539165412
  - # 4
    frequency:    23.9861141787
  - # 5
    frequency:    24.0040111182
  - # 6
    frequency:    24.1169686137
  - # 7
    frequency:    24.1169686137
  - # 8
    frequency:    24.2057630539
  - # 9
    frequency:    24.2057630539
  - # 10
    frequency:    38.9425499183
  - # 11
    frequency:    38.9425499183
  - # 12
    frequency:    39.0478759146
  - # 13
    frequency:    39.0478759146
  - # 14
    frequency:    39.1199453866
  - # 15
    frequency:    39.1640161712
  - # 16
    frequency:    39.7156158541
  - # 17
    frequency:    40.5866513309
  - # 18
    frequency:    40.5866513309
  - # 19
    frequency:    40.9526537845
  - # 20
    frequency:    40.9526537845
  - # 21
    frequency:    41.6189834980
  - # 22
    frequency:    44.6943542999
  - # 23
    frequency:    44.6952517553
  - # 24
    frequency:    44.7415971858

- q-position: [    0.0729167,    0.0104167,    0.0104167 ]
  distance_from_gamma:  0.021842293
  weight: 24   
  band:
  - # 1
    frequency:     2.8385264945
  - # 2
    frequency:     2.8748657270
  - # 3
    frequency:     4.1563663925
  - # 4
    frequency:    23.9183467788
  - # 5
    frequency:    23.9362653679
  - # 6
    frequency:    24.1973304848
  - # 7
    frequency:    24.1973304848
  - # 8
    frequency:    24.3208653861
  - # 9
    frequency:    24.3208653861
  - # 10
    frequency:    38.8108887698
  - # 11
    frequency:    38.8108887698
  - # 12
    frequency:    38.9511534474
  - # 13
    frequency:    38.9511534474
  - # 14
    frequency:    39.0602512984
  - # 15
    frequency:    39.1998254268
  - # 16
    frequency:    39.3651442368
  - # 17
    frequency:    40.6408426851
  - # 18
    frequency:    40.6408426851
  - # 19
    frequency:    40.9922893564
  - # 20
    frequency:    40.9922893564
  - # 21
    frequency:    41.9468997766
  - # 22
    frequency:    44.6611031902
  - # 23
    frequency:    44.6620144547
  - # 24
    frequency:    44.7532410662

- q-position: [    0.0937500,    0.0104167,    0.0104167 ]
  distance_from_gamma:  0.027864560
  weight: 24   
  band:
  - # 1
    frequency:     3.6407475748
  - # 2
    frequency:     3.6689015362
  - # 3
    frequency:     5.2735703106
  - # 4
    frequency:    23.8277707096
  - # 5
    frequency:    23.8457129554
  - # 6
    frequency:    24.3091634760
  - # 7
    frequency:    24.3091634760
  - # 8
    frequency:    24.4666853872
  - # 9
    frequency:    24.4666853872
  - # 10
    frequency:    38.6523706871
  - # 11
    frequency:    38.6523706871
  - # 12
    frequency:    38.7163664615
  - # 13
    frequency:    38.8227809163
  - # 14
    frequency:    38.8227809163
  - # 15
    frequency:    39.2474440485
  - # 16
    frequency:    39.2899284814
  - # 17
    frequency:    40.7029181492
  - # 18
    frequency:    40.7029181492
  - # 19
    frequency:    41.0387138723
  - # 20
    frequency:    41.0387138723
  - # 21
    frequency:    42.2563504470
  - # 22
    frequency:    44.6169206965
  - # 23
    frequency:    44.6178319539
  - # 24
    frequency:    44.7684827141

- q-position: [    0.1145833,    0.0104167,    0.0104167 ]
  distance_from_gamma:  0.033920769
  weight: 24   
  band:
  - # 1
    frequency:     4.4400224742
  - # 2
    frequency:     4.4620925177
  - # 3
    frequency:     6.3953164501
  - # 4
    frequency:    23.7142162378
  - # 5
    frequency:    23.7321799927
  - # 6
    frequency:    24.4513174022
  - # 7
    frequency:    24.4513174022
  - # 8
    frequency:    24.6418902016
  - # 9
    frequency:    24.6418902016
  - # 10
    frequency:    38.2500280369
  - # 11
    frequency:    38.4709195791
  - # 12
    frequency:    38.4709195791
  - # 13
    frequency:    38.6671306315
  - # 14
    frequency:    38.6671306315
  - # 15
    frequency:    39.3067518902
  - # 16
    frequency:    39.3280259669
  - # 17
    frequency:    40.7685888541
  - # 18
    frequency:    40.7685888541
  - # 19
    frequency:    41.0888090987
  - # 20
    frequency:    41.0888090987
  - # 21
    frequency:    42.5475448838
  - # 22
    frequency:    44.5619382327
  - # 23
    frequency:    44.5628436194
  - # 24
    frequency:    44.7870589152

- q-position: [    0.1354167,    0.0104167,    0.0104167 ]
  distance_from_gamma:  0.039995506
  weight: 24   
  band:
  - # 1
    frequency:     5.2345917440
  - # 2
    frequency:     5.2519595355
  - # 3
    frequency:     7.5165752191
  - # 4
    frequency:    23.5774927043
  - # 5
    frequency:    23.5954709895
  - # 6
    frequency:    24.6223540905
  - # 7
    frequency:    24.6223540905
  - # 8
    frequency:    24.8448810603
  - # 9
    frequency:    24.8448810603
  - # 10
    frequency:    37.7489201382
  - # 11
    frequency:    38.2695562666
  - # 12
    frequency:    38.2695562666
  - # 13
    frequency:    38.4878156397
  - # 14
    frequency:    38.4878156397
  - # 15
    frequency:    39.3775860460
  - # 16
    frequency:    39.3914833887
  - # 17
    frequency:    40.8347916063
  - # 18
    frequency:    40.8347916063
  - # 19
    frequency:    41.1401381658
  - # 20
    frequency:    41.1401381658
  - # 21
    frequency:    42.8207462608
  - # 22
    frequency:    44.4963211072
  - # 23
    frequency:    44.4972172138
  - # 24
    frequency:    44.8086524995

- q-position: [    0.1562500,    0.0104167,    0.0104167 ]
  distance_from_gamma:  0.046081443
  weight: 24   
  band:
  - # 1
    frequency:     6.0232548971
  - # 2
    frequency:     6.0368438764
  - # 3
    frequency:     8.6343375494
  - # 4
    frequency:    23.4174006391
  - # 5
    frequency:    23.4353811735
  - # 6
    frequency:    24.8205630162
  - # 7
    frequency:    24.8205630162
  - # 8
    frequency:    25.0738114554
  - # 9
    frequency:    25.0738114554
  - # 10
    frequency:    37.2230563473
  - # 11
    frequency:    38.0506140163
  - # 12
    frequency:    38.0506140163
  - # 13
    frequency:    38.2877103396
  - # 14
    frequency:    38.2877103396
  - # 15
    frequency:    39.4597342743
  - # 16
    frequency:    39.4699663771
  - # 17
    frequency:    40.8994809613
  - # 18
    frequency:    40.8994809613
  - # 19
    frequency:    41.1909356863
  - # 20
    frequency:    41.1909356863
  - # 21
    frequency:    43.0762540254
  - # 22
    frequency:    44.4202691742
  - # 23
    frequency:    44.4211536663
  - # 24
    frequency:    44.8328910163

- q-position: [    0.1770833,    0.0104167,    0.0104167 ]
  distance_from_gamma:  0.052174661
  weight: 24   
  band:
  - # 1
    frequency:     6.8049848786
  - # 2
    frequency:     6.8154345758
  - # 3
    frequency:     9.7465119122
  - # 4
    frequency:    23.2337443682
  - # 5
    frequency:    23.2517093095
  - # 6
    frequency:    25.0439757198
  - # 7
    frequency:    25.0439757198
  - # 8
    frequency:    25.3266030097
  - # 9
    frequency:    25.3266030097
  - # 10
    frequency:    36.6745746977
  - # 11
    frequency:    37.8159817508
  - # 12
    frequency:    37.8159817508
  - # 13
    frequency:    38.0691254728
  - # 14
    frequency:    38.0691254728
  - # 15
    frequency:    39.5529287375
  - # 16
    frequency:    39.5609675954
  - # 17
    frequency:    40.9613542929
  - # 18
    frequency:    40.9613542929
  - # 19
    frequency:    41.2399903721
  - # 20
    frequency:    41.2399903721
  - # 21
    frequency:    43.3143959528
  - # 22
    frequency:    44.3340175733
  - # 23
    frequency:    44.3348887619
  - # 24
    frequency:    44.8593490276

- q-position: [    0.1979167,    0.0104167,    0.0104167 ]
  distance_from_gamma:  0.058272876
  weight: 24   
  band:
  - # 1
    frequency:     7.5788216348
  - # 2
    frequency:     7.5865914070
  - # 3
    frequency:    10.8514770493
  - # 4
    frequency:    23.0263443855
  - # 5
    frequency:    23.0442702794
  - # 6
    frequency:    25.2903763629
  - # 7
    frequency:    25.2903763629
  - # 8
    frequency:    25.6009564214
  - # 9
    frequency:    25.6009564214
  - # 10
    frequency:    36.1041387697
  - # 11
    frequency:    37.5673096311
  - # 12
    frequency:    37.5673096311
  - # 13
    frequency:    37.8340047752
  - # 14
    frequency:    37.8340047752
  - # 15
    frequency:    39.6568406424
  - # 16
    frequency:    39.6634057064
  - # 17
    frequency:    41.0196205209
  - # 18
    frequency:    41.0196205209
  - # 19
    frequency:    41.2865103071
  - # 20
    frequency:    41.2865103071
  - # 21
    frequency:    43.5355243129
  - # 22
    frequency:    44.2378375324
  - # 23
    frequency:    44.2386942396
  - # 24
    frequency:    44.8875514528

- q-position: [    0.2187500,    0.0104167,    0.0104167 ]
  distance_from_gamma:  0.064374668
  weight: 24   
  band:
  - # 1
    frequency:     8.3438376209
  - # 2
    frequency:     8.3492687093
  - # 3
    frequency:    11.9478792566
  - # 4
    frequency:    22.7950488528
  - # 5
    frequency:    22.8129067724
  - # 6
    frequency:    25.5573052960
  - # 7
    frequency:    25.5573052960
  - # 8
    frequency:    25.8943544016
  - # 9
    frequency:    25.8943544016
  - # 10
    frequency:    35.5119933829
  - # 11
    frequency:    37.3061713949
  - # 12
    frequency:    37.3061713949
  - # 13
    frequency:    37.5840985974
  - # 14
    frequency:    37.5840985974
  - # 15
    frequency:    39.7710762673
  - # 16
    frequency:    39.7765693010
  - # 17
    frequency:    41.0738312667
  - # 18
    frequency:    41.0738312667
  - # 19
    frequency:    41.3300063992
  - # 20
    frequency:    41.3300063992
  - # 21
    frequency:    43.7400140348
  - # 22
    frequency:    44.1320372088
  - # 23
    frequency:    44.1328787472
  - # 24
    frequency:    44.9169774289

- q-position: [    0.2395833,    0.0104167,    0.0104167 ]
  distance_from_gamma:  0.070479108
  weight: 24   
  band:
  - # 1
    frequency:     9.0991254764
  - # 2
    frequency:     9.1024792353
  - # 3
    frequency:    13.0345324172
  - # 4
    frequency:    22.5397437238
  - # 5
    frequency:    22.5574995731
  - # 6
    frequency:    25.8420518557
  - # 7
    frequency:    25.8420518557
  - # 8
    frequency:    26.2040528572
  - # 9
    frequency:    26.2040528572
  - # 10
    frequency:    34.8982390121
  - # 11
    frequency:    37.0341962665
  - # 12
    frequency:    37.0341962665
  - # 13
    frequency:    37.3211097013
  - # 14
    frequency:    37.3211097013
  - # 15
    frequency:    39.8951747279
  - # 16
    frequency:    39.8998429355
  - # 17
    frequency:    41.1237641169
  - # 18
    frequency:    41.1237641169
  - # 19
    frequency:    41.3702019762
  - # 20
    frequency:    41.3702019762
  - # 21
    frequency:    43.9282619170
  - # 22
    frequency:    44.0169625355
  - # 23
    frequency:    44.0177887408
  - # 24
    frequency:    44.9470645054

- q-position: [    0.2604167,    0.0104167,    0.0104167 ]
  distance_from_gamma:  0.076585563
  weight: 24   
  band:
  - # 1
    frequency:     9.8437935331
  - # 2
    frequency:     9.8452757857
  - # 3
    frequency:    14.1103654204
  - # 4
    frequency:    22.2603611449
  - # 5
    frequency:    22.2779760934
  - # 6
    frequency:    26.1416316666
  - # 7
    frequency:    26.1416316666
  - # 8
    frequency:    26.5270555490
  - # 9
    frequency:    26.5270555490
  - # 10
    frequency:    34.2629254076
  - # 11
    frequency:    36.7531863114
  - # 12
    frequency:    36.7531863114
  - # 13
    frequency:    37.0468204727
  - # 14
    frequency:    37.0468204727
  - # 15
    frequency:    40.0286076753
  - # 16
    frequency:    40.0326154403
  - # 17
    frequency:    41.1693433960
  - # 18
    frequency:    41.1693433960
  - # 19
    frequency:    41.4069660634
  - # 20
    frequency:    41.4069660634
  - # 21
    frequency:    43.8929980384
  - # 22
    frequency:    43.8938093320
  - # 23
    frequency:    44.1006864031
  - # 24
    frequency:    44.9772130690

- q-position: [    0.2812500,    0.0104167,    0.0104167 ]
  distance_from_gamma:  0.082693587
  weight: 24   
  band:
  - # 1
    frequency:    10.5767414861
  - # 2
    frequency:    10.5769644182
  - # 3
    frequency:    15.1743931111
  - # 4
    frequency:    21.9568859506
  - # 5
    frequency:    21.9743169607
  - # 6
    frequency:    26.4527423630
  - # 7
    frequency:    26.4527423630
  - # 8
    frequency:    26.8600659456
  - # 9
    frequency:    26.8600659456
  - # 10
    frequency:    33.6060901509
  - # 11
    frequency:    36.4652343765
  - # 12
    frequency:    36.4652343765
  - # 13
    frequency:    36.7632147871
  - # 14
    frequency:    36.7632147871
  - # 15
    frequency:    40.1707809662
  - # 16
    frequency:    40.1742450273
  - # 17
    frequency:    41.2105865280
  - # 18
    frequency:    41.2105865280
  - # 19
    frequency:    41.4402652635
  - # 20
    frequency:    41.4402652635
  - # 21
    frequency:    43.7605675834
  - # 22
    frequency:    43.7613650554
  - # 23
    frequency:    44.2577276581
  - # 24
    frequency:    45.0067909210

- q-position: [    0.3020833,    0.0104167,    0.0104167 ]
  distance_from_gamma:  0.088802855
  weight: 24   
  band:
  - # 1
    frequency:    11.2959845821
  - # 2
    frequency:    11.2977750096
  - # 3
    frequency:    16.2256996374
  - # 4
    frequency:    21.6293602202
  - # 5
    frequency:    21.6465606305
  - # 6
    frequency:    26.7716897677
  - # 7
    frequency:    26.7716897677
  - # 8
    frequency:    27.1994078688
  - # 9
    frequency:    27.1994078688
  - # 10
    frequency:    32.9277770680
  - # 11
    frequency:    36.1728570925
  - # 12
    frequency:    36.1728570925
  - # 13
    frequency:    36.4726091080
  - # 14
    frequency:    36.4726091080
  - # 15
    frequency:    40.3210382018
  - # 16
    frequency:    40.3240462873
  - # 17
    frequency:    41.2475675710
  - # 18
    frequency:    41.2475675710
  - # 19
    frequency:    41.4701293975
  - # 20
    frequency:    41.4701293975
  - # 21
    frequency:    43.6201350125
  - # 22
    frequency:    43.6209205197
  - # 23
    frequency:    44.3998477885
  - # 24
    frequency:    45.0351379359

- q-position: [    0.3229167,    0.0104167,    0.0104167 ]
  distance_from_gamma:  0.094913127
  weight: 24   
  band:
  - # 1
    frequency:    12.0021357545
  - # 2
    frequency:    12.0053770488
  - # 3
    frequency:    17.2634286416
  - # 4
    frequency:    21.2778859907
  - # 5
    frequency:    21.2948061177
  - # 6
    frequency:    27.0942743005
  - # 7
    frequency:    27.0942743005
  - # 8
    frequency:    27.5409038971
  - # 9
    frequency:    27.5409038971
  - # 10
    frequency:    32.2280462291
  - # 11
    frequency:    35.8791574056
  - # 12
    frequency:    35.8791574056
  - # 13
    frequency:    36.1778089093
  - # 14
    frequency:    36.1778089093
  - # 15
    frequency:    40.4786659190
  - # 16
    frequency:    40.4812871858
  - # 17
    frequency:    41.2803922867
  - # 18
    frequency:    41.2803922867
  - # 19
    frequency:    41.4966270617
  - # 20
    frequency:    41.4966270617
  - # 21
    frequency:    43.4722046185
  - # 22
    frequency:    43.4729808954
  - # 23
    frequency:    44.5275311008
  - # 24
    frequency:    45.0615707377

- q-position: [    0.3437500,    0.0104167,    0.0104167 ]
  distance_from_gamma:  0.101024222
  weight: 24   
  band:
  - # 1
    frequency:    12.6943469290
  - # 2
    frequency:    12.6989381180
  - # 3
    frequency:    18.2867773649
  - # 4
    frequency:    20.9026263147
  - # 5
    frequency:    20.9192140408
  - # 6
    frequency:    27.4156254724
  - # 7
    frequency:    27.4156254724
  - # 8
    frequency:    27.8796981383
  - # 9
    frequency:    27.8796981383
  - # 10
    frequency:    31.5069800569
  - # 11
    frequency:    35.5880304768
  - # 12
    frequency:    35.5880304768
  - # 13
    frequency:    35.8823088005
  - # 14
    frequency:    35.8823088005
  - # 15
    frequency:    40.6429001382
  - # 16
    frequency:    40.6451912628
  - # 17
    frequency:    41.3091810257
  - # 18
    frequency:    41.3091810257
  - # 19
    frequency:    41.5198482495
  - # 20
    frequency:    41.5198482495
  - # 21
    frequency:    43.3173214080
  - # 22
    frequency:    43.3180921893
  - # 23
    frequency:    44.6412843252
  - # 24
    frequency:    45.0853873324

- q-position: [    0.3645833,    0.0104167,    0.0104167 ]
  distance_from_gamma:  0.107135998
  weight: 24   
  band:
  - # 1
    frequency:    13.3717910297
  - # 2
    frequency:    13.3776428581
  - # 3
    frequency:    19.2949930443
  - # 4
    frequency:    20.5038049121
  - # 5
    frequency:    20.5200062327
  - # 6
    frequency:    27.7299732050
  - # 7
    frequency:    27.7299732050
  - # 8
    frequency:    28.2100105640
  - # 9
    frequency:    28.2100105640
  - # 10
    frequency:    30.7646874732
  - # 11
    frequency:    35.3044215559
  - # 12
    frequency:    35.3044215559
  - # 13
    frequency:    35.5905566668
  - # 14
    frequency:    35.5905566668
  - # 15
    frequency:    40.8129339278
  - # 16
    frequency:    40.8149427677
  - # 17
    frequency:    41.3340569725
  - # 18
    frequency:    41.3340569725
  - # 19
    frequency:    41.5398919934
  - # 20
    frequency:    41.5398919934
  - # 21
    frequency:    43.1560710970
  - # 22
    frequency:    43.1568412503
  - # 23
    frequency:    44.7416367487
  - # 24
    frequency:    45.1058716423

- q-position: [    0.3854167,    0.0104167,    0.0104167 ]
  distance_from_gamma:  0.113248346
  weight: 24   
  band:
  - # 1
    frequency:    14.0336623744
  - # 2
    frequency:    14.0406943754
  - # 3
    frequency:    20.0817046937
  - # 4
    frequency:    20.0974641999
  - # 5
    frequency:    20.2873706669
  - # 6
    frequency:    28.0303548346
  - # 7
    frequency:    28.0303548346
  - # 8
    frequency:    28.5248207141
  - # 9
    frequency:    28.5248207141
  - # 10
    frequency:    30.0013069768
  - # 11
    frequency:    35.0346249910
  - # 12
    frequency:    35.0346249910
  - # 13
    frequency:    35.3082996001
  - # 14
    frequency:    35.3082996001
  - # 15
    frequency:    40.9879256319
  - # 16
    frequency:    40.9896934805
  - # 17
    frequency:    41.3551381037
  - # 18
    frequency:    41.3551381037
  - # 19
    frequency:    41.5568575741
  - # 20
    frequency:    41.5568575741
  - # 21
    frequency:    42.9890797800
  - # 22
    frequency:    42.9898554464
  - # 23
    frequency:    44.8291402108
  - # 24
    frequency:    45.1222978915

- q-position: [    0.4062500,    0.0104167,    0.0104167 ]
  distance_from_gamma:  0.119361177
  weight: 24   
  band:
  - # 1
    frequency:    14.6791775400
  - # 2
    frequency:    14.6873158256
  - # 3
    frequency:    19.6366654364
  - # 4
    frequency:    19.6519267166
  - # 5
    frequency:    21.2632515250
  - # 6
    frequency:    28.3082904276
  - # 7
    frequency:    28.3082904276
  - # 8
    frequency:    28.8155152112
  - # 9
    frequency:    28.8155152112
  - # 10
    frequency:    29.2170090908
  - # 11
    frequency:    34.7865596772
  - # 12
    frequency:    34.7865596772
  - # 13
    frequency:    35.0430119835
  - # 14
    frequency:    35.0430119835
  - # 15
    frequency:    41.1670074259
  - # 16
    frequency:    41.1685704302
  - # 17
    frequency:    41.3725317425
  - # 18
    frequency:    41.3725317425
  - # 19
    frequency:    41.5708382732
  - # 20
    frequency:    41.5708382732
  - # 21
    frequency:    42.8170132101
  - # 22
    frequency:    42.8178019530
  - # 23
    frequency:    44.9043689237
  - # 24
    frequency:    45.1339347976

- q-position: [    0.4270833,    0.0104167,    0.0104167 ]
  distance_from_gamma:  0.125474420
  weight: 24   
  band:
  - # 1
    frequency:    15.3075766048
  - # 2
    frequency:    15.3167521761
  - # 3
    frequency:    19.1690808690
  - # 4
    frequency:    19.1837868173
  - # 5
    frequency:    22.2220222258
  - # 6
    frequency:    28.4119984047
  - # 7
    frequency:    28.5535419778
  - # 8
    frequency:    28.5535419778
  - # 9
    frequency:    29.0716239027
  - # 10
    frequency:    29.0716239027
  - # 11
    frequency:    34.5698359043
  - # 12
    frequency:    34.5698359043
  - # 13
    frequency:    34.8043525109
  - # 14
    frequency:    34.8043525109
  - # 15
    frequency:    41.3492938962
  - # 16
    frequency:    41.3506839698
  - # 17
    frequency:    41.3863309296
  - # 18
    frequency:    41.3863309296
  - # 19
    frequency:    41.5819169443
  - # 20
    frequency:    41.5819169443
  - # 21
    frequency:    42.6405756267
  - # 22
    frequency:    42.6413865867
  - # 23
    frequency:    44.9679190834
  - # 24
    frequency:    45.1400495327

- q-position: [    0.4479167,    0.0104167,    0.0104167 ]
  distance_from_gamma:  0.131588019
  weight: 24   
  band:
  - # 1
    frequency:    15.9181247164
  - # 2
    frequency:    15.9282721630
  - # 3
    frequency:    18.6793953989
  - # 4
    frequency:    18.6934884208
  - # 5
    frequency:    23.1631139420
  - # 6
    frequency:    27.5865153284
  - # 7
    frequency:    28.7542278103
  - # 8
    frequency:    28.7542278103
  - # 9
    frequency:    29.2809367280
  - # 10
    frequency:    29.2809367280
  - # 11
    frequency:    34.3952285278
  - # 12
    frequency:    34.3952285278
  - # 13
    frequency:    34.6044734520
  - # 14
    frequency:    34.6044734520
  - # 15
    frequency:    41.3966120626
  - # 16
    frequency:    41.3966120626
  - # 17
    frequency:    41.5338903894
  - # 18
    frequency:    41.5351358191
  - # 19
    frequency:    41.5901628977
  - # 20
    frequency:    41.5901628977
  - # 21
    frequency:    42.4605080647
  - # 22
    frequency:    42.4613521201
  - # 23
    frequency:    45.0204082421
  - # 24
    frequency:    45.1399114203

- q-position: [    0.4687500,    0.0104167,    0.0104167 ]
  distance_from_gamma:  0.137701926
  weight: 24   
  band:
  - # 1
    frequency:    16.5101139604
  - # 2
    frequency:    16.5211704558
  - # 3
    frequency:    18.1681006698
  - # 4
    frequency:    18.1815227781
  - # 5
    frequency:    24.0860017617
  - # 6
    frequency:    26.7408376240
  - # 7
    frequency:    28.8977444690
  - # 8
    frequency:    28.8977444690
  - # 9
    frequency:    29.4304776251
  - # 10
    frequency:    29.4304776251
  - # 11
    frequency:    34.2730477340
  - # 12
    frequency:    34.2730477340
  - # 13
    frequency:    34.4577636033
  - # 14
    frequency:    34.4577636033
  - # 15
    frequency:    41.4034334099
  - # 16
    frequency:    41.4034334099
  - # 17
    frequency:    41.5956297415
  - # 18
    frequency:    41.5956297415
  - # 19
    frequency:    41.7199009254
  - # 20
    frequency:    41.7210267932
  - # 21
    frequency:    42.2775860826
  - # 22
    frequency:    42.2784760144
  - # 23
    frequency:    45.0624744172
  - # 24
    frequency:    45.1327953441

- q-position: [    0.4895833,    0.0104167,    0.0104167 ]
  distance_from_gamma:  0.143816101
  weight: 24   
  band:
  - # 1
    frequency:    17.0828655170
  - # 2
    frequency:    17.0947700497
  - # 3
    frequency:    17.6357321003
  - # 4
    frequency:    17.6484248963
  - # 5
    frequency:    24.9902040487
  - # 6
    frequency:    25.8752817516
  - # 7
    frequency:    28.9728938752
  - # 8
    frequency:    28.9728938752
  - # 9
    frequency:    29.5087285229
  - # 10
    frequency:    29.5087285229
  - # 11
    frequency:    34.2105373533
  - # 12
    frequency:    34.2105373533
  - # 13
    frequency:    34.3791051241
  - # 14
    frequency:    34.3791051241
  - # 15
    frequency:    41.4068342177
  - # 16
    frequency:    41.4068342177
  - # 17
    frequency:    41.5983539423
  - # 18
    frequency:    41.5983539423
  - # 19
    frequency:    41.9064355249
  - # 20
    frequency:    41.9074640191
  - # 21
    frequency:    42.0926168478
  - # 22
    frequency:    42.0935675093
  - # 23
    frequency:    45.0947749143
  - # 24
    frequency:    45.1179848478

- q-position: [    0.0312500,    0.0312500,    0.0104167 ]
  distance_from_gamma:  0.013331835
  weight: 24   
  band:
  - # 1
    frequency:     1.5387201512
  - # 2
    frequency:     1.7317282390
  - # 3
    frequency:     2.6795141054
  - # 4
    frequency:    24.0463125882
  - # 5
    frequency:    24.0463125882
  - # 6
    frequency:    24.0483244895
  - # 7
    frequency:    24.0998677332
  - # 8
    frequency:    24.0998677332
  - # 9
    frequency:    24.2084702390
  - # 10
    frequency:    38.9467947096
  - # 11
    frequency:    39.0325362226
  - # 12
    frequency:    39.0325362226
  - # 13
    frequency:    39.1219032922
  - # 14
    frequency:    39.1219032922
  - # 15
    frequency:    39.1325722437
  - # 16
    frequency:    40.1731517905
  - # 17
    frequency:    40.1731517905
  - # 18
    frequency:    40.5351977083
  - # 19
    frequency:    40.9601698794
  - # 20
    frequency:    41.2769424020
  - # 21
    frequency:    41.2769424020
  - # 22
    frequency:    44.7058279737
  - # 23
    frequency:    44.7127163465
  - # 24
    frequency:    44.7309810352

- q-position: [    0.0520833,    0.0312500,    0.0104167 ]
  distance_from_gamma:  0.018094524
  weight: 48   
  band:
  - # 1
    frequency:     2.1402517119
  - # 2
    frequency:     2.3708635749
  - # 3
    frequency:     3.5876855851
  - # 4
    frequency:    24.0010385217
  - # 5
    frequency:    24.0546978942
  - # 6
    frequency:    24.0606442466
  - # 7
    frequency:    24.0941508665
  - # 8
    frequency:    24.1831380882
  - # 9
    frequency:    24.3264015863
  - # 10
    frequency:    38.8236885150
  - # 11
    frequency:    38.9028353958
  - # 12
    frequency:    38.9942248341
  - # 13
    frequency:    39.0705530424
  - # 14
    frequency:    39.1132157217
  - # 15
    frequency:    39.1482041106
  - # 16
    frequency:    39.8146405964
  - # 17
    frequency:    40.2560008739
  - # 18
    frequency:    40.5270320010
  - # 19
    frequency:    41.0208893712
  - # 20
    frequency:    41.2854589183
  - # 21
    frequency:    41.6169176681
  - # 22
    frequency:    44.6838201733
  - # 23
    frequency:    44.6933852142
  - # 24
    frequency:    44.7358376029

- q-position: [    0.0729167,    0.0312500,    0.0104167 ]
  distance_from_gamma:  0.023493036
  weight: 48   
  band: