 vasp.5.4.4.18Apr17-6-g9f103f2a35 (build Mar 12 2022 03:36:41) complex          
  
 executed on IFC19.0.3.199_CrayMP date 2022.12.02  00:45:08
 running on   32 total cores
 distrk:  each k-point on   32 cores,    1 groups
 distr:  one band on NCORES_PER_BAND=   1 cores,   32 groups


--------------------------------------------------------------------------------------------------------


 INCAR:
 POTCAR:   PAW_PBE C 08Apr2002                    

 ----------------------------------------------------------------------------- 
|                                                                             |
|           W    W    AA    RRRRR   N    N  II  N    N   GGGG   !!!           |
|           W    W   A  A   R    R  NN   N  II  NN   N  G    G  !!!           |
|           W    W  A    A  R    R  N N  N  II  N N  N  G       !!!           |
|           W WW W  AAAAAA  RRRRR   N  N N  II  N  N N  G  GGG   !            |
|           WW  WW  A    A  R   R   N   NN  II  N   NN  G    G                |
|           W    W  A    A  R    R  N    N  II  N    N   GGGG   !!!           |
|                                                                             |
|      For optimal performance we recommend to set                            |
|        NCORE= 4 - approx SQRT( number of cores)                             |
|      NCORE specifies how many cores store one orbital (NPAR=cpu/NCORE).     |
|      This setting can  greatly improve the performance of VASP for DFT.     |
|      The default,   NCORE=1            might be grossly inefficient         |
|      on modern multi-core architectures or massively parallel machines.     |
|      Do your own testing !!!!                                               |
|      Unfortunately you need to use the default for GW and RPA calculations. |
|      (for HF NCORE is supported but not extensively tested yet)             |
|                                                                             |
 ----------------------------------------------------------------------------- 

 POTCAR:   PAW_PBE C 08Apr2002                    
   VRHFIN =C: s2p2                                                              
   LEXCH  = PE                                                                  
   EATOM  =   147.1560 eV,   10.8157 Ry                                         
                                                                                
   TITEL  = PAW_PBE C 08Apr2002                                                 
   LULTRA =        F    use ultrasoft PP ?                                      
   IUNSCR =        0    unscreen: 0-lin 1-nonlin 2-no                           
   RPACOR =     .000    partial core radius                                     
   POMASS =   12.011; ZVAL   =    4.000    mass and valenz                      
   RCORE  =    1.500    outmost cutoff radius                                   
   RWIGS  =    1.630; RWIGS  =     .863    wigner-seitz radius (au A)           
   ENMAX  =  400.000; ENMIN  =  300.000 eV                                      
   ICORE  =        2    local potential                                         
   LCOR   =        T    correct aug charges                                     
   LPAW   =        T    paw PP                                                  
   EAUG   =  644.873                                                            
   DEXC   =     .000                                                            
   RMAX   =    2.266    core radius for proj-oper                               
   RAUG   =    1.300    factor for augmentation sphere                          
   RDEP   =    1.501    radius for radial grids                                 
   RDEPT  =    1.300    core radius for aug-charge                              
   QCUT   =   -5.516; QGAM   =   11.032    optimization parameters              
                                                                                
   Description                                                                  
     l     E      TYP  RCUT    TYP  RCUT                                        
     0   .000     23  1.200                                                     
     0   .000     23  1.200                                                     
     1   .000     23  1.500                                                     
     1  2.500     23  1.500                                                     
     2   .000      7  1.500                                                     
  local pseudopotential read in
  atomic valenz-charges read in
  non local Contribution for L=           0  read in
    real space projection operators read in
  non local Contribution for L=           0  read in
    real space projection operators read in
  non local Contribution for L=           1  read in
    real space projection operators read in
  non local Contribution for L=           1  read in
    real space projection operators read in
    PAW grid and wavefunctions read in
 
   number of l-projection  operators is LMAX  =           4
   number of lm-projection operators is LMMAX =           8
 

 ----------------------------------------------------------------------------- 
|                                                                             |
|  ADVICE TO THIS USER RUNNING 'VASP/VAMP'   (HEAR YOUR MASTER'S VOICE ...):  |
|                                                                             |
|      You have a (more or less) 'large supercell' and for larger cells       |
|      it might be more efficient to use real space projection operators      |
|      So try LREAL= Auto  in the INCAR   file.                               |
|      Mind: If you want to do a very accurate calculations keep the          |
|      reciprocal projection scheme          (i.e. LREAL=.FALSE.)             |
|                                                                             |
 ----------------------------------------------------------------------------- 

 PAW_PBE C 08Apr2002                    :
 energy of atom  1       EATOM= -147.1560
 kinetic energy error for atom=    0.0288 (will be added to EATOM!!)
 
 
 POSCAR: generated by phonopy                    
  positions in direct lattice
  No initial velocities read in
 exchange correlation table for  LEXCH =        8
   RHO(1)=    0.500       N(1)  =     2000
   RHO(2)=  100.500       N(2)  =     4000
 


--------------------------------------------------------------------------------------------------------


 ion  position               nearest neighbor table
   1  0.125  0.375  0.125-  11 1.47  25 1.47  43 1.47  57 1.47
   2  0.625  0.375  0.125-  12 1.47  26 1.47  44 1.47  58 1.47
   3  0.125  0.875  0.125-   9 1.47  27 1.47  41 1.47  59 1.47
   4  0.625  0.875  0.125-  10 1.47  28 1.47  42 1.47  60 1.47
   5  0.125  0.375  0.625-  15 1.47  29 1.47  47 1.47  61 1.47
   6  0.625  0.375  0.625-  16 1.47  30 1.47  48 1.47  62 1.47
   7  0.125  0.875  0.625-  13 1.47  31 1.47  45 1.47  63 1.47
   8  0.625  0.875  0.625-  14 1.47  32 1.47  46 1.47  64 1.47
   9  0.000  0.000  0.250-   3 1.47  17 1.47  36 1.47  50 1.47
  10  0.500  0.000  0.250-   4 1.47  18 1.47  35 1.47  49 1.47
  11  0.000  0.500  0.250-   1 1.47  19 1.47  34 1.47  52 1.47
  12  0.500  0.500  0.250-   2 1.47  20 1.47  33 1.47  51 1.47
  13  0.000  0.000  0.750-   7 1.47  21 1.47  40 1.47  54 1.47
  14  0.500  0.000  0.750-   8 1.47  22 1.47  39 1.47  53 1.47
  15  0.000  0.500  0.750-   5 1.47  23 1.47  38 1.47  56 1.47
  16  0.500  0.500  0.750-   6 1.47  24 1.47  37 1.47  55 1.47
  17  0.125  0.125  0.375-   9 1.47  29 1.47  45 1.47  57 1.47
  18  0.625  0.125  0.375-  10 1.47  30 1.47  46 1.47  58 1.47
  19  0.125  0.625  0.375-  11 1.47  31 1.47  47 1.47  59 1.47
  20  0.625  0.625  0.375-  12 1.47  32 1.47  48 1.47  60 1.47
  21  0.125  0.125  0.875-  13 1.47  25 1.47  41 1.47  61 1.47
  22  0.625  0.125  0.875-  14 1.47  26 1.47  42 1.47  62 1.47
  23  0.125  0.625  0.875-  15 1.47  27 1.47  43 1.47  63 1.47
  24  0.625  0.625  0.875-  16 1.47  28 1.47  44 1.47  64 1.47
  25  0.000  0.250  0.000-   1 1.47  21 1.47  38 1.47  50 1.47
  26  0.500  0.250  0.000-   2 1.47  22 1.47  37 1.47  49 1.47
  27  0.000  0.750  0.000-   3 1.47  23 1.47  40 1.47  52 1.47
  28  0.500  0.750  0.000-   4 1.47  24 1.47  39 1.47  51 1.47
  29  0.000  0.250  0.500-   5 1.47  17 1.47  34 1.47  54 1.47
  30  0.500  0.250  0.500-   6 1.47  18 1.47  33 1.47  53 1.47
  31  0.000  0.750  0.500-   7 1.47  19 1.47  36 1.47  56 1.47
  32  0.500  0.750  0.500-   8 1.47  20 1.47  35 1.47  55 1.47
  33  0.375  0.375  0.375-  12 1.47  30 1.47  47 1.47  57 1.47
  34  0.875  0.375  0.375-  11 1.47  29 1.47  48 1.47  58 1.47
  35  0.375  0.875  0.375-  10 1.47  32 1.47  45 1.47  59 1.47
  36  0.875  0.875  0.375-   9 1.47  31 1.47  46 1.47  60 1.47
  37  0.375  0.375  0.875-  16 1.47  26 1.47  43 1.47  61 1.47
  38  0.875  0.375  0.875-  15 1.47  25 1.47  44 1.47  62 1.47
  39  0.375  0.875  0.875-  14 1.47  28 1.47  41 1.47  63 1.47
  40  0.875  0.875  0.875-  13 1.47  27 1.47  42 1.47  64 1.47
  41  0.250  0.000  0.000-   3 1.47  21 1.47  39 1.47  49 1.47
  42  0.750  0.000  0.000-   4 1.47  22 1.47  40 1.47  50 1.47
  43  0.250  0.500  0.000-   1 1.47  23 1.47  37 1.47  51 1.47
  44  0.750  0.500  0.000-   2 1.47  24 1.47  38 1.47  52 1.47
  45  0.250  0.000  0.500-   7 1.47  17 1.47  35 1.47  53 1.47
  46  0.750  0.000  0.500-   8 1.47  18 1.47  36 1.47  54 1.47
  47  0.250  0.500  0.500-   5 1.47  19 1.47  33 1.47  55 1.47
  48  0.750  0.500  0.500-   6 1.47  20 1.47  34 1.47  56 1.47
  49  0.375  0.125  0.125-  10 1.47  26 1.47  41 1.47  57 1.47
  50  0.875  0.125  0.125-   9 1.47  25 1.47  42 1.47  58 1.47
  51  0.375  0.625  0.125-  12 1.47  28 1.47  43 1.47  59 1.47
  52  0.875  0.625  0.125-  11 1.47  27 1.47  44 1.47  60 1.47
  53  0.375  0.125  0.625-  14 1.47  30 1.47  45 1.47  61 1.47
  54  0.875  0.125  0.625-  13 1.47  29 1.47  46 1.47  62 1.47
  55  0.375  0.625  0.625-  16 1.47  32 1.47  47 1.47  63 1.47
  56  0.875  0.625  0.625-  15 1.47  31 1.47  48 1.47  64 1.47
  57  0.250  0.250  0.250-   1 1.47  17 1.47  33 1.47  49 1.47
  58  0.750  0.250  0.250-   2 1.47  18 1.47  34 1.47  50 1.47
  59  0.250  0.750  0.250-   3 1.47  19 1.47  35 1.47  51 1.47
  60  0.750  0.750  0.250-   4 1.47  20 1.47  36 1.47  52 1.47
  61  0.250  0.250  0.750-   5 1.47  21 1.47  37 1.47  53 1.47
  62  0.750  0.250  0.750-   6 1.47  22 1.47  38 1.47  54 1.47
  63  0.250  0.750  0.750-   7 1.47  23 1.47  39 1.47  55 1.47
  64  0.750  0.750  0.750-   8 1.47  24 1.47  40 1.47  56 1.47
 
  LATTYP: Found a simple cubic cell.
 ALAT       =     6.8115448857
  
  Lattice vectors:
  
 A1 = (   6.8115448857,   0.0000000000,   0.0000000000)
 A2 = (   0.0000000000,   6.8115448857,   0.0000000000)
 A3 = (   0.0000000000,   0.0000000000,   6.8115448857)


Analysis of symmetry for initial positions (statically):
=====================================================================
 Subroutine PRICEL returns following result:
 
  LATTYP: Found a face centered cubic cell.
 ALAT       =     3.4057724428
  
  Lattice vectors:
  
 A1 = (   1.7028862214,   1.7028862214,   0.0000000000)
 A2 = (   1.7028862214,   0.0000000000,  -1.7028862214)
 A3 = (   0.0000000000,   1.7028862214,  -1.7028862214)
 
  32 primitive cells build up your supercell.
 

 Routine SETGRP: Setting up the symmetry group for a 
 simple cubic supercell.


 Subroutine GETGRP returns: Found 48 space group operations
 (whereof 24 operations were pure point group operations)
 out of a pool of 48 trial point group operations.


The static configuration has the point symmetry T_d .
 The point group associated with its full space group is O_h .


Analysis of symmetry for dynamics (positions and initial velocities):
=====================================================================
 Subroutine PRICEL returns following result:
 
  LATTYP: Found a face centered cubic cell.
 ALAT       =     3.4057724428
  
  Lattice vectors:
  
 A1 = (   1.7028862214,   1.7028862214,   0.0000000000)
 A2 = (   1.7028862214,   0.0000000000,  -1.7028862214)
 A3 = (   0.0000000000,   1.7028862214,  -1.7028862214)
 
  32 primitive cells build up your supercell.
 

 Routine SETGRP: Setting up the symmetry group for a 
 simple cubic supercell.


 Subroutine GETGRP returns: Found 48 space group operations
 (whereof 24 operations were pure point group operations)
 out of a pool of 48 trial point group operations.


The dynamic configuration has the point symmetry T_d .
 The point group associated with its full space group is O_h .


 Subroutine INISYM returns: Found 48 space group operations
 (whereof 24 operations are pure point group operations),
 and found    32 'primitive' translations

 
 
 KPOINTS: kpt_density=3000                        

Automatic generation of k-mesh.
Space group operators:
 irot       det(A)        alpha          n_x          n_y          n_z        tau_x        tau_y        tau_z
    1     1.000000     0.000000     1.000000     0.000000     0.000000     0.000000     0.000000     0.000000
    2     1.000000   120.000000    -0.577350    -0.577350    -0.577350     0.000000     0.000000     0.000000
    3     1.000000   120.000000     0.577350     0.577350     0.577350     0.000000     0.000000     0.000000
    4    -1.000000    90.000000     0.000000     0.000000    -1.000000     0.000000     0.000000     0.000000
    5    -1.000000   180.000000     0.000000     0.707107     0.707107     0.000000     0.000000     0.000000
    6    -1.000000    90.000000     0.000000     1.000000     0.000000     0.000000     0.000000     0.000000
    7     1.000000   180.000000     0.000000     0.000000     1.000000     0.000000     0.000000     0.000000
    8     1.000000   120.000000    -0.577350     0.577350     0.577350     0.000000     0.000000     0.000000
    9     1.000000   120.000000    -0.577350     0.577350    -0.577350     0.000000     0.000000     0.000000
   10    -1.000000    90.000000     0.000000     0.000000     1.000000     0.000000     0.000000     0.000000
   11    -1.000000    90.000000    -1.000000     0.000000     0.000000     0.000000     0.000000     0.000000
   12    -1.000000   180.000000     0.707107     0.000000     0.707107     0.000000     0.000000     0.000000
   13     1.000000   120.000000     0.577350    -0.577350     0.577350     0.000000     0.000000     0.000000
   14     1.000000   120.000000    -0.577350    -0.577350     0.577350     0.000000     0.000000     0.000000
   15     1.000000   180.000000     1.000000     0.000000     0.000000     0.000000     0.000000     0.000000
   16    -1.000000    90.000000     0.000000    -1.000000     0.000000     0.000000     0.000000     0.000000
   17    -1.000000   180.000000     0.707107     0.707107     0.000000     0.000000     0.000000     0.000000
   18    -1.000000    90.000000     1.000000     0.000000     0.000000     0.000000     0.000000     0.000000
   19     1.000000   120.000000     0.577350    -0.577350    -0.577350     0.000000     0.000000     0.000000
   20     1.000000   180.000000     0.000000     1.000000     0.000000     0.000000     0.000000     0.000000
   21     1.000000   120.000000     0.577350     0.577350    -0.577350     0.000000     0.000000     0.000000
   22    -1.000000   180.000000     0.000000    -0.707107     0.707107     0.000000     0.000000     0.000000
   23    -1.000000   180.000000     0.707107    -0.707107     0.000000     0.000000     0.000000     0.000000
   24    -1.000000   180.000000     0.707107     0.000000    -0.707107     0.000000     0.000000     0.000000
   25    -1.000000     0.000000     1.000000     0.000000     0.000000     0.375000     0.375000    -0.375000
   26    -1.000000   120.000000    -0.577350    -0.577350    -0.577350     0.375000     0.375000    -0.375000
   27    -1.000000   120.000000     0.577350     0.577350     0.577350     0.375000     0.375000    -0.375000
   28     1.000000    90.000000     0.000000     0.000000    -1.000000     0.375000     0.375000    -0.375000
   29     1.000000   180.000000     0.000000     0.707107     0.707107     0.375000     0.375000    -0.375000
   30     1.000000    90.000000     0.000000     1.000000     0.000000     0.375000     0.375000    -0.375000
   31    -1.000000   180.000000     0.000000     0.000000     1.000000     0.375000     0.375000    -0.375000
   32    -1.000000   120.000000    -0.577350     0.577350     0.577350     0.375000     0.375000    -0.375000
   33    -1.000000   120.000000    -0.577350     0.577350    -0.577350     0.375000     0.375000    -0.375000
   34     1.000000    90.000000     0.000000     0.000000     1.000000     0.375000     0.375000    -0.375000
   35     1.000000    90.000000    -1.000000     0.000000     0.000000     0.375000     0.375000    -0.375000
   36     1.000000   180.000000     0.707107     0.000000     0.707107     0.375000     0.375000    -0.375000
   37    -1.000000   120.000000     0.577350    -0.577350     0.577350     0.375000     0.375000    -0.375000
   38    -1.000000   120.000000    -0.577350    -0.577350     0.577350     0.375000     0.375000    -0.375000
   39    -1.000000   180.000000     1.000000     0.000000     0.000000     0.375000     0.375000    -0.375000
   40     1.000000    90.000000     0.000000    -1.000000     0.000000     0.375000     0.375000    -0.375000
   41     1.000000   180.000000     0.707107     0.707107     0.000000     0.375000     0.375000    -0.375000
   42     1.000000    90.000000     1.000000     0.000000     0.000000     0.375000     0.375000    -0.375000
   43    -1.000000   120.000000     0.577350    -0.577350    -0.577350     0.375000     0.375000    -0.375000
   44    -1.000000   180.000000     0.000000     1.000000     0.000000     0.375000     0.375000    -0.375000
   45    -1.000000   120.000000     0.577350     0.577350    -0.577350     0.375000     0.375000    -0.375000
   46     1.000000   180.000000     0.000000    -0.707107     0.707107     0.375000     0.375000    -0.375000
   47     1.000000   180.000000     0.707107    -0.707107     0.000000     0.375000     0.375000    -0.375000
   48     1.000000   180.000000     0.707107     0.000000    -0.707107     0.375000     0.375000    -0.375000
 
 Subroutine IBZKPT returns following result:
 ===========================================
 
 Found     20 irreducible k-points:
 
 Following reciprocal coordinates:
            Coordinates               Weight
  0.000000  0.000000  0.000000      1.000000
  0.166667  0.000000  0.000000      6.000000
  0.333333  0.000000  0.000000      6.000000
  0.500000  0.000000  0.000000      3.000000
  0.166667  0.166667  0.000000     12.000000
  0.333333  0.166667  0.000000     24.000000
  0.500000  0.166667  0.000000     12.000000
  0.333333  0.333333  0.000000     12.000000
  0.500000  0.333333  0.000000     12.000000
  0.500000  0.500000  0.000000      3.000000
  0.166667  0.166667  0.166667      8.000000
  0.333333  0.166667  0.166667     24.000000
  0.500000  0.166667  0.166667     12.000000
  0.333333  0.333333  0.166667     24.000000
  0.500000  0.333333  0.166667     24.000000
  0.500000  0.500000  0.166667      6.000000
  0.333333  0.333333  0.333333      8.000000
  0.500000  0.333333  0.333333     12.000000
  0.500000  0.500000  0.333333      6.000000
  0.500000  0.500000  0.500000      1.000000
 
 Following cartesian coordinates:
            Coordinates               Weight
  0.000000  0.000000  0.000000      1.000000
  0.024468  0.000000  0.000000      6.000000
  0.048937  0.000000  0.000000      6.000000
  0.073405  0.000000  0.000000      3.000000
  0.024468  0.024468  0.000000     12.000000
  0.048937  0.024468  0.000000     24.000000
  0.073405  0.024468  0.000000     12.000000
  0.048937  0.048937  0.000000     12.000000
  0.073405  0.048937  0.000000     12.000000
  0.073405  0.073405  0.000000      3.000000
  0.024468  0.024468  0.024468      8.000000
  0.048937  0.024468  0.024468     24.000000
  0.073405  0.024468  0.024468     12.000000
  0.048937  0.048937  0.024468     24.000000
  0.073405  0.048937  0.024468     24.000000
  0.073405  0.073405  0.024468      6.000000
  0.048937  0.048937  0.048937      8.000000
  0.073405  0.048937  0.048937     12.000000
  0.073405  0.073405  0.048937      6.000000
  0.073405  0.073405  0.073405      1.000000
 
 
 Subroutine IBZKPT_HF returns following result:
 ==============================================
 
 Found    216 k-points in 1st BZ
 the following    216 k-points will be used (e.g. in the exchange kernel)
 Following reciprocal coordinates:   # in IRBZ
  0.000000  0.000000  0.000000    0.00462963   1 t-inv F
  0.166667  0.000000  0.000000    0.00462963   2 t-inv F
  0.333333  0.000000  0.000000    0.00462963   3 t-inv F
  0.500000  0.000000  0.000000    0.00462963   4 t-inv F
  0.166667  0.166667  0.000000    0.00462963   5 t-inv F
  0.333333  0.166667  0.000000    0.00462963   6 t-inv F
  0.500000  0.166667  0.000000    0.00462963   7 t-inv F
  0.333333  0.333333  0.000000    0.00462963   8 t-inv F
  0.500000  0.333333  0.000000    0.00462963   9 t-inv F
  0.500000  0.500000  0.000000    0.00462963  10 t-inv F
  0.166667  0.166667  0.166667    0.00462963  11 t-inv F
  0.333333  0.166667  0.166667    0.00462963  12 t-inv F
  0.500000  0.166667  0.166667    0.00462963  13 t-inv F
  0.333333  0.333333  0.166667    0.00462963  14 t-inv F
  0.500000  0.333333  0.166667    0.00462963  15 t-inv F
  0.500000  0.500000  0.166667    0.00462963  16 t-inv F
  0.333333  0.333333  0.333333    0.00462963  17 t-inv F
  0.500000  0.333333  0.333333    0.00462963  18 t-inv F
  0.500000  0.500000  0.333333    0.00462963  19 t-inv F
  0.500000  0.500000  0.500000    0.00462963  20 t-inv F
  0.000000  0.166667  0.000000    0.00462963   2 t-inv F
  0.000000  0.000000  0.166667    0.00462963   2 t-inv F
  0.000000 -0.166667  0.000000    0.00462963   2 t-inv F
  0.000000  0.000000 -0.166667    0.00462963   2 t-inv F
 -0.166667  0.000000  0.000000    0.00462963   2 t-inv F
  0.000000  0.333333  0.000000    0.00462963   3 t-inv F
  0.000000  0.000000  0.333333    0.00462963   3 t-inv F
  0.000000 -0.333333  0.000000    0.00462963   3 t-inv F
  0.000000  0.000000 -0.333333    0.00462963   3 t-inv F
 -0.333333  0.000000  0.000000    0.00462963   3 t-inv F
  0.000000  0.500000  0.000000    0.00462963   4 t-inv F
  0.000000  0.000000  0.500000    0.00462963   4 t-inv F
  0.000000  0.166667  0.166667    0.00462963   5 t-inv F
  0.166667  0.000000  0.166667    0.00462963   5 t-inv F
  0.166667 -0.166667  0.000000    0.00462963   5 t-inv F
  0.166667  0.000000 -0.166667    0.00462963   5 t-inv F
  0.000000 -0.166667 -0.166667    0.00462963   5 t-inv F
 -0.166667 -0.166667  0.000000    0.00462963   5 t-inv F
  0.000000 -0.166667  0.166667    0.00462963   5 t-inv F
 -0.166667  0.000000  0.166667    0.00462963   5 t-inv F
 -0.166667  0.166667  0.000000    0.00462963   5 t-inv F
 -0.166667  0.000000 -0.166667    0.00462963   5 t-inv F
  0.000000  0.166667 -0.166667    0.00462963   5 t-inv F
  0.000000  0.333333  0.166667    0.00462963   6 t-inv F
  0.166667  0.000000  0.333333    0.00462963   6 t-inv F
  0.166667 -0.333333  0.000000    0.00462963   6 t-inv F
  0.333333  0.000000 -0.166667    0.00462963   6 t-inv F
  0.000000 -0.166667 -0.333333    0.00462963   6 t-inv F
 -0.333333 -0.166667  0.000000    0.00462963   6 t-inv F
  0.000000 -0.333333  0.166667    0.00462963   6 t-inv F
 -0.166667  0.000000  0.333333    0.00462963   6 t-inv F
 -0.166667  0.333333  0.000000    0.00462963   6 t-inv F
 -0.333333  0.000000 -0.166667    0.00462963   6 t-inv F
  0.000000  0.166667 -0.333333    0.00462963   6 t-inv F
  0.000000 -0.333333 -0.166667    0.00462963   6 t-inv F
  0.166667  0.000000 -0.333333    0.00462963   6 t-inv F
  0.333333 -0.166667  0.000000    0.00462963   6 t-inv F
  0.000000 -0.166667  0.333333    0.00462963   6 t-inv F
 -0.166667 -0.333333  0.000000    0.00462963   6 t-inv F
 -0.333333  0.000000  0.166667    0.00462963   6 t-inv F
 -0.166667  0.000000 -0.333333    0.00462963   6 t-inv F
 -0.333333  0.166667  0.000000    0.00462963   6 t-inv F
  0.000000  0.333333 -0.166667    0.00462963   6 t-inv F
  0.333333  0.000000  0.166667    0.00462963   6 t-inv F
  0.166667  0.333333  0.000000    0.00462963   6 t-inv F
  0.000000  0.166667  0.333333    0.00462963   6 t-inv F
  0.000000  0.500000  0.166667    0.00462963   7 t-inv F
  0.166667  0.000000  0.500000    0.00462963   7 t-inv F
  0.166667 -0.500000  0.000000    0.00462963   7 t-inv F
  0.500000  0.000000 -0.166667    0.00462963   7 t-inv F
  0.000000 -0.166667 -0.500000    0.00462963   7 t-inv F
 -0.500000 -0.166667  0.000000    0.00462963   7 t-inv F
 -0.166667  0.000000  0.500000    0.00462963   7 t-inv F
 -0.166667  0.500000  0.000000    0.00462963   7 t-inv F
  0.000000  0.166667 -0.500000    0.00462963   7 t-inv F
  0.000000 -0.500000 -0.166667    0.00462963   7 t-inv F
 -0.500000  0.000000  0.166667    0.00462963   7 t-inv F
  0.000000  0.333333  0.333333    0.00462963   8 t-inv F
  0.333333  0.000000  0.333333    0.00462963   8 t-inv F
  0.333333 -0.333333  0.000000    0.00462963   8 t-inv F
  0.333333  0.000000 -0.333333    0.00462963   8 t-inv F
  0.000000 -0.333333 -0.333333    0.00462963   8 t-inv F
 -0.333333 -0.333333  0.000000    0.00462963   8 t-inv F
  0.000000 -0.333333  0.333333    0.00462963   8 t-inv F
 -0.333333  0.000000  0.333333    0.00462963   8 t-inv F
 -0.333333  0.333333  0.000000    0.00462963   8 t-inv F
 -0.333333  0.000000 -0.333333    0.00462963   8 t-inv F
  0.000000  0.333333 -0.333333    0.00462963   8 t-inv F
  0.000000  0.500000  0.333333    0.00462963   9 t-inv F
  0.333333  0.000000  0.500000    0.00462963   9 t-inv F
  0.333333 -0.500000  0.000000    0.00462963   9 t-inv F
  0.500000  0.000000 -0.333333    0.00462963   9 t-inv F
  0.000000 -0.333333 -0.500000    0.00462963   9 t-inv F
 -0.500000 -0.333333  0.000000    0.00462963   9 t-inv F
 -0.333333  0.000000  0.500000    0.00462963   9 t-inv F
 -0.333333  0.500000  0.000000    0.00462963   9 t-inv F
  0.000000  0.333333 -0.500000    0.00462963   9 t-inv F
  0.000000 -0.500000 -0.333333    0.00462963   9 t-inv F
 -0.500000  0.000000  0.333333    0.00462963   9 t-inv F
  0.000000  0.500000  0.500000    0.00462963  10 t-inv F
  0.500000  0.000000  0.500000    0.00462963  10 t-inv F
  0.166667 -0.166667 -0.166667    0.00462963  11 t-inv F
 -0.166667 -0.166667  0.166667    0.00462963  11 t-inv F
 -0.166667  0.166667 -0.166667    0.00462963  11 t-inv F
 -0.166667 -0.166667 -0.166667    0.00462963  11 t-inv F
 -0.166667  0.166667  0.166667    0.00462963  11 t-inv F
  0.166667  0.166667 -0.166667    0.00462963  11 t-inv F
  0.166667 -0.166667  0.166667    0.00462963  11 t-inv F
  0.166667  0.333333  0.166667    0.00462963  12 t-inv F
  0.166667  0.166667  0.333333    0.00462963  12 t-inv F
  0.166667 -0.333333 -0.166667    0.00462963  12 t-inv F
  0.333333 -0.166667 -0.166667    0.00462963  12 t-inv F
  0.166667 -0.166667 -0.333333    0.00462963  12 t-inv F
 -0.333333 -0.166667  0.166667    0.00462963  12 t-inv F
 -0.166667 -0.333333  0.166667    0.00462963  12 t-inv F
 -0.166667 -0.166667  0.333333    0.00462963  12 t-inv F
 -0.166667  0.333333 -0.166667    0.00462963  12 t-inv F
 -0.333333  0.166667 -0.166667    0.00462963  12 t-inv F
 -0.166667  0.166667 -0.333333    0.00462963  12 t-inv F
 -0.333333 -0.166667 -0.166667    0.00462963  12 t-inv F
 -0.166667 -0.333333 -0.166667    0.00462963  12 t-inv F
 -0.166667 -0.166667 -0.333333    0.00462963  12 t-inv F
 -0.166667  0.333333  0.166667    0.00462963  12 t-inv F
 -0.333333  0.166667  0.166667    0.00462963  12 t-inv F
 -0.166667  0.166667  0.333333    0.00462963  12 t-inv F
  0.333333  0.166667 -0.166667    0.00462963  12 t-inv F
  0.166667  0.333333 -0.166667    0.00462963  12 t-inv F
  0.166667  0.166667 -0.333333    0.00462963  12 t-inv F
  0.166667 -0.333333  0.166667    0.00462963  12 t-inv F
  0.333333 -0.166667  0.166667    0.00462963  12 t-inv F
  0.166667 -0.166667  0.333333    0.00462963  12 t-inv F
  0.166667  0.500000  0.166667    0.00462963  13 t-inv F
  0.166667  0.166667  0.500000    0.00462963  13 t-inv F
  0.166667 -0.500000 -0.166667    0.00462963  13 t-inv F
  0.500000 -0.166667 -0.166667    0.00462963  13 t-inv F
  0.166667 -0.166667 -0.500000    0.00462963  13 t-inv F
 -0.500000 -0.166667  0.166667    0.00462963  13 t-inv F
 -0.166667 -0.500000  0.166667    0.00462963  13 t-inv F
 -0.166667 -0.166667  0.500000    0.00462963  13 t-inv F
 -0.166667  0.500000 -0.166667    0.00462963  13 t-inv F
 -0.500000  0.166667 -0.166667    0.00462963  13 t-inv F
 -0.166667  0.166667 -0.500000    0.00462963  13 t-inv F
  0.166667  0.333333  0.333333    0.00462963  14 t-inv F
  0.333333  0.166667  0.333333    0.00462963  14 t-inv F
  0.333333 -0.333333 -0.166667    0.00462963  14 t-inv F
  0.333333 -0.166667 -0.333333    0.00462963  14 t-inv F
  0.166667 -0.333333 -0.333333    0.00462963  14 t-inv F
 -0.333333 -0.333333  0.166667    0.00462963  14 t-inv F
 -0.166667 -0.333333  0.333333    0.00462963  14 t-inv F
 -0.333333 -0.166667  0.333333    0.00462963  14 t-inv F
 -0.333333  0.333333 -0.166667    0.00462963  14 t-inv F
 -0.333333  0.166667 -0.333333    0.00462963  14 t-inv F
 -0.166667  0.333333 -0.333333    0.00462963  14 t-inv F
 -0.333333 -0.333333 -0.166667    0.00462963  14 t-inv F
 -0.166667 -0.333333 -0.333333    0.00462963  14 t-inv F
 -0.333333 -0.166667 -0.333333    0.00462963  14 t-inv F
 -0.333333  0.333333  0.166667    0.00462963  14 t-inv F
 -0.333333  0.166667  0.333333    0.00462963  14 t-inv F
 -0.166667  0.333333  0.333333    0.00462963  14 t-inv F
  0.333333  0.333333 -0.166667    0.00462963  14 t-inv F
  0.166667  0.333333 -0.333333    0.00462963  14 t-inv F
  0.333333  0.166667 -0.333333    0.00462963  14 t-inv F
  0.333333 -0.333333  0.166667    0.00462963  14 t-inv F
  0.333333 -0.166667  0.333333    0.00462963  14 t-inv F
  0.166667 -0.333333  0.333333    0.00462963  14 t-inv F
  0.166667  0.500000  0.333333    0.00462963  15 t-inv F
  0.333333  0.166667  0.500000    0.00462963  15 t-inv F
  0.333333 -0.500000 -0.166667    0.00462963  15 t-inv F
  0.500000 -0.166667 -0.333333    0.00462963  15 t-inv F
  0.166667 -0.333333 -0.500000    0.00462963  15 t-inv F
 -0.500000 -0.333333  0.166667    0.00462963  15 t-inv F
 -0.166667 -0.500000  0.333333    0.00462963  15 t-inv F
 -0.333333 -0.166667  0.500000    0.00462963  15 t-inv F
 -0.333333  0.500000 -0.166667    0.00462963  15 t-inv F
 -0.500000  0.166667 -0.333333    0.00462963  15 t-inv F
 -0.166667  0.333333 -0.500000    0.00462963  15 t-inv F
  0.166667 -0.500000 -0.333333    0.00462963  15 t-inv F
  0.333333 -0.166667 -0.500000    0.00462963  15 t-inv F
  0.500000 -0.333333 -0.166667    0.00462963  15 t-inv F
 -0.166667 -0.333333  0.500000    0.00462963  15 t-inv F
 -0.333333 -0.500000  0.166667    0.00462963  15 t-inv F
 -0.500000 -0.166667  0.333333    0.00462963  15 t-inv F
 -0.333333  0.166667 -0.500000    0.00462963  15 t-inv F
 -0.500000  0.333333 -0.166667    0.00462963  15 t-inv F
 -0.166667  0.500000 -0.333333    0.00462963  15 t-inv F
  0.500000  0.166667  0.333333    0.00462963  15 t-inv F
  0.333333  0.500000  0.166667    0.00462963  15 t-inv F
  0.166667  0.333333  0.500000    0.00462963  15 t-inv F
  0.166667  0.500000  0.500000    0.00462963  16 t-inv F
  0.500000  0.166667  0.500000    0.00462963  16 t-inv F
  0.500000 -0.500000 -0.166667    0.00462963  16 t-inv F
  0.500000 -0.166667 -0.500000    0.00462963  16 t-inv F
 -0.166667 -0.500000  0.500000    0.00462963  16 t-inv F
  0.333333 -0.333333 -0.333333    0.00462963  17 t-inv F
 -0.333333 -0.333333  0.333333    0.00462963  17 t-inv F
 -0.333333  0.333333 -0.333333    0.00462963  17 t-inv F
 -0.333333 -0.333333 -0.333333    0.00462963  17 t-inv F
 -0.333333  0.333333  0.333333    0.00462963  17 t-inv F
  0.333333  0.333333 -0.333333    0.00462963  17 t-inv F
  0.333333 -0.333333  0.333333    0.00462963  17 t-inv F
  0.333333  0.500000  0.333333    0.00462963  18 t-inv F
  0.333333  0.333333  0.500000    0.00462963  18 t-inv F
  0.333333 -0.500000 -0.333333    0.00462963  18 t-inv F
  0.500000 -0.333333 -0.333333    0.00462963  18 t-inv F
  0.333333 -0.333333 -0.500000    0.00462963  18 t-inv F
 -0.500000 -0.333333  0.333333    0.00462963  18 t-inv F
 -0.333333 -0.500000  0.333333    0.00462963  18 t-inv F
 -0.333333 -0.333333  0.500000    0.00462963  18 t-inv F
 -0.333333  0.500000 -0.333333    0.00462963  18 t-inv F
 -0.500000  0.333333 -0.333333    0.00462963  18 t-inv F
 -0.333333  0.333333 -0.500000    0.00462963  18 t-inv F
  0.333333  0.500000  0.500000    0.00462963  19 t-inv F
  0.500000  0.333333  0.500000    0.00462963  19 t-inv F
  0.500000 -0.500000 -0.333333    0.00462963  19 t-inv F
  0.500000 -0.333333 -0.500000    0.00462963  19 t-inv F
 -0.333333 -0.500000  0.500000    0.00462963  19 t-inv F


--------------------------------------------------------------------------------------------------------




 Dimension of arrays:
   k-points           NKPTS =     20   k-points in BZ     NKDIM =     20   number of bands    NBANDS=    192
   number of dos      NEDOS =    301   number of ions     NIONS =     64
   non local maximal  LDIM  =      4   non local SUM 2l+1 LMDIM =      8
   total plane-waves  NPLWV = 110592
   max r-space proj   IRMAX =      1   max aug-charges    IRDMAX=  33232
   dimension x,y,z NGX =    48 NGY =   48 NGZ =   48
   dimension x,y,z NGXF=    96 NGYF=   96 NGZF=   96
   support grid    NGXF=   192 NGYF=  192 NGZF=  192
   ions per type =              64
   NGX,Y,Z   is equivalent  to a cutoff of  11.72, 11.72, 11.72 a.u.
   NGXF,Y,Z  is equivalent  to a cutoff of  23.43, 23.43, 23.43 a.u.

 SYSTEM =  unknown system                          
 POSCAR =  generated by phonopy                    

 Startparameter for this run:
   NWRITE =      2    write-flag & timer
   PREC   = accura    normal or accurate (medium, high low for compatibility)
   ISTART =      0    job   : 0-new  1-cont  2-samecut
   ICHARG =      2    charge: 1-file 2-atom 10-const
   ISPIN  =      1    spin polarized calculation?
   LNONCOLLINEAR =      F non collinear calculations
   LSORBIT =      F    spin-orbit coupling
   INIWAV =      1    electr: 0-lowe 1-rand  2-diag
   LASPH  =      F    aspherical Exc in radial PAW
   METAGGA=      F    non-selfconsistent MetaGGA calc.

 Electronic Relaxation 1
   ENCUT  =  400.0 eV  29.40 Ry    5.42 a.u.  11.11 11.11 11.11*2*pi/ulx,y,z
   ENINI  =  400.0     initial cutoff
   ENAUG  =  644.9 eV  augmentation charge cutoff
   NELM   =     60;   NELMIN=  2; NELMDL=  0     # of ELM steps 
   EDIFF  = 0.1E-07   stopping-criterion for ELM
   LREAL  =      F    real-space projection
   NLSPLINE    = F    spline interpolate recip. space projectors
   LCOMPAT=      F    compatible to vasp.4.4
   GGA_COMPAT  = T    GGA compatible to vasp.4.4-vasp.4.6
   LMAXPAW     = -100 max onsite density
   LMAXMIX     =    2 max onsite mixed and CHGCAR
   VOSKOWN=      0    Vosko Wilk Nusair interpolation
   ROPT   =    0.00000
 Ionic relaxation
   EDIFFG = 0.1E-06   stopping-criterion for IOM
   NSW    =      1    number of steps for IOM
   NBLOCK =      1;   KBLOCK =      1    inner block; outer block 
   IBRION =      8    ionic relax: 0-MD 1-quasi-New 2-CG
   NFREE  =      0    steps in history (QN), initial steepest desc. (CG)
   ISIF   =      2    stress and relaxation
   IWAVPR =     11    prediction:  0-non 1-charg 2-wave 3-comb
   ISYM   =      2    0-nonsym 1-usesym 2-fastsym
   LCORR  =      T    Harris-Foulkes like correction to forces

   POTIM  = 0.5000    time-step for ionic-motion
   TEIN   =    0.0    initial temperature
   TEBEG  =    0.0;   TEEND  =   0.0 temperature during run
   SMASS  =  -3.00    Nose mass-parameter (am)
   estimated Nose-frequenzy (Omega)   =  0.10E-29 period in steps =****** mass=  -0.106E-26a.u.
   SCALEE = 1.0000    scale energy and forces
   NPACO  =    256;   APACO  = 16.0  distance and # of slots for P.C.
   PSTRESS=    0.0 pullay stress

  Mass of Ions in am
   POMASS =  12.01
  Ionic Valenz
   ZVAL   =   4.00
  Atomic Wigner-Seitz radii
   RWIGS  =  -1.00
  virtual crystal weights 
   VCA    =   1.00
   NELECT =     256.0000    total number of electrons
   NUPDOWN=      -1.0000    fix difference up-down

 DOS related values:
   EMIN   =  10.00;   EMAX   =-10.00  energy-range for DOS
   EFERMI =   0.00
   ISMEAR =     0;   SIGMA  =   0.06  broadening in eV -4-tet -1-fermi 0-gaus

 Electronic relaxation 2 (details)
   IALGO  =     38    algorithm
   LDIAG  =      T    sub-space diagonalisation (order eigenvalues)
   LSUBROT=      F    optimize rotation matrix (better conditioning)
   TURBO    =      0    0=normal 1=particle mesh
   IRESTART =      0    0=no restart 2=restart with 2 vectors
   NREBOOT  =      0    no. of reboots
   NMIN     =      0    reboot dimension
   EREF     =   0.00    reference energy to select bands
   IMIX   =      4    mixing-type and parameters
     AMIX     =   0.40;   BMIX     =  1.00
     AMIX_MAG =   1.60;   BMIX_MAG =  1.00
     AMIN     =   0.10
     WC   =   100.;   INIMIX=   1;  MIXPRE=   1;  MAXMIX= -45

 Intra band minimization:
   WEIMIN = 0.0010     energy-eigenvalue tresh-hold
   EBREAK =  0.13E-10  absolut break condition
   DEPER  =   0.30     relativ break condition  

   TIME   =   0.40     timestep for ELM

  volume/ion in A,a.u.               =       4.94        33.32
  Fermi-wavevector in a.u.,A,eV,Ry     =   1.526075  2.883863 31.686673  2.328905
  Thomas-Fermi vector in A             =   2.634158
 
 Write flags
   LWAVE        =      F    write WAVECAR
   LDOWNSAMPLE  =      F    k-point downsampling of WAVECAR
   LCHARG       =      F    write CHGCAR
   LVTOT        =      F    write LOCPOT, total local potential
   LVHAR        =      F    write LOCPOT, Hartree potential only
   LELF         =      F    write electronic localiz. function (ELF)
   LORBIT       =      0    0 simple, 1 ext, 2 COOP (PROOUT), +10 PAW based schemes


 Dipole corrections
   LMONO  =      F    monopole corrections only (constant potential shift)
   LDIPOL =      F    correct potential (dipole corrections)
   IDIPOL =      0    1-x, 2-y, 3-z, 4-all directions 
   EPSILON=  1.0000000 bulk dielectric constant

 Exchange correlation treatment:
   GGA     =    --    GGA type
   LEXCH   =     8    internal setting for exchange type
   VOSKOWN=      0    Vosko Wilk Nusair interpolation
   LHFCALC =     F    Hartree Fock is set to
   LHFONE  =     F    Hartree Fock one center treatment
   AEXX    =    0.0000 exact exchange contribution

 Linear response parameters
   LEPSILON=     F    determine dielectric tensor
   LRPA    =     F    only Hartree local field effects (RPA)
   LNABLA  =     F    use nabla operator in PAW spheres
   LVEL    =     F    velocity operator in full k-point grid
   LINTERFAST=   F  fast interpolation
   KINTER  =     0    interpolate to denser k-point grid
   CSHIFT  =0.1000    complex shift for real part using Kramers Kronig
   OMEGAMAX=  -1.0    maximum frequency
   DEG_THRESHOLD= 0.2000000E-02 threshold for treating states as degnerate
   RTIME   =   -0.100 relaxation time in fs
  (WPLASMAI=    0.000 imaginary part of plasma frequency in eV, 0.658/RTIME)
   DFIELD  = 0.0000000 0.0000000 0.0000000 field for delta impulse in time
 
 Orbital magnetization related:
   ORBITALMAG=     F  switch on orbital magnetization
   LCHIMAG   =     F  perturbation theory with respect to B field
   DQ        =  0.001000  dq finite difference perturbation B field
   LLRAUG    =     F  two centre corrections for induced B field



--------------------------------------------------------------------------------------------------------


 linear response using symmetry
 charge density and potential will be updated during run
 non-spin polarized calculation
 Variant of blocked Davidson
 Davidson routine will perform the subspace rotation
 perform sub-space diagonalisation
    after iterative eigenvector-optimisation
 modified Broyden-mixing scheme, WC =      100.0
 initial mixing is a Kerker type mixing with AMIX =  0.4000 and BMIX =      1.0000
 Hartree-type preconditioning will be used
 using additional bands           64
 reciprocal scheme for non local part
 calculate Harris-corrections to forces 
   (improved forces if not selfconsistent)
 use gradient corrections 
 use of overlap-Matrix (Vanderbilt PP)
 Gauss-broadening in eV      SIGMA  =   0.06


--------------------------------------------------------------------------------------------------------


  energy-cutoff  :      400.00
  volume of cell :      316.04
      direct lattice vectors                 reciprocal lattice vectors
     6.811544886  0.000000000  0.000000000     0.146809574  0.000000000  0.000000000
     0.000000000  6.811544886  0.000000000     0.000000000  0.146809574  0.000000000
     0.000000000  0.000000000  6.811544886     0.000000000  0.000000000  0.146809574

  length of vectors
     6.811544886  6.811544886  6.811544886     0.146809574  0.146809574  0.146809574


 
 k-points in units of 2pi/SCALE and weight: kpt_density=3000                        
   0.00000000  0.00000000  0.00000000       0.005
   0.02446826  0.00000000  0.00000000       0.028
   0.04893652  0.00000000  0.00000000       0.028
   0.07340479  0.00000000  0.00000000       0.014
   0.02446826  0.02446826  0.00000000       0.056
   0.04893652  0.02446826  0.00000000       0.111
   0.07340479  0.02446826  0.00000000       0.056
   0.04893652  0.04893652  0.00000000       0.056
   0.07340479  0.04893652  0.00000000       0.056
   0.07340479  0.07340479  0.00000000       0.014
   0.02446826  0.02446826  0.02446826       0.037
   0.04893652  0.02446826  0.02446826       0.111
   0.07340479  0.02446826  0.02446826       0.056
   0.04893652  0.04893652  0.02446826       0.111
   0.07340479  0.04893652  0.02446826       0.111
   0.07340479  0.07340479  0.02446826       0.028
   0.04893652  0.04893652  0.04893652       0.037
   0.07340479  0.04893652  0.04893652       0.056
   0.07340479  0.07340479  0.04893652       0.028
   0.07340479  0.07340479  0.07340479       0.005
 
 k-points in reciprocal lattice and weights: kpt_density=3000                        
   0.00000000  0.00000000  0.00000000       0.005
   0.16666667  0.00000000  0.00000000       0.028
   0.33333333  0.00000000  0.00000000       0.028
   0.50000000  0.00000000  0.00000000       0.014
   0.16666667  0.16666667  0.00000000       0.056
   0.33333333  0.16666667  0.00000000       0.111
   0.50000000  0.16666667  0.00000000       0.056
   0.33333333  0.33333333  0.00000000       0.056
   0.50000000  0.33333333  0.00000000       0.056
   0.50000000  0.50000000  0.00000000       0.014
   0.16666667  0.16666667  0.16666667       0.037
   0.33333333  0.16666667  0.16666667       0.111
   0.50000000  0.16666667  0.16666667       0.056
   0.33333333  0.33333333  0.16666667       0.111
   0.50000000  0.33333333  0.16666667       0.111
   0.50000000  0.50000000  0.16666667       0.028
   0.33333333  0.33333333  0.33333333       0.037
   0.50000000  0.33333333  0.33333333       0.056
   0.50000000  0.50000000  0.33333333       0.028
   0.50000000  0.50000000  0.50000000       0.005
 
 position of ions in fractional coordinates (direct lattice) 
   0.12500000  0.37500000  0.12500000
   0.62500000  0.37500000  0.12500000
   0.12500000  0.87500000  0.12500000
   0.62500000  0.87500000  0.12500000
   0.12500000  0.37500000  0.62500000
   0.62500000  0.37500000  0.62500000
   0.12500000  0.87500000  0.62500000
   0.62500000  0.87500000  0.62500000
   0.00000000  0.00000000  0.25000000
   0.50000000  0.00000000  0.25000000
   0.00000000  0.50000000  0.25000000
   0.50000000  0.50000000  0.25000000
   0.00000000  0.00000000  0.75000000
   0.50000000  0.00000000  0.75000000
   0.00000000  0.50000000  0.75000000
   0.50000000  0.50000000  0.75000000
   0.12500000  0.12500000  0.37500000
   0.62500000  0.12500000  0.37500000
   0.12500000  0.62500000  0.37500000
   0.62500000  0.62500000  0.37500000
   0.12500000  0.12500000  0.87500000
   0.62500000  0.12500000  0.87500000
   0.12500000  0.62500000  0.87500000
   0.62500000  0.62500000  0.87500000
   0.00000000  0.25000000  0.00000000
   0.50000000  0.25000000  0.00000000
   0.00000000  0.75000000  0.00000000
   0.50000000  0.75000000  0.00000000
   0.00000000  0.25000000  0.50000000
   0.50000000  0.25000000  0.50000000
   0.00000000  0.75000000  0.50000000
   0.50000000  0.75000000  0.50000000
   0.37500000  0.37500000  0.37500000
   0.87500000  0.37500000  0.37500000
   0.37500000  0.87500000  0.37500000
   0.87500000  0.87500000  0.37500000
   0.37500000  0.37500000  0.87500000
   0.87500000  0.37500000  0.87500000
   0.37500000  0.87500000  0.87500000
   0.87500000  0.87500000  0.87500000
   0.25000000  0.00000000  0.00000000
   0.75000000  0.00000000  0.00000000
   0.25000000  0.50000000  0.00000000
   0.75000000  0.50000000  0.00000000
   0.25000000  0.00000000  0.50000000
   0.75000000  0.00000000  0.50000000
   0.25000000  0.50000000  0.50000000
   0.75000000  0.50000000  0.50000000
   0.37500000  0.12500000  0.12500000
   0.87500000  0.12500000  0.12500000
   0.37500000  0.62500000  0.12500000
   0.87500000  0.62500000  0.12500000
   0.37500000  0.12500000  0.62500000
   0.87500000  0.12500000  0.62500000
   0.37500000  0.62500000  0.62500000
   0.87500000  0.62500000  0.62500000
   0.25000000  0.25000000  0.25000000
   0.75000000  0.25000000  0.25000000
   0.25000000  0.75000000  0.25000000
   0.75000000  0.75000000  0.25000000
   0.25000000  0.25000000  0.75000000
   0.75000000  0.25000000  0.75000000
   0.25000000  0.75000000  0.75000000
   0.75000000  0.75000000  0.75000000
 
 position of ions in cartesian coordinates  (Angst):
   0.85144311  2.55432933  0.85144311
   4.25721555  2.55432933  0.85144311
   0.85144311  5.96010177  0.85144311
   4.25721555  5.96010177  0.85144311
   0.85144311  2.55432933  4.25721555
   4.25721555  2.55432933  4.25721555
   0.85144311  5.96010177  4.25721555
   4.25721555  5.96010177  4.25721555
   0.00000000  0.00000000  1.70288622
   3.40577244  0.00000000  1.70288622
   0.00000000  3.40577244  1.70288622
   3.40577244  3.40577244  1.70288622
   0.00000000  0.00000000  5.10865866
   3.40577244  0.00000000  5.10865866
   0.00000000  3.40577244  5.10865866
   3.40577244  3.40577244  5.10865866
   0.85144311  0.85144311  2.55432933
   4.25721555  0.85144311  2.55432933
   0.85144311  4.25721555  2.55432933
   4.25721555  4.25721555  2.55432933
   0.85144311  0.85144311  5.96010177
   4.25721555  0.85144311  5.96010177
   0.85144311  4.25721555  5.96010177
   4.25721555  4.25721555  5.96010177
   0.00000000  1.70288622  0.00000000
   3.40577244  1.70288622  0.00000000
   0.00000000  5.10865866  0.00000000
   3.40577244  5.10865866  0.00000000
   0.00000000  1.70288622  3.40577244
   3.40577244  1.70288622  3.40577244
   0.00000000  5.10865866  3.40577244
   3.40577244  5.10865866  3.40577244
   2.55432933  2.55432933  2.55432933
   5.96010177  2.55432933  2.55432933
   2.55432933  5.96010177  2.55432933
   5.96010177  5.96010177  2.55432933
   2.55432933  2.55432933  5.96010177
   5.96010177  2.55432933  5.96010177
   2.55432933  5.96010177  5.96010177
   5.96010177  5.96010177  5.96010177
   1.70288622  0.00000000  0.00000000
   5.10865866  0.00000000  0.00000000
   1.70288622  3.40577244  0.00000000
   5.10865866  3.40577244  0.00000000
   1.70288622  0.00000000  3.40577244
   5.10865866  0.00000000  3.40577244
   1.70288622  3.40577244  3.40577244
   5.10865866  3.40577244  3.40577244
   2.55432933  0.85144311  0.85144311
   5.96010177  0.85144311  0.85144311
   2.55432933  4.25721555  0.85144311
   5.96010177  4.25721555  0.85144311
   2.55432933  0.85144311  4.25721555
   5.96010177  0.85144311  4.25721555
   2.55432933  4.25721555  4.25721555
   5.96010177  4.25721555  4.25721555
   1.70288622  1.70288622  1.70288622
   5.10865866  1.70288622  1.70288622
   1.70288622  5.10865866  1.70288622
   5.10865866  5.10865866  1.70288622
   1.70288622  1.70288622  5.10865866
   5.10865866  1.70288622  5.10865866
   1.70288622  5.10865866  5.10865866
   5.10865866  5.10865866  5.10865866
 


--------------------------------------------------------------------------------------------------------


 k-point  1 :   0.0000 0.0000 0.0000  plane waves:    5743
 k-point  2 :   0.1667 0.0000 0.0000  plane waves:    5750
 k-point  3 :   0.3333 0.0000 0.0000  plane waves:    5730
 k-point  4 :   0.5000 0.0000 0.0000  plane waves:    5750
 k-point  5 :   0.1667 0.1667 0.0000  plane waves:    5730
 k-point  6 :   0.3333 0.1667 0.0000  plane waves:    5735
 k-point  7 :   0.5000 0.1667 0.0000  plane waves:    5732
 k-point  8 :   0.3333 0.3333 0.0000  plane waves:    5754
 k-point  9 :   0.5000 0.3333 0.0000  plane waves:    5762
 k-point 10 :   0.5000 0.5000 0.0000  plane waves:    5712
 k-point 11 :   0.1667 0.1667 0.1667  plane waves:    5731
 k-point 12 :   0.3333 0.1667 0.1667  plane waves:    5730
 k-point 13 :   0.5000 0.1667 0.1667  plane waves:    5712
 k-point 14 :   0.3333 0.3333 0.1667  plane waves:    5741
 k-point 15 :   0.5000 0.3333 0.1667  plane waves:    5744
 k-point 16 :   0.5000 0.5000 0.1667  plane waves:    5748
 k-point 17 :   0.3333 0.3333 0.3333  plane waves:    5770
 k-point 18 :   0.5000 0.3333 0.3333  plane waves:    5748
 k-point 19 :   0.5000 0.5000 0.3333  plane waves:    5740
 k-point 20 :   0.5000 0.5000 0.5000  plane waves:    5832

 maximum and minimum number of plane-waves per node :      5832     5712

 maximum number of plane-waves:      5832
 maximum index in each direction: 
   IXMAX=   11   IYMAX=   11   IZMAX=   11
   IXMIN=  -11   IYMIN=  -11   IZMIN=  -11


 serial   3D FFT for wavefunctions
 parallel 3D FFT for charge:
    minimum data exchange during FFTs selected (reduces bandwidth)


 total amount of memory used by VASP MPI-rank0    66257. kBytes
=======================================================================

   base      :      30000. kBytes
   nonl-proj :      13492. kBytes
   fftplans  :       4537. kBytes
   grid      :       5806. kBytes
   one-center:        196. kBytes
   wavefun   :      12226. kBytes
 
     INWAV:  cpu time    0.0004: real time    0.0005
 Broyden mixing: mesh for mixing (old mesh)
   NGX = 23   NGY = 23   NGZ = 23
  (NGX  = 96   NGY  = 96   NGZ  = 96)
  gives a total of  12167 points

 initial charge density was supplied:
 charge density of overlapping atoms calculated
 number of electron     256.0000000 magnetization 
 keeping initial charge density in first step


--------------------------------------------------------------------------------------------------------


 Maximum index for augmentation-charges         1217 (set IRDMAX)


--------------------------------------------------------------------------------------------------------


 First call to EWALD:  gamma=   0.260
 Maximum number of real-space cells 3x 3x 3
 Maximum number of reciprocal cells 3x 3x 3

    FEWALD:  cpu time    0.0102: real time    0.0102


--------------------------------------- Iteration      1(   1)  ---------------------------------------


    POTLOK:  cpu time    0.0652: real time    0.2035
    SETDIJ:  cpu time    0.0455: real time    0.0457
     EDDAV:  cpu time   12.6018: real time   12.6233
       DOS:  cpu time    0.0060: real time    0.0060
    --------------------------------------------
      LOOP:  cpu time   12.7186: real time   12.8786

 eigenvalue-minimisations  :  7680
 total energy-change (2. order) : 0.5400519E+03  (-0.1162004E+05)
 number of electron     256.0000000 magnetization 
 augmentation part      256.0000000 magnetization 

 Free energy of the ion-electron system (eV)
  ---------------------------------------------------
  alpha Z        PSCENC =      1056.02688283
  Ewald energy   TEWEN  =    -11661.14452602
  -Hartree energ DENC   =      -470.89321884
  -exchange      EXHF   =         0.00000000
  -V(xc)+E(xc)   XCENC  =       944.61011757
  PAW double counting   =      2421.21235816    -2494.84305711
  entropy T*S    EENTRO =        -0.00593094
  eigenvalues    EBANDS =      1328.94699018
  atomic energy  EATOM  =      9416.14232778
  Solvation  Ediel_sol  =         0.00000000
  ---------------------------------------------------
  free energy    TOTEN  =       540.05194360 eV

  energy without entropy =      540.05787454  energy(sigma->0) =      540.05490907


--------------------------------------------------------------------------------------------------------




--------------------------------------- Iteration      1(   2)  ---------------------------------------


     EDDAV:  cpu time   16.4711: real time   16.4723
       DOS:  cpu time    0.0031: real time    0.0031
    --------------------------------------------
      LOOP:  cpu time   16.4742: real time   16.4754

 eigenvalue-minimisations  : 10016
 total energy-change (2. order) :-0.1101869E+04  (-0.1055226E+04)
 number of electron     256.0000000 magnetization 
 augmentation part      256.0000000 magnetization 

 Free energy of the ion-electron system (eV)
  ---------------------------------------------------
  alpha Z        PSCENC =      1056.02688283
  Ewald energy   TEWEN  =    -11661.14452602
  -Hartree energ DENC   =      -470.89321884
  -exchange      EXHF   =         0.00000000
  -V(xc)+E(xc)   XCENC  =       944.61011757
  PAW double counting   =      2421.21235816    -2494.84305711
  entropy T*S    EENTRO =        -0.00000000
  eigenvalues    EBANDS =       227.07170899
  atomic energy  EATOM  =      9416.14232778
  Solvation  Ediel_sol  =         0.00000000
  ---------------------------------------------------
  free energy    TOTEN  =      -561.81740665 eV

  energy without entropy =     -561.81740665  energy(sigma->0) =     -561.81740665


--------------------------------------------------------------------------------------------------------




--------------------------------------- Iteration      1(   3)  ---------------------------------------


     EDDAV:  cpu time   16.5307: real time   16.5317
       DOS:  cpu time    0.0028: real time    0.0028
    --------------------------------------------
      LOOP:  cpu time   16.5335: real time   16.5345

 eigenvalue-minimisations  : 10112
 total energy-change (2. order) :-0.3882312E+02  (-0.3862964E+02)
 number of electron     256.0000000 magnetization 
 augmentation part      256.0000000 magnetization 

 Free energy of the ion-electron system (eV)
  ---------------------------------------------------
  alpha Z        PSCENC =      1056.02688283
  Ewald energy   TEWEN  =    -11661.14452602
  -Hartree energ DENC   =      -470.89321884
  -exchange      EXHF   =         0.00000000
  -V(xc)+E(xc)   XCENC  =       944.61011757
  PAW double counting   =      2421.21235816    -2494.84305711
  entropy T*S    EENTRO =        -0.00000000
  eigenvalues    EBANDS =       188.24859108
  atomic energy  EATOM  =      9416.14232778
  Solvation  Ediel_sol  =         0.00000000
  ---------------------------------------------------
  free energy    TOTEN  =      -600.64052456 eV

  energy without entropy =     -600.64052456  energy(sigma->0) =     -600.64052456


--------------------------------------------------------------------------------------------------------




--------------------------------------- Iteration      1(   4)  ---------------------------------------


     EDDAV:  cpu time   15.6542: real time   15.6550
       DOS:  cpu time    0.0030: real time    0.0030
    --------------------------------------------
      LOOP:  cpu time   15.6572: real time   15.6580

 eigenvalue-minimisations  :  9888
 total energy-change (2. order) :-0.3333492E+00  (-0.3327688E+00)
 number of electron     256.0000000 magnetization 
 augmentation part      256.0000000 magnetization 

 Free energy of the ion-electron system (eV)
  ---------------------------------------------------
  alpha Z        PSCENC =      1056.02688283
  Ewald energy   TEWEN  =    -11661.14452602
  -Hartree energ DENC   =      -470.89321884
  -exchange      EXHF   =         0.00000000
  -V(xc)+E(xc)   XCENC  =       944.61011757
  PAW double counting   =      2421.21235816    -2494.84305711
  entropy T*S    EENTRO =        -0.00000000
  eigenvalues    EBANDS =       187.91524190
  atomic energy  EATOM  =      9416.14232778
  Solvation  Ediel_sol  =         0.00000000
  ---------------------------------------------------
  free energy    TOTEN  =      -600.97387374 eV

  energy without entropy =     -600.97387374  energy(sigma->0) =     -600.97387374


--------------------------------------------------------------------------------------------------------




--------------------------------------- Iteration      1(   5)  ---------------------------------------


     EDDAV:  cpu time   15.2623: real time   15.2631
       DOS:  cpu time    0.0030: real time    0.0030
    CHARGE:  cpu time    0.5247: real time    0.5249
    MIXING:  cpu time    0.0041: real time    0.0041
    --------------------------------------------
      LOOP:  cpu time   15.7941: real time   15.7951

 eigenvalue-minimisations  :  9600
 total energy-change (2. order) :-0.5881694E-02  (-0.5879758E-02)
 number of electron     255.9999994 magnetization 
 augmentation part        7.2470128 magnetization 

 Broyden mixing:
  rms(total) = 0.31730E+01    rms(broyden)= 0.31724E+01
  rms(prec ) = 0.47358E+01
  weight for this iteration     100.00

 Free energy of the ion-electron system (eV)
  ---------------------------------------------------
  alpha Z        PSCENC =      1056.02688283
  Ewald energy   TEWEN  =    -11661.14452602
  -Hartree energ DENC   =      -470.89321884
  -exchange      EXHF   =         0.00000000
  -V(xc)+E(xc)   XCENC  =       944.61011757
  PAW double counting   =      2421.21235816    -2494.84305711
  entropy T*S    EENTRO =        -0.00000000
  eigenvalues    EBANDS =       187.90936021
  atomic energy  EATOM  =      9416.14232778
  Solvation  Ediel_sol  =         0.00000000
  ---------------------------------------------------
  free energy    TOTEN  =      -600.97975544 eV

  energy without entropy =     -600.97975544  energy(sigma->0) =     -600.97975544


--------------------------------------------------------------------------------------------------------




--------------------------------------- Iteration      1(   6)  ---------------------------------------


    POTLOK:  cpu time    0.0580: real time    0.0580
    SETDIJ:  cpu time    0.0432: real time    0.0432
     EDDAV:  cpu time   14.5164: real time   14.5172
       DOS:  cpu time    0.0028: real time    0.0028
    CHARGE:  cpu time    0.5160: real time    0.5160
    MIXING:  cpu time    0.0041: real time    0.0041
    --------------------------------------------
      LOOP:  cpu time   15.1405: real time   15.1413

 eigenvalue-minimisations  :  8960
 total energy-change (2. order) : 0.2250210E+02  (-0.1442862E+01)
 number of electron     255.9999994 magnetization 
 augmentation part        7.0586885 magnetization 

 Broyden mixing:
  rms(total) = 0.17052E+01    rms(broyden)= 0.17052E+01
  rms(prec ) = 0.25302E+01
  weight for this iteration     100.00

 eigenvalues of (default mixing * dielectric matrix)
  average eigenvalue GAMMA=   2.1258
  2.1258

 Free energy of the ion-electron system (eV)
  ---------------------------------------------------
  alpha Z        PSCENC =      1056.02688283
  Ewald energy   TEWEN  =    -11661.14452602
  -Hartree energ DENC   =      -606.08773854
  -exchange      EXHF   =         0.00000000
  -V(xc)+E(xc)   XCENC  =       957.44172498
  PAW double counting   =      3382.42962686    -3462.04622786
  entropy T*S    EENTRO =        -0.00000000
  eigenvalues    EBANDS =       338.76027696
  atomic energy  EATOM  =      9416.14232778
  Solvation  Ediel_sol  =         0.00000000
  ---------------------------------------------------
  free energy    TOTEN  =      -578.47765301 eV

  energy without entropy =     -578.47765301  energy(sigma->0) =     -578.47765301


--------------------------------------------------------------------------------------------------------




--------------------------------------- Iteration      1(   7)  ---------------------------------------


    POTLOK:  cpu time    0.0600: real time    0.0600
    SETDIJ:  cpu time    0.0442: real time    0.0442
     EDDAV:  cpu time   14.9957: real time   14.9965
       DOS:  cpu time    0.0028: real time    0.0028
    CHARGE:  cpu time    0.5153: real time    0.5154
    MIXING:  cpu time    0.0049: real time    0.0049
    --------------------------------------------
      LOOP:  cpu time   15.6229: real time   15.6237

 eigenvalue-minimisations  :  9376
 total energy-change (2. order) : 0.7555486E+01  (-0.1585482E+01)
 number of electron     255.9999995 magnetization 
 augmentation part        6.8602252 magnetization 

 Broyden mixing:
  rms(total) = 0.20603E+00    rms(broyden)= 0.20511E+00
  rms(prec ) = 0.25286E+00
  weight for this iteration     100.00

 eigenvalues of (default mixing * dielectric matrix)
  average eigenvalue GAMMA=   2.2748
  2.0117  2.5378

 Free energy of the ion-electron system (eV)
  ---------------------------------------------------
  alpha Z        PSCENC =      1056.02688283
  Ewald energy   TEWEN  =    -11661.14452602
  -Hartree energ DENC   =      -779.36873462
  -exchange      EXHF   =         0.00000000
  -V(xc)+E(xc)   XCENC  =       973.97546128
  PAW double counting   =      4727.93718377    -4813.30457936
  entropy T*S    EENTRO =        -0.00000000
  eigenvalues    EBANDS =       508.81381734
  atomic energy  EATOM  =      9416.14232778
  Solvation  Ediel_sol  =         0.00000000
  ---------------------------------------------------
  free energy    TOTEN  =      -570.92216701 eV

  energy without entropy =     -570.92216701  energy(sigma->0) =     -570.92216701


--------------------------------------------------------------------------------------------------------




--------------------------------------- Iteration      1(   8)  ---------------------------------------


    POTLOK:  cpu time    0.0594: real time    0.0594
    SETDIJ:  cpu time    0.0434: real time    0.0434
     EDDAV:  cpu time   14.8633: real time   14.8641
       DOS:  cpu time    0.0030: real time    0.0030
    CHARGE:  cpu time    0.5152: real time    0.5152
    MIXING:  cpu time    0.0045: real time    0.0045
    --------------------------------------------
      LOOP:  cpu time   15.4888: real time   15.4896

 eigenvalue-minimisations  :  9280
 total energy-change (2. order) :-0.7615685E-01  (-0.3357494E-01)
 number of electron     255.9999995 magnetization 
 augmentation part        6.8639709 magnetization 

 Broyden mixing:
  rms(total) = 0.24537E-01    rms(broyden)= 0.24212E-01
  rms(prec ) = 0.29843E-01
  weight for this iteration     100.00

 eigenvalues of (default mixing * dielectric matrix)
  average eigenvalue GAMMA=   2.1041
  1.4505  2.7140  2.1478

 Free energy of the ion-electron system (eV)
  ---------------------------------------------------
  alpha Z        PSCENC =      1056.02688283
  Ewald energy   TEWEN  =    -11661.14452602
  -Hartree energ DENC   =      -783.88846619
  -exchange      EXHF   =         0.00000000
  -V(xc)+E(xc)   XCENC  =       974.45450057
  PAW double counting   =      4867.03077273    -4951.29728744
  entropy T*S    EENTRO =        -0.00000000
  eigenvalues    EBANDS =       511.67747188
  atomic energy  EATOM  =      9416.14232778
  Solvation  Ediel_sol  =         0.00000000
  ---------------------------------------------------
  free energy    TOTEN  =      -570.99832386 eV

  energy without entropy =     -570.99832386  energy(sigma->0) =     -570.99832386


--------------------------------------------------------------------------------------------------------




--------------------------------------- Iteration      1(   9)  ---------------------------------------


    POTLOK:  cpu time    0.0575: real time    0.0575
    SETDIJ:  cpu time    0.0435: real time    0.0435
     EDDAV:  cpu time   16.6328: real time   16.6337
       DOS:  cpu time    0.0028: real time    0.0028
    CHARGE:  cpu time    0.5161: real time    0.5162
    MIXING:  cpu time    0.0059: real time    0.0059
    --------------------------------------------
      LOOP:  cpu time   17.2585: real time   17.2595

 eigenvalue-minimisations  :  9920
 total energy-change (2. order) :-0.1982035E-02  (-0.3564919E-03)
 number of electron     255.9999995 magnetization 
 augmentation part        6.8634657 magnetization 

 Broyden mixing:
  rms(total) = 0.85947E-02    rms(broyden)= 0.85681E-02
  rms(prec ) = 0.10776E-01
  weight for this iteration     100.00

 eigenvalues of (default mixing * dielectric matrix)
  average eigenvalue GAMMA=   2.0215
  0.9641  2.7264  2.4037  1.9919

 Free energy of the ion-electron system (eV)
  ---------------------------------------------------
  alpha Z        PSCENC =      1056.02688283
  Ewald energy   TEWEN  =    -11661.14452602
  -Hartree energ DENC   =      -783.29263953
  -exchange      EXHF   =         0.00000000
  -V(xc)+E(xc)   XCENC  =       974.39844922
  PAW double counting   =      4865.07055422    -4949.20269105
  entropy T*S    EENTRO =        -0.00000000
  eigenvalues    EBANDS =       511.00133666
  atomic energy  EATOM  =      9416.14232778
  Solvation  Ediel_sol  =         0.00000000
  ---------------------------------------------------
  free energy    TOTEN  =      -571.00030589 eV

  energy without entropy =     -571.00030589  energy(sigma->0) =     -571.00030589


--------------------------------------------------------------------------------------------------------




--------------------------------------- Iteration      1(  10)  ---------------------------------------


    POTLOK:  cpu time    0.0631: real time    0.0631
    SETDIJ:  cpu time    0.0435: real time    0.0435
     EDDAV:  cpu time   15.6236: real time   15.6244
       DOS:  cpu time    0.0028: real time    0.0028
    CHARGE:  cpu time    0.5168: real time    0.5168
    MIXING:  cpu time    0.0051: real time    0.0051
    --------------------------------------------
      LOOP:  cpu time   16.2547: real time   16.2556

 eigenvalue-minimisations  :  9184
 total energy-change (2. order) :-0.3794317E-03  (-0.2946377E-04)
 number of electron     255.9999995 magnetization 
 augmentation part        6.8631797 magnetization 

 Broyden mixing:
  rms(total) = 0.88499E-03    rms(broyden)= 0.86967E-03
  rms(prec ) = 0.13043E-02
  weight for this iteration     100.00

 eigenvalues of (default mixing * dielectric matrix)
  average eigenvalue GAMMA=   1.9411
  2.9063  2.5503  2.0575  0.9931  1.1982

 Free energy of the ion-electron system (eV)
  ---------------------------------------------------
  alpha Z        PSCENC =      1056.02688283
  Ewald energy   TEWEN  =    -11661.14452602
  -Hartree energ DENC   =      -783.63931252
  -exchange      EXHF   =         0.00000000
  -V(xc)+E(xc)   XCENC  =       974.42774861
  PAW double counting   =      4859.33044191    -4943.47643142
  entropy T*S    EENTRO =        -0.00000000
  eigenvalues    EBANDS =       511.33218351
  atomic energy  EATOM  =      9416.14232778
  Solvation  Ediel_sol  =         0.00000000
  ---------------------------------------------------
  free energy    TOTEN  =      -571.00068533 eV

  energy without entropy =     -571.00068533  energy(sigma->0) =     -571.00068533


--------------------------------------------------------------------------------------------------------




--------------------------------------- Iteration      1(  11)  ---------------------------------------


    POTLOK:  cpu time    0.0564: real time    0.0564
    SETDIJ:  cpu time    0.0442: real time    0.0442
     EDDAV:  cpu time   17.1209: real time   17.1218
       DOS:  cpu time    0.0039: real time    0.0039
    CHARGE:  cpu time    0.5505: real time    0.5506
    MIXING:  cpu time    0.0053: real time    0.0053
    --------------------------------------------
      LOOP:  cpu time   17.7812: real time   17.7822

 eigenvalue-minimisations  :  9856
 total energy-change (2. order) :-0.7994848E-05  (-0.9564940E-06)
 number of electron     255.9999995 magnetization 
 augmentation part        6.8630354 magnetization 

 Broyden mixing:
  rms(total) = 0.19436E-03    rms(broyden)= 0.18936E-03
  rms(prec ) = 0.24498E-03
  weight for this iteration     100.00

 eigenvalues of (default mixing * dielectric matrix)
  average eigenvalue GAMMA=   1.9971
  2.9212  2.5655  2.4666  2.0359  0.9967  0.9967

 Free energy of the ion-electron system (eV)
  ---------------------------------------------------
  alpha Z        PSCENC =      1056.02688283
  Ewald energy   TEWEN  =    -11661.14452602
  -Hartree energ DENC   =      -783.75227898
  -exchange      EXHF   =         0.00000000
  -V(xc)+E(xc)   XCENC  =       974.43812752
  PAW double counting   =      4859.38275067    -4943.53270879
  entropy T*S    EENTRO =        -0.00000000
  eigenvalues    EBANDS =       511.43873168
  atomic energy  EATOM  =      9416.14232778
  Solvation  Ediel_sol  =         0.00000000
  ---------------------------------------------------
  free energy    TOTEN  =      -571.00069332 eV

  energy without entropy =     -571.00069332  energy(sigma->0) =     -571.00069332


--------------------------------------------------------------------------------------------------------




--------------------------------------- Iteration      1(  12)  ---------------------------------------


    POTLOK:  cpu time    0.0608: real time    0.0608
    SETDIJ:  cpu time    0.0432: real time    0.0432
     EDDAV:  cpu time   16.1492: real time   16.1500
       DOS:  cpu time    0.0032: real time    0.0032
    CHARGE:  cpu time    0.5142: real time    0.5142
    MIXING:  cpu time    0.0053: real time    0.0053
    --------------------------------------------
      LOOP:  cpu time   16.7759: real time   16.7768

 eigenvalue-minimisations  :  9664
 total energy-change (2. order) : 0.5148140E-06  (-0.1536424E-07)
 number of electron     255.9999995 magnetization 
 augmentation part        6.8630401 magnetization 

 Broyden mixing:
  rms(total) = 0.32130E-04    rms(broyden)= 0.31176E-04
  rms(prec ) = 0.48243E-04
  weight for this iteration     100.00

 eigenvalues of (default mixing * dielectric matrix)
  average eigenvalue GAMMA=   1.9243
  2.8811  2.6853  2.5119  2.0497  0.9924  1.0134  1.3365

 Free energy of the ion-electron system (eV)
  ---------------------------------------------------
  alpha Z        PSCENC =      1056.02688283
  Ewald energy   TEWEN  =    -11661.14452602
  -Hartree energ DENC   =      -783.74213182
  -exchange      EXHF   =         0.00000000
  -V(xc)+E(xc)   XCENC  =       974.43720923
  PAW double counting   =      4859.52388386    -4943.67298739
  entropy T*S    EENTRO =        -0.00000000
  eigenvalues    EBANDS =       511.42864873
  atomic energy  EATOM  =      9416.14232778
  Solvation  Ediel_sol  =         0.00000000
  ---------------------------------------------------
  free energy    TOTEN  =      -571.00069281 eV

  energy without entropy =     -571.00069281  energy(sigma->0) =     -571.00069281


--------------------------------------------------------------------------------------------------------




--------------------------------------- Iteration      1(  13)  ---------------------------------------


    POTLOK:  cpu time    0.0568: real time    0.0568
    SETDIJ:  cpu time    0.0442: real time    0.0442
     EDDAV:  cpu time   12.9069: real time   12.9076
       DOS:  cpu time    0.0028: real time    0.0028
    CHARGE:  cpu time    0.5169: real time    0.5170
    MIXING:  cpu time    0.0057: real time    0.0057
    --------------------------------------------
      LOOP:  cpu time   13.5333: real time   13.5341

 eigenvalue-minimisations  :  7328
 total energy-change (2. order) : 0.2590059E-07  (-0.5475252E-09)
 number of electron     255.9999995 magnetization 
 augmentation part        6.8630415 magnetization 

 Broyden mixing:
  rms(total) = 0.35747E-05    rms(broyden)= 0.33255E-05
  rms(prec ) = 0.40787E-05
  weight for this iteration     100.00

 eigenvalues of (default mixing * dielectric matrix)
  average eigenvalue GAMMA=   1.9506
  2.8909  2.0415  2.6514  2.5239  2.5239  1.0028  0.9997  0.9709

 Free energy of the ion-electron system (eV)
  ---------------------------------------------------
  alpha Z        PSCENC =      1056.02688283
  Ewald energy   TEWEN  =    -11661.14452602
  -Hartree energ DENC   =      -783.73837774
  -exchange      EXHF   =         0.00000000
  -V(xc)+E(xc)   XCENC  =       974.43685649
  PAW double counting   =      4859.51405035    -4943.66296098
  entropy T*S    EENTRO =        -0.00000000
  eigenvalues    EBANDS =       511.42505451
  atomic energy  EATOM  =      9416.14232778
  Solvation  Ediel_sol  =         0.00000000
  ---------------------------------------------------
  free energy    TOTEN  =      -571.00069278 eV

  energy without entropy =     -571.00069278  energy(sigma->0) =     -571.00069278


--------------------------------------------------------------------------------------------------------




--------------------------------------- Iteration      1(  14)  ---------------------------------------


    POTLOK:  cpu time    0.0596: real time    0.0596
    SETDIJ:  cpu time    0.0547: real time    0.0547
     EDDAV:  cpu time   11.2995: real time   11.3001
       DOS:  cpu time    0.0028: real time    0.0028
    CHARGE:  cpu time    0.5175: real time    0.5175
    MIXING:  cpu time    0.0057: real time    0.0057
    --------------------------------------------
      LOOP:  cpu time   11.9401: real time   11.9407

 eigenvalue-minimisations  :  5952
 total energy-change (2. order) :-0.3335663E-07  (-0.5567168E-10)
 number of electron     255.9999995 magnetization 
 augmentation part        6.8630422 magnetization 

 Broyden mixing:
  rms(total) = 0.27640E-05    rms(broyden)= 0.27594E-05
  rms(prec ) = 0.36924E-05
  weight for this iteration     100.00

 eigenvalues of (default mixing * dielectric matrix)
  average eigenvalue GAMMA=   1.8722
  2.8542  2.8542  2.0468  2.5226  2.5226  1.0812  1.0363  0.9660  0.9660

 Free energy of the ion-electron system (eV)
  ---------------------------------------------------
  alpha Z        PSCENC =      1056.02688283
  Ewald energy   TEWEN  =    -11661.14452602
  -Hartree energ DENC   =      -783.73797551
  -exchange      EXHF   =         0.00000000
  -V(xc)+E(xc)   XCENC  =       974.43681942
  PAW double counting   =      4859.50723204    -4943.65612084
  entropy T*S    EENTRO =        -0.00000000
  eigenvalues    EBANDS =       511.42466750
  atomic energy  EATOM  =      9416.14232778
  Solvation  Ediel_sol  =         0.00000000
  ---------------------------------------------------
  free energy    TOTEN  =      -571.00069281 eV

  energy without entropy =     -571.00069281  energy(sigma->0) =     -571.00069281


--------------------------------------------------------------------------------------------------------




--------------------------------------- Iteration      1(  15)  ---------------------------------------


    POTLOK:  cpu time    0.0584: real time    0.0584
    SETDIJ:  cpu time    0.0513: real time    0.0513
     EDDAV:  cpu time   11.0911: real time   11.0917
       DOS:  cpu time    0.0029: real time    0.0029
    --------------------------------------------
      LOOP:  cpu time   11.2036: real time   11.2041

 eigenvalue-minimisations  :  5760
 total energy-change (2. order) :-0.8749339E-09  (-0.4809821E-11)
 number of electron     255.9999995 magnetization 
 augmentation part        6.8630422 magnetization 

 Free energy of the ion-electron system (eV)
  ---------------------------------------------------
  alpha Z        PSCENC =      1056.02688283
  Ewald energy   TEWEN  =    -11661.14452602
  -Hartree energ DENC   =      -783.73816049
  -exchange      EXHF   =         0.00000000
  -V(xc)+E(xc)   XCENC  =       974.43683663
  PAW double counting   =      4859.50812874    -4943.65703641
  entropy T*S    EENTRO =        -0.00000000
  eigenvalues    EBANDS =       511.42485413
  atomic energy  EATOM  =      9416.14232778
  Solvation  Ediel_sol  =         0.00000000
  ---------------------------------------------------
  free energy    TOTEN  =      -571.00069281 eV

  energy without entropy =     -571.00069281  energy(sigma->0) =     -571.00069281


--------------------------------------------------------------------------------------------------------




 average (electrostatic) potential at core
  the test charge radii are     0.6991
  (the norm of the test charge is              1.0000)
       1 -43.3137       2 -43.3137       3 -43.3137       4 -43.3137       5 -43.3137
       6 -43.3137       7 -43.3137       8 -43.3137       9 -43.3137      10 -43.3137
      11 -43.3137      12 -43.3137      13 -43.3137      14 -43.3137      15 -43.3137
      16 -43.3137      17 -43.3137      18 -43.3137      19 -43.3137      20 -43.3137
      21 -43.3137      22 -43.3137      23 -43.3137      24 -43.3137      25 -43.3137
      26 -43.3137      27 -43.3137      28 -43.3137      29 -43.3137      30 -43.3137
      31 -43.3137      32 -43.3137      33 -43.3137      34 -43.3137      35 -43.3137
      36 -43.3137      37 -43.3137      38 -43.3137      39 -43.3137      40 -43.3137
      41 -43.3137      42 -43.3137      43 -43.3137      44 -43.3137      45 -43.3137
      46 -43.3137      47 -43.3137      48 -43.3137      49 -43.3137      50 -43.3137
      51 -43.3137      52 -43.3137      53 -43.3137      54 -43.3137      55 -43.3137
      56 -43.3137      57 -43.3137      58 -43.3137      59 -43.3137      60 -43.3137
      61 -43.3137      62 -43.3137      63 -43.3137      64 -43.3137
 
 
 
 E-fermi :  12.1820     XC(G=0): -13.9277     alpha+bet :-20.3298


 k-point     1 :       0.0000    0.0000    0.0000
  band No.  band energies     occupation 
      1     -11.5605      2.00000
      2      -9.0505      2.00000
      3      -9.0505      2.00000
      4      -9.0505      2.00000
      5      -9.0505      2.00000
      6      -9.0505      2.00000
      7      -9.0505      2.00000
      8      -6.6237      2.00000
      9      -6.6237      2.00000
     10      -6.6237      2.00000
     11      -6.6237      2.00000
     12      -6.6237      2.00000
     13      -6.6237      2.00000
     14      -6.6237      2.00000
     15      -6.6237      2.00000
     16      -6.6237      2.00000
     17      -6.6237      2.00000
     18      -6.6237      2.00000
     19      -6.6237      2.00000
     20      -4.9418      2.00000
     21      -4.9418      2.00000
     22      -4.9418      2.00000
     23      -4.9418      2.00000
     24      -3.1360      2.00000
     25      -3.1360      2.00000
     26      -3.1360      2.00000
     27      -3.1360      2.00000
     28      -1.9379      2.00000
     29      -1.9379      2.00000
     30      -1.9379      2.00000
     31      -1.9379      2.00000
     32      -1.9379      2.00000
     33      -1.9379      2.00000
     34      -0.8947      2.00000
     35      -0.8947      2.00000
     36      -0.8947      2.00000
     37      -0.8947      2.00000
     38      -0.8947      2.00000
     39      -0.8947      2.00000
     40      -0.8947      2.00000
     41      -0.8947      2.00000
     42      -0.8947      2.00000
     43      -0.8947      2.00000
     44      -0.8947      2.00000
     45      -0.8947      2.00000
     46       2.2789      2.00000
     47       2.2789      2.00000
     48       2.2789      2.00000
     49       2.2789      2.00000
     50       2.2789      2.00000
     51       2.2789      2.00000
     52       2.2789      2.00000
     53       2.2789      2.00000
     54       2.2789      2.00000
[...]
      4.257216  0.851443  5.960102    -0.139499   -0.112204   -0.058498  
      0.851443  4.257216  5.960102    -0.139499   -0.112204   -0.058498  
      4.257216  4.257216  5.960102     0.139499    0.112204    0.058498  
      0.000000  1.702886  0.000000    -0.012412   -0.014964    0.033754  
      3.405772  1.702886  0.000000     0.012412    0.014964   -0.033754  
      0.000000  5.108659  0.000000     0.012412    0.014964   -0.033754  
      3.405772  5.108659  0.000000    -0.012412   -0.014964    0.033754  
      0.000000  1.702886  3.405772     0.012412    0.014964   -0.033754  
      3.405772  1.702886  3.405772    -0.012412   -0.014964    0.033754  
      0.000000  5.108659  3.405772    -0.012412   -0.014964    0.033754  
      3.405772  5.108659  3.405772     0.012412    0.014964   -0.033754  
      2.554329  2.554329  2.554329    -0.066867   -0.114774   -0.011601  
      5.960102  2.554329  2.554329     0.066867    0.114774    0.011601  
      2.554329  5.960102  2.554329     0.066867    0.114774    0.011601  
      5.960102  5.960102  2.554329    -0.066867   -0.114774   -0.011601  
      2.554329  2.554329  5.960102     0.066867    0.114774    0.011601  
      5.960102  2.554329  5.960102    -0.066867   -0.114774   -0.011601  
      2.554329  5.960102  5.960102    -0.066867   -0.114774   -0.011601  
      5.960102  5.960102  5.960102     0.066867    0.114774    0.011601  
      1.702886  0.000000  0.000000     0.085045    0.012394    0.013143  
      5.108659  0.000000  0.000000    -0.085045   -0.012394   -0.013143  
      1.702886  3.405772  0.000000    -0.085045   -0.012394   -0.013143  
      5.108659  3.405772  0.000000     0.085045    0.012394    0.013143  
      1.702886  0.000000  3.405772    -0.085045   -0.012394   -0.013143  
      5.108659  0.000000  3.405772     0.085045    0.012394    0.013143  
      1.702886  3.405772  3.405772     0.085045    0.012394    0.013143  
      5.108659  3.405772  3.405772    -0.085045   -0.012394   -0.013143  
      2.554329  0.851443  0.851443     0.075533    0.010323    0.024726  
      5.960102  0.851443  0.851443    -0.075533   -0.010323   -0.024726  
      2.554329  4.257216  0.851443    -0.075533   -0.010323   -0.024726  
      5.960102  4.257216  0.851443     0.075533    0.010323    0.024726  
      2.554329  0.851443  4.257216    -0.075533   -0.010323   -0.024726  
      5.960102  0.851443  4.257216     0.075533    0.010323    0.024726  
      2.554329  4.257216  4.257216     0.075533    0.010323    0.024726  
      5.960102  4.257216  4.257216    -0.075533   -0.010323   -0.024726  
      1.702886  1.702886  1.702886    -0.076378   -0.116845   -0.000018  
      5.108659  1.702886  1.702886     0.076378    0.116845    0.000018  
      1.702886  5.108659  1.702886     0.076378    0.116845    0.000018  
      5.108659  5.108659  1.702886    -0.076378   -0.116845   -0.000018  
      1.702886  1.702886  5.108659     0.076378    0.116845    0.000018  
      5.108659  1.702886  5.108659    -0.076378   -0.116845   -0.000018  
      1.702886  5.108659  5.108659    -0.076378   -0.116845   -0.000018  
      5.108659  5.108659  5.108659     0.076378    0.116845    0.000018  
 
 190 f  =    0.000005 THz     0.000032 2PiTHz    0.000172 cm-1     0.000021 meV
             X         Y         Z           dx          dy          dz
      0.851443  2.554329  0.851443     0.001747    0.001411    0.124980  
      4.257216  2.554329  0.851443     0.001747    0.001411    0.124980  
      0.851443  5.960102  0.851443     0.001747    0.001411    0.124980  
      4.257216  5.960102  0.851443     0.001747    0.001411    0.124980  
      0.851443  2.554329  4.257216     0.001747    0.001411    0.124980  
      4.257216  2.554329  4.257216     0.001747    0.001411    0.124980  
      0.851443  5.960102  4.257216     0.001747    0.001411    0.124980  
      4.257216  5.960102  4.257216     0.001747    0.001411    0.124980  
      0.000000  0.000000  1.702886     0.001747    0.001411    0.124980  
      3.405772  0.000000  1.702886     0.001747    0.001411    0.124980  
      0.000000  3.405772  1.702886     0.001747    0.001411    0.124980  
      3.405772  3.405772  1.702886     0.001747    0.001411    0.124980  
      0.000000  0.000000  5.108659     0.001747    0.001411    0.124980  
      3.405772  0.000000  5.108659     0.001747    0.001411    0.124980  
      0.000000  3.405772  5.108659     0.001747    0.001411    0.124980  
      3.405772  3.405772  5.108659     0.001747    0.001411    0.124980  
      0.851443  0.851443  2.554329     0.001747    0.001411    0.124980  
      4.257216  0.851443  2.554329     0.001747    0.001411    0.124980  
      0.851443  4.257216  2.554329     0.001747    0.001411    0.124980  
      4.257216  4.257216  2.554329     0.001747    0.001411    0.124980  
      0.851443  0.851443  5.960102     0.001747    0.001411    0.124980  
      4.257216  0.851443  5.960102     0.001747    0.001411    0.124980  
      0.851443  4.257216  5.960102     0.001747    0.001411    0.124980  
      4.257216  4.257216  5.960102     0.001747    0.001411    0.124980  
      0.000000  1.702886  0.000000     0.001747    0.001411    0.124980  
      3.405772  1.702886  0.000000     0.001747    0.001411    0.124980  
      0.000000  5.108659  0.000000     0.001747    0.001411    0.124980  
      3.405772  5.108659  0.000000     0.001747    0.001411    0.124980  
      0.000000  1.702886  3.405772     0.001747    0.001411    0.124980  
      3.405772  1.702886  3.405772     0.001747    0.001411    0.124980  
      0.000000  5.108659  3.405772     0.001747    0.001411    0.124980  
      3.405772  5.108659  3.405772     0.001747    0.001411    0.124980  
      2.554329  2.554329  2.554329     0.001747    0.001411    0.124980  
      5.960102  2.554329  2.554329     0.001747    0.001411    0.124980  
      2.554329  5.960102  2.554329     0.001747    0.001411    0.124980  
      5.960102  5.960102  2.554329     0.001747    0.001411    0.124980  
      2.554329  2.554329  5.960102     0.001747    0.001411    0.124980  
      5.960102  2.554329  5.960102     0.001747    0.001411    0.124980  
      2.554329  5.960102  5.960102     0.001747    0.001411    0.124980  
      5.960102  5.960102  5.960102     0.001747    0.001411    0.124980  
      1.702886  0.000000  0.000000     0.001747    0.001411    0.124980  
      5.108659  0.000000  0.000000     0.001747    0.001411    0.124980  
      1.702886  3.405772  0.000000     0.001747    0.001411    0.124980  
      5.108659  3.405772  0.000000     0.001747    0.001411    0.124980  
      1.702886  0.000000  3.405772     0.001747    0.001411    0.124980  
      5.108659  0.000000  3.405772     0.001747    0.001411    0.124980  
      1.702886  3.405772  3.405772     0.001747    0.001411    0.124980  
      5.108659  3.405772  3.405772     0.001747    0.001411    0.124980  
      2.554329  0.851443  0.851443     0.001747    0.001411    0.124980  
      5.960102  0.851443  0.851443     0.001747    0.001411    0.124980  
      2.554329  4.257216  0.851443     0.001747    0.001411    0.124980  
      5.960102  4.257216  0.851443     0.001747    0.001411    0.124980  
      2.554329  0.851443  4.257216     0.001747    0.001411    0.124980  
      5.960102  0.851443  4.257216     0.001747    0.001411    0.124980  
      2.554329  4.257216  4.257216     0.001747    0.001411    0.124980  
      5.960102  4.257216  4.257216     0.001747    0.001411    0.124980  
      1.702886  1.702886  1.702886     0.001747    0.001411    0.124980  
      5.108659  1.702886  1.702886     0.001747    0.001411    0.124980  
      1.702886  5.108659  1.702886     0.001747    0.001411    0.124980  
      5.108659  5.108659  1.702886     0.001747    0.001411    0.124980  
      1.702886  1.702886  5.108659     0.001747    0.001411    0.124980  
      5.108659  1.702886  5.108659     0.001747    0.001411    0.124980  
      1.702886  5.108659  5.108659     0.001747    0.001411    0.124980  
      5.108659  5.108659  5.108659     0.001747    0.001411    0.124980  
 
 191 f  =    0.000005 THz     0.000032 2PiTHz    0.000169 cm-1     0.000021 meV
             X         Y         Z           dx          dy          dz
      0.851443  2.554329  0.851443    -0.097052   -0.078745    0.002245  
      4.257216  2.554329  0.851443    -0.097052   -0.078745    0.002245  
      0.851443  5.960102  0.851443    -0.097052   -0.078745    0.002245  
      4.257216  5.960102  0.851443    -0.097052   -0.078745    0.002245  
      0.851443  2.554329  4.257216    -0.097052   -0.078745    0.002245  
      4.257216  2.554329  4.257216    -0.097052   -0.078745    0.002245  
      0.851443  5.960102  4.257216    -0.097052   -0.078745    0.002245  
      4.257216  5.960102  4.257216    -0.097052   -0.078745    0.002245  
      0.000000  0.000000  1.702886    -0.097052   -0.078745    0.002245  
      3.405772  0.000000  1.702886    -0.097052   -0.078745    0.002245  
      0.000000  3.405772  1.702886    -0.097052   -0.078745    0.002245  
      3.405772  3.405772  1.702886    -0.097052   -0.078745    0.002245  
      0.000000  0.000000  5.108659    -0.097052   -0.078745    0.002245  
      3.405772  0.000000  5.108659    -0.097052   -0.078745    0.002245  
      0.000000  3.405772  5.108659    -0.097052   -0.078745    0.002245  
      3.405772  3.405772  5.108659    -0.097052   -0.078745    0.002245  
      0.851443  0.851443  2.554329    -0.097052   -0.078745    0.002245  
      4.257216  0.851443  2.554329    -0.097052   -0.078745    0.002245  
      0.851443  4.257216  2.554329    -0.097052   -0.078745    0.002245  
      4.257216  4.257216  2.554329    -0.097052   -0.078745    0.002245  
      0.851443  0.851443  5.960102    -0.097052   -0.078745    0.002245  
      4.257216  0.851443  5.960102    -0.097052   -0.078745    0.002245  
      0.851443  4.257216  5.960102    -0.097052   -0.078745    0.002245  
      4.257216  4.257216  5.960102    -0.097052   -0.078745    0.002245  
      0.000000  1.702886  0.000000    -0.097052   -0.078745    0.002245  
      3.405772  1.702886  0.000000    -0.097052   -0.078745    0.002245  
      0.000000  5.108659  0.000000    -0.097052   -0.078745    0.002245  
      3.405772  5.108659  0.000000    -0.097052   -0.078745    0.002245  
      0.000000  1.702886  3.405772    -0.097052   -0.078745    0.002245  
      3.405772  1.702886  3.405772    -0.097052   -0.078745    0.002245  
      0.000000  5.108659  3.405772    -0.097052   -0.078745    0.002245  
      3.405772  5.108659  3.405772    -0.097052   -0.078745    0.002245  
      2.554329  2.554329  2.554329    -0.097052   -0.078745    0.002245  
      5.960102  2.554329  2.554329    -0.097052   -0.078745    0.002245  
      2.554329  5.960102  2.554329    -0.097052   -0.078745    0.002245  
      5.960102  5.960102  2.554329    -0.097052   -0.078745    0.002245  
      2.554329  2.554329  5.960102    -0.097052   -0.078745    0.002245  
      5.960102  2.554329  5.960102    -0.097052   -0.078745    0.002245  
      2.554329  5.960102  5.960102    -0.097052   -0.078745    0.002245  
      5.960102  5.960102  5.960102    -0.097052   -0.078745    0.002245  
      1.702886  0.000000  0.000000    -0.097052   -0.078745    0.002245  
      5.108659  0.000000  0.000000    -0.097052   -0.078745    0.002245  
      1.702886  3.405772  0.000000    -0.097052   -0.078745    0.002245  
      5.108659  3.405772  0.000000    -0.097052   -0.078745    0.002245  
      1.702886  0.000000  3.405772    -0.097052   -0.078745    0.002245  
      5.108659  0.000000  3.405772    -0.097052   -0.078745    0.002245  
      1.702886  3.405772  3.405772    -0.097052   -0.078745    0.002245  
      5.108659  3.405772  3.405772    -0.097052   -0.078745    0.002245  
      2.554329  0.851443  0.851443    -0.097052   -0.078745    0.002245  
      5.960102  0.851443  0.851443    -0.097052   -0.078745    0.002245  
      2.554329  4.257216  0.851443    -0.097052   -0.078745    0.002245  
      5.960102  4.257216  0.851443    -0.097052   -0.078745    0.002245  
      2.554329  0.851443  4.257216    -0.097052   -0.078745    0.002245  
      5.960102  0.851443  4.257216    -0.097052   -0.078745    0.002245  
      2.554329  4.257216  4.257216    -0.097052   -0.078745    0.002245  
      5.960102  4.257216  4.257216    -0.097052   -0.078745    0.002245  
      1.702886  1.702886  1.702886    -0.097052   -0.078745    0.002245  
      5.108659  1.702886  1.702886    -0.097052   -0.078745    0.002245  
      1.702886  5.108659  1.702886    -0.097052   -0.078745    0.002245  
      5.108659  5.108659  1.702886    -0.097052   -0.078745    0.002245  
      1.702886  1.702886  5.108659    -0.097052   -0.078745    0.002245  
      5.108659  1.702886  5.108659    -0.097052   -0.078745    0.002245  
      1.702886  5.108659  5.108659    -0.097052   -0.078745    0.002245  
      5.108659  5.108659  5.108659    -0.097052   -0.078745    0.002245  
 
 192 f  =    0.000005 THz     0.000030 2PiTHz    0.000160 cm-1     0.000020 meV
             X         Y         Z           dx          dy          dz
      0.851443  2.554329  0.851443     0.078758   -0.097068   -0.000005  
      4.257216  2.554329  0.851443     0.078758   -0.097068   -0.000005  
      0.851443  5.960102  0.851443     0.078758   -0.097068   -0.000005  
      4.257216  5.960102  0.851443     0.078758   -0.097068   -0.000005  
      0.851443  2.554329  4.257216     0.078758   -0.097068   -0.000005  
      4.257216  2.554329  4.257216     0.078758   -0.097068   -0.000005  
      0.851443  5.960102  4.257216     0.078758   -0.097068   -0.000005  
      4.257216  5.960102  4.257216     0.078758   -0.097068   -0.000005  
      0.000000  0.000000  1.702886     0.078758   -0.097068   -0.000005  
      3.405772  0.000000  1.702886     0.078758   -0.097068   -0.000005  
      0.000000  3.405772  1.702886     0.078758   -0.097068   -0.000005  
      3.405772  3.405772  1.702886     0.078758   -0.097068   -0.000005  
      0.000000  0.000000  5.108659     0.078758   -0.097068   -0.000005  
      3.405772  0.000000  5.108659     0.078758   -0.097068   -0.000005  
      0.000000  3.405772  5.108659     0.078758   -0.097068   -0.000005  
      3.405772  3.405772  5.108659     0.078758   -0.097068   -0.000005  
      0.851443  0.851443  2.554329     0.078758   -0.097068   -0.000005  
      4.257216  0.851443  2.554329     0.078758   -0.097068   -0.000005  
      0.851443  4.257216  2.554329     0.078758   -0.097068   -0.000005  
      4.257216  4.257216  2.554329     0.078758   -0.097068   -0.000005  
      0.851443  0.851443  5.960102     0.078758   -0.097068   -0.000005  
      4.257216  0.851443  5.960102     0.078758   -0.097068   -0.000005  
      0.851443  4.257216  5.960102     0.078758   -0.097068   -0.000005  
      4.257216  4.257216  5.960102     0.078758   -0.097068   -0.000005  
      0.000000  1.702886  0.000000     0.078758   -0.097068   -0.000005  
      3.405772  1.702886  0.000000     0.078758   -0.097068   -0.000005  
      0.000000  5.108659  0.000000     0.078758   -0.097068   -0.000005  
      3.405772  5.108659  0.000000     0.078758   -0.097068   -0.000005  
      0.000000  1.702886  3.405772     0.078758   -0.097068   -0.000005  
      3.405772  1.702886  3.405772     0.078758   -0.097068   -0.000005  
      0.000000  5.108659  3.405772     0.078758   -0.097068   -0.000005  
      3.405772  5.108659  3.405772     0.078758   -0.097068   -0.000005  
      2.554329  2.554329  2.554329     0.078758   -0.097068   -0.000005  
      5.960102  2.554329  2.554329     0.078758   -0.097068   -0.000005  
      2.554329  5.960102  2.554329     0.078758   -0.097068   -0.000005  
      5.960102  5.960102  2.554329     0.078758   -0.097068   -0.000005  
      2.554329  2.554329  5.960102     0.078758   -0.097068   -0.000005  
      5.960102  2.554329  5.960102     0.078758   -0.097068   -0.000005  
      2.554329  5.960102  5.960102     0.078758   -0.097068   -0.000005  
      5.960102  5.960102  5.960102     0.078758   -0.097068   -0.000005  
      1.702886  0.000000  0.000000     0.078758   -0.097068   -0.000005  
      5.108659  0.000000  0.000000     0.078758   -0.097068   -0.000005  
      1.702886  3.405772  0.000000     0.078758   -0.097068   -0.000005  
      5.108659  3.405772  0.000000     0.078758   -0.097068   -0.000005  
      1.702886  0.000000  3.405772     0.078758   -0.097068   -0.000005  
      5.108659  0.000000  3.405772     0.078758   -0.097068   -0.000005  
      1.702886  3.405772  3.405772     0.078758   -0.097068   -0.000005  
      5.108659  3.405772  3.405772     0.078758   -0.097068   -0.000005  
      2.554329  0.851443  0.851443     0.078758   -0.097068   -0.000005  
      5.960102  0.851443  0.851443     0.078758   -0.097068   -0.000005  
      2.554329  4.257216  0.851443     0.078758   -0.097068   -0.000005  
      5.960102  4.257216  0.851443     0.078758   -0.097068   -0.000005  
      2.554329  0.851443  4.257216     0.078758   -0.097068   -0.000005  
      5.960102  0.851443  4.257216     0.078758   -0.097068   -0.000005  
      2.554329  4.257216  4.257216     0.078758   -0.097068   -0.000005  
      5.960102  4.257216  4.257216     0.078758   -0.097068   -0.000005  
      1.702886  1.702886  1.702886     0.078758   -0.097068   -0.000005  
      5.108659  1.702886  1.702886     0.078758   -0.097068   -0.000005  
      1.702886  5.108659  1.702886     0.078758   -0.097068   -0.000005  
      5.108659  5.108659  1.702886     0.078758   -0.097068   -0.000005  
      1.702886  1.702886  5.108659     0.078758   -0.097068   -0.000005  
      5.108659  1.702886  5.108659     0.078758   -0.097068   -0.000005  
      1.702886  5.108659  5.108659     0.078758   -0.097068   -0.000005  
      5.108659  5.108659  5.108659     0.078758   -0.097068   -0.000005  
 


--------------------------------------------------------------------------------------------------------



 ELASTIC MODULI CONTR FROM IONIC RELAXATION (kBar)
 Direction    XX          YY          ZZ          XY          YZ          ZX
 --------------------------------------------------------------------------------
 XX          -0.0000     -0.0000     -0.0000      0.0000     -0.0000     -0.0000
 YY          -0.0000     -0.0000     -0.0000      0.0000      0.0000     -0.0000
 ZZ          -0.0000     -0.0000     -0.0000     -0.0000      0.0000     -0.0000
 XY           0.0000      0.0000     -0.0000   -498.6517      0.0000      0.0000
 YZ          -0.0000      0.0000      0.0000      0.0000   -498.6517      0.0000
 ZX          -0.0000     -0.0000     -0.0000      0.0000      0.0000   -498.6517
 --------------------------------------------------------------------------------



--------------------------------------------------------------------------------------------------------


     LOOP+:  cpu time  815.2807: real time  815.9386
    4ORBIT:  cpu time    0.0000: real time    0.0000

 total amount of memory used by VASP MPI-rank0    66257. kBytes
=======================================================================

   base      :      30000. kBytes
   nonl-proj :      13492. kBytes
   fftplans  :       4537. kBytes
   grid      :       5806. kBytes
   one-center:        196. kBytes
   wavefun   :      12226. kBytes
 
  
  
 General timing and accounting informations for this job:
 ========================================================
  
                  Total CPU time used (sec):      823.324
                            User time (sec):      818.688
                          System time (sec):        4.636
                         Elapsed time (sec):      825.194
  
                   Maximum memory used (kb):      370928.
                   Average memory used (kb):           0.
  
                          Minor page faults:        39305
                          Major page faults:           35
                 Voluntary context switches:          868
