# Thermal properties / unit cell (natom)

unit:
  temperature:   K
  free_energy:   kJ/mol
  entropy:       J/K/mol
  heat_capacity: J/K/mol

natom: 8    
cutoff_frequency:    0.000
num_modes: 2654208
num_integrated_modes: 2654208

zero_point_energy:     158.7019335
high_T_entropy:        408.0825023

thermal_properties:
- temperature:         0.0000000
  free_energy:       158.7019335
  entropy:             0.0000000
  heat_capacity:       0.0000000
  energy:            158.7019335

- temperature:         2.0000000
  free_energy:       158.7019335
  entropy:             0.0000000
  heat_capacity:       0.0000000
  energy:            158.7019335

- temperature:         4.0000000
  free_energy:       158.7019335
  entropy:             0.0000049
  heat_capacity:       0.0000332
  energy:            158.7019335

- temperature:         6.0000000
  free_energy:       158.7019334
  entropy:             0.0000468
  heat_capacity:       0.0002138
  energy:            158.7019337

- temperature:         8.0000000
  free_energy:       158.7019332
  entropy:             0.0001520
  heat_capacity:       0.0005639
  energy:            158.7019345

- temperature:        10.0000000
  free_energy:       158.7019328
  entropy:             0.0003333
  heat_capacity:       0.0011218
  energy:            158.7019361

- temperature:        12.0000000
  free_energy:       158.7019318
  entropy:             0.0006063
  heat_capacity:       0.0019470
  energy:            158.7019391

- temperature:        14.0000000
  free_energy:       158.7019303
  entropy:             0.0009883
  heat_capacity:       0.0030978
  energy:            158.7019441

- temperature:        16.0000000
  free_energy:       158.7019278
  entropy:             0.0014975
  heat_capacity:       0.0046314
  energy:            158.7019518

- temperature:        18.0000000
  free_energy:       158.7019242
  entropy:             0.0021523
  heat_capacity:       0.0066047
  energy:            158.7019629

- temperature:        20.0000000
  free_energy:       158.7019191
  entropy:             0.0029715
  heat_capacity:       0.0090756
  energy:            158.7019785

- temperature:        22.0000000
  free_energy:       158.7019122
  entropy:             0.0039738
  heat_capacity:       0.0121027
  energy:            158.7019996

- temperature:        24.0000000
  free_energy:       158.7019031
  entropy:             0.0051784
  heat_capacity:       0.0157457
  energy:            158.7020273

- temperature:        26.0000000
  free_energy:       158.7018913
  entropy:             0.0066046
  heat_capacity:       0.0200654
  energy:            158.7020630

- temperature:        28.0000000
  free_energy:       158.7018765
  entropy:             0.0082719
  heat_capacity:       0.0251241
  energy:            158.7021081

- temperature:        30.0000000
  free_energy:       158.7018580
  entropy:             0.0102004
  heat_capacity:       0.0309858
  energy:            158.7021641

- temperature:        32.0000000
  free_energy:       158.7018355
  entropy:             0.0124102
  heat_capacity:       0.0377161
  energy:            158.7022326

- temperature:        34.0000000
  free_energy:       158.7018082
  entropy:             0.0149219
  heat_capacity:       0.0453828
  energy:            158.7023156

- temperature:        36.0000000
  free_energy:       158.7017756
  entropy:             0.0177564
  heat_capacity:       0.0540560
  energy:            158.7024148

- temperature:        38.0000000
  free_energy:       158.7017370
  entropy:             0.0209353
  heat_capacity:       0.0638085
  energy:            158.7025325

- temperature:        40.0000000
  free_energy:       158.7016916
  entropy:             0.0244805
  heat_capacity:       0.0747163
  energy:            158.7026708

- temperature:        42.0000000
  free_energy:       158.7016388
  entropy:             0.0284146
  heat_capacity:       0.0868590
  energy:            158.7028322

- temperature:        44.0000000
  free_energy:       158.7015777
  entropy:             0.0327606
  heat_capacity:       0.1003203
  energy:            158.7030191

- temperature:        46.0000000
  free_energy:       158.7015074
  entropy:             0.0375427
  heat_capacity:       0.1151887
  energy:            158.7032344

- temperature:        48.0000000
  free_energy:       158.7014272
  entropy:             0.0427854
  heat_capacity:       0.1315583
  energy:            158.7034809

- temperature:        50.0000000
  free_energy:       158.7013360
  entropy:             0.0485146
  heat_capacity:       0.1495294
  energy:            158.7037617

- temperature:        52.0000000
  free_energy:       158.7012328
  entropy:             0.0547569
  heat_capacity:       0.1692088
  energy:            158.7040801

- temperature:        54.0000000
  free_energy:       158.7011166
  entropy:             0.0615402
  heat_capacity:       0.1907111
  energy:            158.7044398

- temperature:        56.0000000
  free_energy:       158.7009862
  entropy:             0.0688936
  heat_capacity:       0.2141583
  energy:            158.7048443

- temperature:        58.0000000
  free_energy:       158.7008406
  entropy:             0.0768476
  heat_capacity:       0.2396812
  energy:            158.7052978

- temperature:        60.0000000
  free_energy:       158.7006784
  entropy:             0.0854342
  heat_capacity:       0.2674185
  energy:            158.7058045

- temperature:        62.0000000
  free_energy:       158.7004984
  entropy:             0.0946869
  heat_capacity:       0.2975176
  energy:            158.7063690

- temperature:        64.0000000
  free_energy:       158.7002992
  entropy:             0.1046409
  heat_capacity:       0.3301341
  energy:            158.7069962

- temperature:        66.0000000
  free_energy:       158.7000794
  entropy:             0.1153329
  heat_capacity:       0.3654316
  energy:            158.7076913

- temperature:        68.0000000
  free_energy:       158.6998374
  entropy:             0.1268014
  heat_capacity:       0.4035808
  energy:            158.7084599

- temperature:        70.0000000
  free_energy:       158.6995716
  entropy:             0.1390866
  heat_capacity:       0.4447593
  energy:            158.7093077

- temperature:        72.0000000
  free_energy:       158.6992805
  entropy:             0.1522304
  heat_capacity:       0.4891502
  energy:            158.7102410

- temperature:        74.0000000
  free_energy:       158.6989621
  entropy:             0.1662764
  heat_capacity:       0.5369415
  energy:            158.7112666

- temperature:        76.0000000
  free_energy:       158.6986147
  entropy:             0.1812696
  heat_capacity:       0.5883248
  energy:            158.7123912

- temperature:        78.0000000
  free_energy:       158.6982364
  entropy:             0.1972566
  heat_capacity:       0.6434942
  energy:            158.7136224

- temperature:        80.0000000
  free_energy:       158.6978250
  entropy:             0.2142855
  heat_capacity:       0.7026450
  energy:            158.7149678

- temperature:        82.0000000
  free_energy:       158.6973785
  entropy:             0.2324055
  heat_capacity:       0.7659725
  energy:            158.7164357

- temperature:        84.0000000
  free_energy:       158.6968946
  entropy:             0.2516670
  heat_capacity:       0.8336710
  energy:            158.7180346

- temperature:        86.0000000
  free_energy:       158.6963710
  entropy:             0.2721214
  heat_capacity:       0.9059320
  energy:            158.7197735

- temperature:        88.0000000
  free_energy:       158.6958053
  entropy:             0.2938209
  heat_capacity:       0.9829437
  energy:            158.7216615

- temperature:        90.0000000
  free_energy:       158.6951949
  entropy:             0.3168183
  heat_capacity:       1.0648894
  energy:            158.7237085

- temperature:        92.0000000
  free_energy:       158.6945371
  entropy:             0.3411671
  heat_capacity:       1.1519470
  energy:            158.7259245

- temperature:        94.0000000
  free_energy:       158.6938293
  entropy:             0.3669209
  heat_capacity:       1.2442875
  energy:            158.7283198

- temperature:        96.0000000
  free_energy:       158.6930685
  entropy:             0.3941335
  heat_capacity:       1.3420746
  energy:            158.7309053

- temperature:        98.0000000
  free_energy:       158.6922517
  entropy:             0.4228586
  heat_capacity:       1.4454636
  energy:            158.7336919

- temperature:       100.0000000
  free_energy:       158.6913760
  entropy:             0.4531498
  heat_capacity:       1.5546013
  energy:            158.7366910

- temperature:       102.0000000
  free_energy:       158.6904381
  entropy:             0.4850603
  heat_capacity:       1.6696250
  energy:            158.7399142

- temperature:       104.0000000
  free_energy:       158.6894346
  entropy:             0.5186427
  heat_capacity:       1.7906623
  energy:            158.7433735

- temperature:       106.0000000
  free_energy:       158.6883623
  entropy:             0.5539491
  heat_capacity:       1.9178310
  energy:            158.7470809

- temperature:       108.0000000
  free_energy:       158.6872177
  entropy:             0.5910306
  heat_capacity:       2.0512385
  energy:            158.7510490

- temperature:       110.0000000
  free_energy:       158.6859970
  entropy:             0.6299375
  heat_capacity:       2.1909819
  energy:            158.7552901

- temperature:       112.0000000
  free_energy:       158.6846967
  entropy:             0.6707189
  heat_capacity:       2.3371480
  energy:            158.7598172

- temperature:       114.0000000
  free_energy:       158.6833128
  entropy:             0.7134229
  heat_capacity:       2.4898134
  energy:            158.7646430

- temperature:       116.0000000
  free_energy:       158.6818416
  entropy:             0.7580961
  heat_capacity:       2.6490445
  energy:            158.7697808

- temperature:       118.0000000
  free_energy:       158.6802791
  entropy:             0.8047841
  heat_capacity:       2.8148978
  energy:            158.7752436

- temperature:       120.0000000
  free_energy:       158.6786211
  entropy:             0.8535308
  heat_capacity:       2.9874202
  energy:            158.7810448

- temperature:       122.0000000
  free_energy:       158.6768636
  entropy:             0.9043787
  heat_capacity:       3.1666490
  energy:            158.7871978

- temperature:       124.0000000
  free_energy:       158.6750022
  entropy:             0.9573688
  heat_capacity:       3.3526126
  energy:            158.7937159

- temperature:       126.0000000
  free_energy:       158.6730327
  entropy:             1.0125404
  heat_capacity:       3.5453310
  energy:            158.8006127

- temperature:       128.0000000
  free_energy:       158.6709506
  entropy:             1.0699313
  heat_capacity:       3.7448157
  energy:            158.8079018

- temperature:       130.0000000
  free_energy:       158.6687514
  entropy:             1.1295776
  heat_capacity:       3.9510703
  energy:            158.8155965

- temperature:       132.0000000
  free_energy:       158.6664307
  entropy:             1.1915139
  heat_capacity:       4.1640914
  energy:            158.8237106

- temperature:       134.0000000
  free_energy:       158.6639838
  entropy:             1.2557729
  heat_capacity:       4.3838684
  energy:            158.8322574

- temperature:       136.0000000
  free_energy:       158.6614061
  entropy:             1.3223857
  heat_capacity:       4.6103844
  energy:            158.8412505

- temperature:       138.0000000
  free_energy:       158.6586927
  entropy:             1.3913820
  heat_capacity:       4.8436164
  energy:            158.8507034

- temperature:       140.0000000
  free_energy:       158.6558389
  entropy:             1.4627894
  heat_capacity:       5.0835360
  energy:            158.8606294

- temperature:       142.0000000
  free_energy:       158.6528399
  entropy:             1.5366343
  heat_capacity:       5.3301095
  energy:            158.8710420

- temperature:       144.0000000
  free_energy:       158.6496907
  entropy:             1.6129413
  heat_capacity:       5.5832986
  energy:            158.8819543

- temperature:       146.0000000
  free_energy:       158.6463865
  entropy:             1.6917334
  heat_capacity:       5.8430608
  energy:            158.8933796

- temperature:       148.0000000
  free_energy:       158.6429221
  entropy:             1.7730321
  heat_capacity:       6.1093497
  energy:            158.9053309

- temperature:       150.0000000
  free_energy:       158.6392927
  entropy:             1.8568574
  heat_capacity:       6.3821152
  energy:            158.9178213

- temperature:       152.0000000
  free_energy:       158.6354930
  entropy:             1.9432277
  heat_capacity:       6.6613045
  energy:            158.9308636

- temperature:       154.0000000
  free_energy:       158.6315181
  entropy:             2.0321603
  heat_capacity:       6.9468615
  energy:            158.9444707

- temperature:       156.0000000
  free_energy:       158.6273627
  entropy:             2.1236707
  heat_capacity:       7.2387279
  energy:            158.9586553

- temperature:       158.0000000
  free_energy:       158.6230216
  entropy:             2.2177733
  heat_capacity:       7.5368432
  energy:            158.9734298

- temperature:       160.0000000
  free_energy:       158.6184898
  entropy:             2.3144810
  heat_capacity:       7.8411449
  energy:            158.9888068

- temperature:       162.0000000
  free_energy:       158.6137620
  entropy:             2.4138056
  heat_capacity:       8.1515689
  energy:            159.0047985

- temperature:       164.0000000
  free_energy:       158.6088328
  entropy:             2.5157576
  heat_capacity:       8.4680496
  energy:            159.0214171

- temperature:       166.0000000
  free_energy:       158.6036972
  entropy:             2.6203463
  heat_capacity:       8.7905203
  energy:            159.0386747

- temperature:       168.0000000
  free_energy:       158.5983497
  entropy:             2.7275799
  heat_capacity:       9.1189129
  energy:            159.0565831

- temperature:       170.0000000
  free_energy:       158.5927851
  entropy:             2.8374654
  heat_capacity:       9.4531589
  energy:            159.0751542

- temperature:       172.0000000
  free_energy:       158.5869981
  entropy:             2.9500090
  heat_capacity:       9.7931889
  energy:            159.0943996

- temperature:       174.0000000
  free_energy:       158.5809833
  entropy:             3.0652155
  heat_capacity:      10.1389327
  energy:            159.1143308

- temperature:       176.0000000
  free_energy:       158.5747354
  entropy:             3.1830891
  heat_capacity:      10.4903200
  energy:            159.1349591

- temperature:       178.0000000
  free_energy:       158.5682491
  entropy:             3.3036328
  heat_capacity:      10.8472798
  energy:            159.1562958

- temperature:       180.0000000
  free_energy:       158.5615191
  entropy:             3.4268488
  heat_capacity:      11.2097411
  energy:            159.1783519

- temperature:       182.0000000
  free_energy:       158.5545400
  entropy:             3.5527384
  heat_capacity:      11.5776326
  energy:            159.2011384

- temperature:       184.0000000
  free_energy:       158.5473064
  entropy:             3.6813023
  heat_capacity:      11.9508827
  energy:            159.2246660

- temperature:       186.0000000
  free_energy:       158.5398130
  entropy:             3.8125400
  heat_capacity:      12.3294201
  energy:            159.2489454

- temperature:       188.0000000
  free_energy:       158.5320544
  entropy:             3.9464506
  heat_capacity:      12.7131730
  energy:            159.2739872

- temperature:       190.0000000
  free_energy:       158.5240254
  entropy:             4.0830324
  heat_capacity:      13.1020699
  energy:            159.2998015

- temperature:       192.0000000
  free_energy:       158.5157205
  entropy:             4.2222827
  heat_capacity:      13.4960393
  energy:            159.3263988

- temperature:       194.0000000
  free_energy:       158.5071345
  entropy:             4.3641987
  heat_capacity:      13.8950096
  energy:            159.3537890

- temperature:       196.0000000
  free_energy:       158.4982620
  entropy:             4.5087764
  heat_capacity:      14.2989094
  energy:            159.3819821

- temperature:       198.0000000
  free_energy:       158.4890976
  entropy:             4.6560116
  heat_capacity:      14.7076673
  energy:            159.4109879

- temperature:       200.0000000
  free_energy:       158.4796361
  entropy:             4.8058993
  heat_capacity:      15.1212119
  energy:            159.4408160

- temperature:       202.0000000
  free_energy:       158.4698722
  entropy:             4.9584339
  heat_capacity:      15.5394719
  energy:            159.4714759

- temperature:       204.0000000
  free_energy:       158.4598006
  entropy:             5.1136095
  heat_capacity:      15.9623762
  energy:            159.5029770

- temperature:       206.0000000
  free_energy:       158.4494161
  entropy:             5.2714194
  heat_capacity:      16.3898535
  energy:            159.5353285

- temperature:       208.0000000
  free_energy:       158.4387132
  entropy:             5.4318566
  heat_capacity:      16.8218327
  energy:            159.5685394

- temperature:       210.0000000
  free_energy:       158.4276869
  entropy:             5.5949136
  heat_capacity:      17.2582427
  energy:            159.6026187

- temperature:       212.0000000
  free_energy:       158.4163318
  entropy:             5.7605823
  heat_capacity:      17.6990125
  energy:            159.6375753

- temperature:       214.0000000
  free_energy:       158.4046428
  entropy:             5.9288544
  heat_capacity:      18.1440710
  energy:            159.6734176

- temperature:       216.0000000
  free_energy:       158.3926147
  entropy:             6.0997208
  heat_capacity:      18.5933471
  energy:            159.7101544

- temperature:       218.0000000
  free_energy:       158.3802422
  entropy:             6.2731724
  heat_capacity:      19.0467696
  energy:            159.7477938

- temperature:       220.0000000
  free_energy:       158.3675203
  entropy:             6.4491995
  heat_capacity:      19.5042676
  energy:            159.7863442

- temperature:       222.0000000
  free_energy:       158.3544437
  entropy:             6.6277921
  heat_capacity:      19.9657699
  energy:            159.8258135

- temperature:       224.0000000
  free_energy:       158.3410074
  entropy:             6.8089396
  heat_capacity:      20.4312052
  energy:            159.8662099

- temperature:       226.0000000
  free_energy:       158.3272062
  entropy:             6.9926314
  heat_capacity:      20.9005024
  energy:            159.9075409

- temperature:       228.0000000
  free_energy:       158.3130352
  entropy:             7.1788562
  heat_capacity:      21.3735900
  energy:            159.9498144

- temperature:       230.0000000
  free_energy:       158.2984891
  entropy:             7.3676028
  heat_capacity:      21.8503969
  energy:            159.9930378

- temperature:       232.0000000
  free_energy:       158.2835631
  entropy:             7.5588592
  heat_capacity:      22.3308515
  energy:            160.0372184

- temperature:       234.0000000
  free_energy:       158.2682520
  entropy:             7.7526134
  heat_capacity:      22.8148823
  energy:            160.0823636

- temperature:       236.0000000
  free_energy:       158.2525510
  entropy:             7.9488530
  heat_capacity:      23.3024177
  energy:            160.1284803

- temperature:       238.0000000
  free_energy:       158.2364550
  entropy:             8.1475653
  heat_capacity:      23.7933861
  energy:            160.1755755

- temperature:       240.0000000
  free_energy:       158.2199591
  entropy:             8.3487375
  heat_capacity:      24.2877157
  energy:            160.2236561

- temperature:       242.0000000
  free_energy:       158.2030584
  entropy:             8.5523561
  heat_capacity:      24.7853347
  energy:            160.2727286

- temperature:       244.0000000
  free_energy:       158.1857480
  entropy:             8.7584079
  heat_capacity:      25.2861713
  energy:            160.3227996

- temperature:       246.0000000
  free_energy:       158.1680232
  entropy:             8.9668789
  heat_capacity:      25.7901536
  energy:            160.3738754

- temperature:       248.0000000
  free_energy:       158.1498789
  entropy:             9.1777552
  heat_capacity:      26.2972096
  energy:            160.4259622

- temperature:       250.0000000
  free_energy:       158.1313105
  entropy:             9.3910227
  heat_capacity:      26.8072672
  energy:            160.4790662

- temperature:       252.0000000
  free_energy:       158.1123132
  entropy:             9.6066667
  heat_capacity:      27.3202545
  energy:            160.5331932

- temperature:       254.0000000
  free_energy:       158.0928823
  entropy:             9.8246726
  heat_capacity:      27.8360995
  energy:            160.5883491

- temperature:       256.0000000
  free_energy:       158.0730130
  entropy:            10.0450254
  heat_capacity:      28.3547299
  energy:            160.6445395

- temperature:       258.0000000
  free_energy:       158.0527006
  entropy:            10.2677101
  heat_capacity:      28.8760740
  energy:            160.7017699

- temperature:       260.0000000
  free_energy:       158.0319406
  entropy:            10.4927113
  heat_capacity:      29.4000595
  energy:            160.7600456

- temperature:       262.0000000
  free_energy:       158.0107283
  entropy:            10.7200135
  heat_capacity:      29.9266147
  energy:            160.8193718

- temperature:       264.0000000
  free_energy:       157.9890590
  entropy:            10.9496010
  heat_capacity:      30.4556675
  energy:            160.8797537

- temperature:       266.0000000
  free_energy:       157.9669283
  entropy:            11.1814577
  heat_capacity:      30.9871463
  energy:            160.9411961

- temperature:       268.0000000
  free_energy:       157.9443317
  entropy:            11.4155677
  heat_capacity:      31.5209792
  energy:            161.0037038

- temperature:       270.0000000
  free_energy:       157.9212646
  entropy:            11.6519146
  heat_capacity:      32.0570948
  energy:            161.0672815

- temperature:       272.0000000
  free_energy:       157.8977226
  entropy:            11.8904821
  heat_capacity:      32.5954216
  energy:            161.1319337

- temperature:       274.0000000
  free_energy:       157.8737012
  entropy:            12.1312535
  heat_capacity:      33.1358883
  energy:            161.1976646

- temperature:       276.0000000
  free_energy:       157.8491961
  entropy:            12.3742121
  heat_capacity:      33.6784239
  energy:            161.2644786

- temperature:       278.0000000
  free_energy:       157.8242029
  entropy:            12.6193409
  heat_capacity:      34.2229575
  energy:            161.3323797

- temperature:       280.0000000
  free_energy:       157.7987173
  entropy:            12.8666230
  heat_capacity:      34.7694186
  energy:            161.4013717

- temperature:       282.0000000
  free_energy:       157.7727350
  entropy:            13.1160412
  heat_capacity:      35.3177366
  energy:            161.4714586

- temperature:       284.0000000
  free_energy:       157.7462517
  entropy:            13.3675780
  heat_capacity:      35.8678415
  energy:            161.5426439

- temperature:       286.0000000
  free_energy:       157.7192633
  entropy:            13.6212162
  heat_capacity:      36.4196636
  energy:            161.6149311

- temperature:       288.0000000
  free_energy:       157.6917655
  entropy:            13.8769381
  heat_capacity:      36.9731333
  energy:            161.6883236

- temperature:       290.0000000
  free_energy:       157.6637541
  entropy:            14.1347260
  heat_capacity:      37.5281815
  energy:            161.7628247

- temperature:       292.0000000
  free_energy:       157.6352252
  entropy:            14.3945622
  heat_capacity:      38.0847395
  energy:            161.8384374

- temperature:       294.0000000
  free_energy:       157.6061745
  entropy:            14.6564288
  heat_capacity:      38.6427389
  energy:            161.9151646

- temperature:       296.0000000
  free_energy:       157.5765981
  entropy:            14.9203078
  heat_capacity:      39.2021117
  energy:            161.9930092

- temperature:       298.0000000
  free_energy:       157.5464920
  entropy:            15.1861810
  heat_capacity:      39.7627904
  energy:            162.0719739

- temperature:       300.0000000
  free_energy:       157.5158521
  entropy:            15.4540304
  heat_capacity:      40.3247079
  energy:            162.1520612

- temperature:       302.0000000
  free_energy:       157.4846745
  entropy:            15.7238377
  heat_capacity:      40.8877976
  energy:            162.2332735

- temperature:       304.0000000
  free_energy:       157.4529554
  entropy:            15.9955845
  heat_capacity:      41.4519934
  energy:            162.3156131

- temperature:       306.0000000
  free_energy:       157.4206909
  entropy:            16.2692525
  heat_capacity:      42.0172297
  energy:            162.3990822

- temperature:       308.0000000
  free_energy:       157.3878772
  entropy:            16.5448232
  heat_capacity:      42.5834415
  energy:            162.4836827

- temperature:       310.0000000
  free_energy:       157.3545104
  entropy:            16.8222781
  heat_capacity:      43.1505642
  energy:            162.5694166

- temperature:       312.0000000
  free_energy:       157.3205868
  entropy:            17.1015985
  heat_capacity:      43.7185339
  energy:            162.6562855

- temperature:       314.0000000
  free_energy:       157.2861027
  entropy:            17.3827659
  heat_capacity:      44.2872872
  energy:            162.7442912

- temperature:       316.0000000
  free_energy:       157.2510545
  entropy:            17.6657615
  heat_capacity:      44.8567614
  energy:            162.8334352

- temperature:       318.0000000
  free_energy:       157.2154385
  entropy:            17.9505667
  heat_capacity:      45.4268943
  energy:            162.9237187

- temperature:       320.0000000
  free_energy:       157.1792511
  entropy:            18.2371627
  heat_capacity:      45.9976246
  energy:            163.0151431

- temperature:       322.0000000
  free_energy:       157.1424887
  entropy:            18.5255308
  heat_capacity:      46.5688912
  energy:            163.1077096

- temperature:       324.0000000
  free_energy:       157.1051478
  entropy:            18.8156520
  heat_capacity:      47.1406340
  energy:            163.2014190

- temperature:       326.0000000
  free_energy:       157.0672249
  entropy:            19.1075076
  heat_capacity:      47.7127935
  energy:            163.2962724

- temperature:       328.0000000
  free_energy:       157.0287166
  entropy:            19.4010788
  heat_capacity:      48.2853110
  energy:            163.3922704

- temperature:       330.0000000
  free_energy:       156.9896195
  entropy:            19.6963466
  heat_capacity:      48.8581282
  energy:            163.4894138

- temperature:       332.0000000
  free_energy:       156.9499301
  entropy:            19.9932922
  heat_capacity:      49.4311878
  energy:            163.5877031

- temperature:       334.0000000
  free_energy:       156.9096452
  entropy:            20.2918968
  heat_capacity:      50.0044331
  energy:            163.6871387

- temperature:       336.0000000
  free_energy:       156.8687614
  entropy:            20.5921414
  heat_capacity:      50.5778082
  energy:            163.7877209

- temperature:       338.0000000
  free_energy:       156.8272755
  entropy:            20.8940073
  heat_capacity:      51.1512578
  energy:            163.8894500

- temperature:       340.0000000
  free_energy:       156.7851843
  entropy:            21.1974755
  heat_capacity:      51.7247276
  energy:            163.9923260

- temperature:       342.0000000
  free_energy:       156.7424846
  entropy:            21.5025272
  heat_capacity:      52.2981638
  energy:            164.0963489

- temperature:       344.0000000
  free_energy:       156.6991732
  entropy:            21.8091436
  heat_capacity:      52.8715135
  energy:            164.2015186

- temperature:       346.0000000
  free_energy:       156.6552470
  entropy:            22.1173060
  heat_capacity:      53.4447246
  energy:            164.3078348

- temperature:       348.0000000
  free_energy:       156.6107029
  entropy:            22.4269955
  heat_capacity:      54.0177458
  energy:            164.4152973

- temperature:       350.0000000
  free_energy:       156.5655380
  entropy:            22.7381934
  heat_capacity:      54.5905263
  energy:            164.5239057

- temperature:       352.0000000
  free_energy:       156.5197492
  entropy:            23.0508810
  heat_capacity:      55.1630166
  energy:            164.6336593

- temperature:       354.0000000
  free_energy:       156.4733335
  entropy:            23.3650396
  heat_capacity:      55.7351675
  energy:            164.7445575

- temperature:       356.0000000
  free_energy:       156.4262880
  entropy:            23.6806507