<?xml version="1.0" encoding="ISO-8859-1"?>
<modeling>
 <generator>
  <i name="program" type="string">vasp </i>
  <i name="version" type="string">5.4.4.18Apr17-6-g9f103f2a35  </i>
  <i name="subversion" type="string">(build Mar 12 2022 03:36:41) complex            parallel </i>
  <i name="platform" type="string">IFC19.0.3.199_CrayMPICH7.7.19 </i>
  <i name="date" type="string">2022 12 02 </i>
  <i name="time" type="string">00:45:08 </i>
 </generator>
 <incar>
  <i type="string" name="PREC">accurate</i>
  <i type="int" name="IALGO">    38</i>
  <i type="logical" name="ADDGRID"> T  </i>
  <i type="int" name="IBRION">     8</i>
  <i name="EDIFF">      0.00000001</i>
  <i type="logical" name="LREAL"> F  </i>
  <i type="int" name="ISMEAR">     0</i>
  <i name="SIGMA">      0.06000000</i>
  <i type="logical" name="LWAVE"> F  </i>
  <i type="logical" name="LCHARG"> F  </i>
  <v type="int" name="KPOINT_BSE">    -1     0     0     0</v>
 </incar>
 <structure name="primitive_cell" >
  <crystal>
   <varray name="basis" >
    <v>       1.70288622       1.70288622       0.00000000 </v>
    <v>       1.70288622       0.00000000      -1.70288622 </v>
    <v>       0.00000000       1.70288622      -1.70288622 </v>
   </varray>
   <i name="volume">      9.87613210 </i>
   <varray name="rec_basis" >
    <v>       0.29361915       0.29361915       0.29361915 </v>
    <v>       0.29361915      -0.29361915      -0.29361915 </v>
    <v>      -0.29361915       0.29361915      -0.29361915 </v>
   </varray>
  </crystal>
  <varray name="positions" >
   <v>       0.25000000       0.25000000       0.25000000 </v>
   <v>      -0.50000000      -0.50000000      -0.50000000 </v>
  </varray>
 </structure>
 <varray name="primitive_index" >
  <v type="int" >        1 </v>
  <v type="int" >       11 </v>
 </varray>
 <kpoints>
  <generation param="Gamma">
   <v type="int" name="divisions">       6        6        6 </v>
   <v name="usershift">      0.00000000       0.00000000       0.00000000 </v>
   <v name="genvec1">      0.16666667       0.00000000       0.00000000 </v>
   <v name="genvec2">      0.00000000       0.16666667       0.00000000 </v>
   <v name="genvec3">      0.00000000       0.00000000       0.16666667 </v>
   <v name="shift">      0.00000000       0.00000000       0.00000000 </v>
  </generation>
  <varray name="kpointlist" >
   <v>       0.00000000       0.00000000       0.00000000 </v>
   <v>       0.16666667       0.00000000       0.00000000 </v>
   <v>       0.33333333       0.00000000       0.00000000 </v>
   <v>       0.50000000       0.00000000       0.00000000 </v>
   <v>       0.16666667       0.16666667       0.00000000 </v>
   <v>       0.33333333       0.16666667       0.00000000 </v>
   <v>       0.50000000       0.16666667       0.00000000 </v>
   <v>       0.33333333       0.33333333       0.00000000 </v>
   <v>       0.50000000       0.33333333       0.00000000 </v>
   <v>       0.50000000       0.50000000       0.00000000 </v>
   <v>       0.16666667       0.16666667       0.16666667 </v>
   <v>       0.33333333       0.16666667       0.16666667 </v>
   <v>       0.50000000       0.16666667       0.16666667 </v>
   <v>       0.33333333       0.33333333       0.16666667 </v>
   <v>       0.50000000       0.33333333       0.16666667 </v>
   <v>       0.50000000       0.50000000       0.16666667 </v>
   <v>       0.33333333       0.33333333       0.33333333 </v>
   <v>       0.50000000       0.33333333       0.33333333 </v>
   <v>       0.50000000       0.50000000       0.33333333 </v>
   <v>       0.50000000       0.50000000       0.50000000 </v>
  </varray>
  <varray name="weights" >
   <v>       0.00462963 </v>
   <v>       0.02777778 </v>
   <v>       0.02777778 </v>
   <v>       0.01388889 </v>
   <v>       0.05555556 </v>
   <v>       0.11111111 </v>
   <v>       0.05555556 </v>
   <v>       0.05555556 </v>
   <v>       0.05555556 </v>
   <v>       0.01388889 </v>
   <v>       0.03703704 </v>
   <v>       0.11111111 </v>
   <v>       0.05555556 </v>
   <v>       0.11111111 </v>
   <v>       0.11111111 </v>
   <v>       0.02777778 </v>
   <v>       0.03703704 </v>
   <v>       0.05555556 </v>
   <v>       0.02777778 </v>
   <v>       0.00462963 </v>
  </varray>
 </kpoints>
 <parameters>
  <separator name="general" >
   <i type="string" name="SYSTEM">unknown system</i>
   <i type="logical" name="LCOMPAT"> F  </i>
  </separator>
  <separator name="electronic" >
   <i type="string" name="PREC">accura</i>
   <i name="ENMAX">    400.00000000</i>
   <i name="ENAUG">    644.87300000</i>
   <i name="EDIFF">      0.00000001</i>
   <i type="int" name="IALGO">    38</i>
   <i type="int" name="IWAVPR">    11</i>
   <i type="int" name="NBANDS">   192</i>
   <i name="NELECT">    256.00000000</i>
   <i type="int" name="TURBO">     0</i>
   <i type="int" name="IRESTART">     0</i>
   <i type="int" name="NREBOOT">     0</i>
   <i type="int" name="NMIN">     0</i>
   <i name="EREF">      0.00000000</i>
   <separator name="electronic smearing" >
    <i type="int" name="ISMEAR">     0</i>
    <i name="SIGMA">      0.06000000</i>
    <i name="KSPACING">      0.50000000</i>
    <i type="logical" name="KGAMMA"> T  </i>
   </separator>
   <separator name="electronic projectors" >
    <i type="logical" name="LREAL"> F  </i>
    <v name="ROPT">      0.00000000</v>
    <i type="int" name="LMAXPAW">  -100</i>
    <i type="int" name="LMAXMIX">     2</i>
    <i type="logical" name="NLSPLINE"> F  </i>
   </separator>
   <separator name="electronic startup" >
    <i type="int" name="ISTART">     0</i>
    <i type="int" name="ICHARG">     2</i>
    <i type="int" name="INIWAV">     1</i>
   </separator>
   <separator name="electronic spin" >
    <i type="int" name="ISPIN">     1</i>
    <i type="logical" name="LNONCOLLINEAR"> F  </i>
    <v name="MAGMOM">      1.00000000      1.00000000      1.00000000      1.00000000      1.00000000      1.00000000      1.00000000      1.00000000      1.00000000      1.00000000      1.00000000      1.00000000      1.00000000      1.00000000      1.00000000      1.00000000      1.00000000      1.00000000      1.00000000      1.00000000
      1.00000000      1.00000000      1.00000000      1.00000000      1.00000000      1.00000000      1.00000000      1.00000000      1.00000000      1.00000000      1.00000000      1.00000000      1.00000000      1.00000000      1.00000000      1.00000000      1.00000000      1.00000000      1.00000000      1.00000000
      1.00000000      1.00000000      1.00000000      1.00000000      1.00000000      1.00000000      1.00000000      1.00000000      1.00000000      1.00000000      1.00000000      1.00000000      1.00000000      1.00000000      1.00000000      1.00000000      1.00000000      1.00000000      1.00000000      1.00000000
      1.00000000      1.00000000      1.00000000      1.00000000</v>
    <i name="NUPDOWN">     -1.00000000</i>
    <i type="logical" name="LSORBIT"> F  </i>
    <v name="SAXIS">      0.00000000      0.00000000      1.00000000</v>
    <i type="logical" name="LSPIRAL"> F  </i>
    <v name="QSPIRAL">      0.00000000      0.00000000      0.00000000</v>
    <i type="logical" name="LZEROZ"> F  </i>
   </separator>
   <separator name="electronic exchange-correlation" >
    <i type="logical" name="LASPH"> F  </i>
    <i type="logical" name="LMETAGGA"> F  </i>
   </separator>
   <separator name="electronic convergence" >
    <i type="int" name="NELM">    60</i>
    <i type="int" name="NELMDL">     0</i>
    <i type="int" name="NELMIN">     2</i>
    <i name="ENINI">    400.00000000</i>
    <separator name="electronic convergence detail" >
     <i type="logical" name="LDIAG"> T  </i>
     <i type="logical" name="LSUBROT"> F  </i>
     <i name="WEIMIN">      0.00100000</i>
     <i name="EBREAK">      0.00000000</i>
     <i name="DEPER">      0.30000000</i>
     <i type="int" name="NRMM">     4</i>
     <i name="TIME">      0.40000000</i>
    </separator>
   </separator>
   <separator name="electronic mixer" >
    <i name="AMIX">      0.40000000</i>
    <i name="BMIX">      1.00000000</i>
    <i name="AMIN">      0.10000000</i>
    <i name="AMIX_MAG">      1.60000000</i>
    <i name="BMIX_MAG">      1.00000000</i>
    <separator name="electronic mixer details" >
     <i type="int" name="IMIX">     4</i>
     <i type="logical" name="MIXFIRST"> F  </i>
     <i type="int" name="MAXMIX">   -45</i>
     <i name="WC">    100.00000000</i>
     <i type="int" name="INIMIX">     1</i>
     <i type="int" name="MIXPRE">     1</i>
     <i type="int" name="MREMOVE">     5</i>
    </separator>
   </separator>
   <separator name="electronic dipolcorrection" >
    <i type="logical" name="LDIPOL"> F  </i>
    <i type="logical" name="LMONO"> F  </i>
    <i type="int" name="IDIPOL">     0</i>
    <i name="EPSILON">      1.00000000</i>
    <v name="DIPOL">   -100.00000000   -100.00000000   -100.00000000</v>
    <i name="EFIELD">      0.00000000</i>
   </separator>
  </separator>
  <separator name="grids" >
   <i type="int" name="NGX">    48</i>
   <i type="int" name="NGY">    48</i>
   <i type="int" name="NGZ">    48</i>
   <i type="int" name="NGXF">    96</i>
   <i type="int" name="NGYF">    96</i>
   <i type="int" name="NGZF">    96</i>
   <i type="logical" name="ADDGRID"> T  </i>
  </separator>
  <separator name="ionic" >
   <i type="int" name="NSW">     1</i>
   <i type="int" name="IBRION">     8</i>
   <i type="int" name="MDALGO">     0</i>
   <i type="int" name="ISIF">     2</i>
   <i name="PSTRESS">      0.00000000</i>
   <i name="EDIFFG">      0.00000010</i>
   <i type="int" name="NFREE">     0</i>
   <i name="POTIM">      0.50000000</i>
   <i name="SMASS">     -3.00000000</i>
   <i name="SCALEE">      1.00000000</i>
  </separator>
  <separator name="ionic md" >
   <i name="TEBEG">      0.00010000</i>
   <i name="TEEND">      0.00010000</i>
   <i type="int" name="NBLOCK">     1</i>
   <i type="int" name="KBLOCK">     1</i>
   <i type="int" name="NPACO">   256</i>
   <i name="APACO">     16.00000000</i>
  </separator>
  <separator name="symmetry" >
   <i type="int" name="ISYM">     2</i>
   <i name="SYMPREC">      0.00001000</i>
  </separator>
  <separator name="dos" >
   <i type="int" name="LORBIT">     0</i>
   <v name="RWIGS">     -1.00000000</v>
   <i type="int" name="NEDOS">   301</i>
   <i name="EMIN">     10.00000000</i>
   <i name="EMAX">    -10.00000000</i>
   <i name="EFERMI">      0.00000000</i>
  </separator>
  <separator name="writing" >
   <i type="int" name="NWRITE">     2</i>
   <i type="logical" name="LWAVE"> F  </i>
   <i type="logical" name="LDOWNSAMPLE"> F  </i>
   <i type="logical" name="LCHARG"> F  </i>
   <i type="logical" name="LPARD"> F  </i>
   <i type="logical" name="LVTOT"> F  </i>
   <i type="logical" name="LVHAR"> F  </i>
   <i type="logical" name="LELF"> F  </i>
   <i type="logical" name="LOPTICS"> F  </i>
   <v name="STM">      0.00000000      0.00000000      0.00000000      0.00000000      0.00000000      0.00000000      0.00000000</v>
  </separator>
  <separator name="performance" >
   <i type="int" name="NPAR">    32</i>
   <i type="int" name="NSIM">     4</i>
   <i type="int" name="NBLK">    -1</i>
   <i type="logical" name="LPLANE"> T  </i>
   <i type="logical" name="LSCALAPACK"> T  </i>
   <i type="logical" name="LSCAAWARE"> F  </i>
   <i type="logical" name="LSCALU"> F  </i>
   <i type="logical" name="LASYNC"> F  </i>
   <i type="logical" name="LORBITALREAL"> F  </i>
  </separator>
  <separator name="miscellaneous" >
   <i type="int" name="IDIOT">     3</i>
   <i type="int" name="ISPECIAL">     0</i>
   <i type="logical" name="LMUSIC"> F  </i>
   <v name="POMASS">     12.01100000</v>
   <v name="DARWINR">      0.00000000</v>
   <v name="DARWINV">      1.00000000</v>
   <i type="logical" name="LCORR"> T  </i>
  </separator>
  <i type="logical" name="GGA_COMPAT"> T  </i>
  <i type="logical" name="LBERRY"> F  </i>
  <i type="int" name="ICORELEVEL">     0</i>
  <i type="logical" name="LDAU"> F  </i>
  <i type="int" name="I_CONSTRAINED_M">     0</i>
  <separator name="electronic exchange-correlation" >
   <i type="string" name="GGA">--</i>
   <i type="int" name="VOSKOWN">     0</i>
   <i type="logical" name="LHFCALC"> F  </i>
   <i type="string" name="PRECFOCK"></i>
   <i type="logical" name="LSYMGRAD"> F  </i>
   <i type="logical" name="LHFONE"> F  </i>
   <i type="logical" name="LRHFCALC"> F  </i>
   <i type="logical" name="LTHOMAS"> F  </i>
   <i type="logical" name="LMODELHF"> F  </i>
   <i name="ENCUT4O">     -1.00000000</i>
   <i type="int" name="EXXOEP">     0</i>
   <i type="int" name="FOURORBIT">     0</i>
   <i name="AEXX">      0.00000000</i>
   <i name="HFALPHA">      0.00000000</i>
   <i name="MCALPHA">      0.00000000</i>
   <i name="ALDAX">      1.00000000</i>
   <i name="AGGAX">      1.00000000</i>
   <i name="ALDAC">      1.00000000</i>
   <i name="AGGAC">      1.00000000</i>
   <i type="int" name="NKREDX">     1</i>
   <i type="int" name="NKREDY">     1</i>
   <i type="int" name="NKREDZ">     1</i>
   <i type="logical" name="SHIFTRED"> F  </i>
   <i type="logical" name="ODDONLY"> F  </i>
   <i type="logical" name="EVENONLY"> F  </i>
   <i type="int" name="LMAXFOCK">     0</i>
   <i type="int" name="NMAXFOCKAE">     0</i>
   <i type="logical" name="LFOCKAEDFT"> F  </i>
   <i name="HFSCREEN">      0.00000000</i>
   <i name="HFSCREENC">      0.00000000</i>
   <i type="int" name="NBANDSGWLOW">     0</i>
  </separator>
  <separator name="vdW DFT" >
   <i type="logical" name="LUSE_VDW"> F  </i>
   <i name="Zab_VDW">     -0.84910000</i>
   <i name="PARAM1">      0.12340000</i>
   <i name="PARAM2">      1.00000000</i>
   <i name="PARAM3">      0.00000000</i>
  </separator>
  <separator name="model GW" >
   <i type="int" name="MODEL_GW">     0</i>
   <i name="MODEL_EPS0">      2.96283963</i>
   <i name="MODEL_ALPHA">      1.00000000</i>
  </separator>
  <separator name="linear response parameters" >
   <i type="logical" name="LEPSILON"> F  </i>
   <i type="logical" name="LRPA"> F  </i>
   <i type="logical" name="LNABLA"> F  </i>
   <i type="logical" name="LVEL"> F  </i>
   <i type="int" name="KINTER">     0</i>
   <i name="CSHIFT">      0.10000000</i>
   <i name="OMEGAMAX">     -1.00000000</i>
   <i name="DEG_THRESHOLD">      0.00200000</i>
   <i name="RTIME">     -0.10000000</i>
   <i name="WPLASMAI">      0.00000000</i>
   <v name="DFIELD">      0.00000000      0.00000000      0.00000000</v>
   <v name="WPLASMA">      0.00000000      0.00000000      0.00000000      0.00000000      0.00000000      0.00000000      0.00000000      0.00000000      0.00000000</v>
  </separator>
  <separator name="orbital magnetization" >
   <i type="logical" name="NUCIND"> F  </i>
   <v name="MAGPOS">      0.00000000      0.00000000      0.00000000</v>
   <i type="logical" name="LNICSALL"> T  </i>
   <i type="logical" name="ORBITALMAG"> F  </i>
   <i type="logical" name="LMAGBLOCH"> F  </i>
   <i type="logical" name="LCHIMAG"> F  </i>
   <i type="logical" name="LGAUGE"> T  </i>
   <i type="int" name="MAGATOM">     0</i>
   <v name="MAGDIPOL">      0.00000000      0.00000000      0.00000000</v>
   <v name="AVECCONST">      0.00000000      0.00000000      0.00000000</v>
  </separator>
  <separator name="response functions" >
   <i type="logical" name="LADDER"> F  </i>
   <i type="logical" name="LRPAFORCE"> F  </i>
   <i type="logical" name="LFXC"> F  </i>
   <i type="logical" name="LHARTREE"> T  </i>
   <i type="int" name="IBSE">     0</i>
   <v type="int" name="KPOINT">    -1     0     0     0</v>
   <i type="logical" name="LTCTE"> F  </i>
   <i type="logical" name="LTETE"> F  </i>
   <i type="logical" name="LTRIPLET"> F  </i>
   <i type="logical" name="LFXCEPS"> F  </i>
   <i type="logical" name="LFXHEG"> F  </i>
   <i type="int" name="NATURALO">     2</i>
   <i type="logical" name="L2ORDER"> F  </i>
   <i type="logical" name="LMP2LT"> F  </i>
   <i type="logical" name="LUSEW"> F  </i>
   <i name="ENCUTGW">     -2.00000000</i>
   <i name="ENCUTGWSOFT">     -2.00000000</i>
   <i name="ENCUTLF">     -1.00000000</i>
   <i type="int" name="LMAXMP2">    -1</i>
   <i name="SCISSOR">      0.00000000</i>
   <i type="int" name="NOMEGA">     0</i>
   <i type="int" name="NOMEGAR">     0</i>
   <i type="int" name="NBANDSGW">    -1</i>
   <i type="int" name="NBANDSO">    -1</i>
   <i type="int" name="NBANDSV">    -1</i>
   <i type="int" name="NELM">     1</i>
   <i type="int" name="NELMHF">     1</i>
   <i type="int" name="DIM">     3</i>
   <i type="int" name="ANTIRES">     0</i>
   <i name="OMEGAMAX">    -30.00000000</i>
   <i name="OMEGAMIN">    -30.00000000</i>
   <i name="OMEGATL">   -200.00000000</i>
   <i type="int" name="OMEGAGRID">   140</i>
   <i name="CSHIFT">     -0.10000000</i>
   <i type="logical" name="SELFENERGY"> F  </i>
   <i type="logical" name="LSPECTRAL"> F  </i>
   <i type="logical" name="LSPECTRALGW"> F  </i>
   <i type="logical" name="LSINGLES"> F  </i>
   <i type="logical" name="LFERMIGW"> F  </i>
   <i type="logical" name="ODDONLYGW"> F  </i>
   <i type="logical" name="EVENONLYGW"> F  </i>
   <i type="int" name="NKREDLFX">     1</i>
   <i type="int" name="NKREDLFY">     1</i>
   <i type="int" name="NKREDLFZ">     1</i>
   <i type="int" name="MAXMEM">  2800</i>
   <i type="int" name="TELESCOPE">     0</i>
   <i type="int" name="TAUPAR">     1</i>
   <i type="int" name="OMEGAPAR">    -1</i>
   <i name="LAMBDA">      1.00000000</i>
  </separator>
  <separator name="External order field" >
   <i name="OFIELD_KAPPA">      0.00000000</i>
   <v name="OFIELD_K">      0.00000000      0.00000000      0.00000000</v>
   <i name="OFIELD_Q6_NEAR">      0.00000000</i>
   <i name="OFIELD_Q6_FAR">      0.00000000</i>
   <i name="OFIELD_A">      0.00000000</i>
  </separator>
 </parameters>
 <atominfo>
  <atoms>      64 </atoms>
  <types>       1 </types>
  <array name="atoms" >
   <dimension dim="1">ion</dimension>
   <field type="string">element</field>
   <field type="int">atomtype</field>
   <set>
    <rc><c>C </c><c>   1</c></rc>
    <rc><c>C </c><c>   1</c></rc>
    <rc><c>C </c><c>   1</c></rc>
    <rc><c>C </c><c>   1</c></rc>
    <rc><c>C </c><c>   1</c></rc>
    <rc><c>C </c><c>   1</c></rc>
    <rc><c>C </c><c>   1</c></rc>
    <rc><c>C </c><c>   1</c></rc>
    <rc><c>C </c><c>   1</c></rc>
    <rc><c>C </c><c>   1</c></rc>
    <rc><c>C </c><c>   1</c></rc>
    <rc><c>C </c><c>   1</c></rc>
    <rc><c>C </c><c>   1</c></rc>
    <rc><c>C </c><c>   1</c></rc>
    <rc><c>C </c><c>   1</c></rc>
    <rc><c>C </c><c>   1</c></rc>
    <rc><c>C </c><c>   1</c></rc>
    <rc><c>C </c><c>   1</c></rc>
    <rc><c>C </c><c>   1</c></rc>
    <rc><c>C </c><c>   1</c></rc>
    <rc><c>C </c><c>   1</c></rc>
    <rc><c>C </c><c>   1</c></rc>
    <rc><c>C </c><c>   1</c></rc>
    <rc><c>C </c><c>   1</c></rc>
    <rc><c>C </c><c>   1</c></rc>
    <rc><c>C </c><c>   1</c></rc>
    <rc><c>C </c><c>   1</c></rc>
    <rc><c>C </c><c>   1</c></rc>
    <rc><c>C </c><c>   1</c></rc>
    <rc><c>C </c><c>   1</c></rc>
    <rc><c>C </c><c>   1</c></rc>
    <rc><c>C </c><c>   1</c></rc>
    <rc><c>C </c><c>   1</c></rc>
    <rc><c>C </c><c>   1</c></rc>
    <rc><c>C </c><c>   1</c></rc>
    <rc><c>C </c><c>   1</c></rc>
    <rc><c>C </c><c>   1</c></rc>
    <rc><c>C </c><c>   1</c></rc>
    <rc><c>C </c><c>   1</c></rc>
    <rc><c>C </c><c>   1</c></rc>
    <rc><c>C </c><c>   1</c></rc>
    <rc><c>C </c><c>   1</c></rc>
    <rc><c>C </c><c>   1</c></rc>
    <rc><c>C </c><c>   1</c></rc>
    <rc><c>C </c><c>   1</c></rc>
    <rc><c>C </c><c>   1</c></rc>
    <rc><c>C </c><c>   1</c></rc>
    <rc><c>C </c><c>   1</c></rc>
    <rc><c>C </c><c>   1</c></rc>
    <rc><c>C </c><c>   1</c></rc>
    <rc><c>C </c><c>   1</c></rc>
    <rc><c>C </c><c>   1</c></rc>
    <rc><c>C </c><c>   1</c></rc>
    <rc><c>C </c><c>   1</c></rc>
    <rc><c>C </c><c>   1</c></rc>
    <rc><c>C </c><c>   1</c></rc>
    <rc><c>C </c><c>   1</c></rc>
    <rc><c>C </c><c>   1</c></rc>
    <rc><c>C </c><c>   1</c></rc>
    <rc><c>C </c><c>   1</c></rc>
    <rc><c>C </c><c>   1</c></rc>
    <rc><c>C </c><c>   1</c></rc>
    <rc><c>C </c><c>   1</c></rc>
    <rc><c>C </c><c>   1</c></rc>
   </set>
  </array>
  <array name="atomtypes" >
   <dimension dim="1">type</dimension>
   <field type="int">atomspertype</field>
   <field type="string">element</field>
   <field>mass</field>
   <field>valence</field>
   <field type="string">pseudopotential</field>
   <set>
    <rc><c>  64</c><c>C </c><c>     12.01100000</c><c>      4.00000000</c><c> PAW_PBE C 08Apr2002                    </c></rc>
   </set>
  </array>
 </atominfo>
 <structure name="initialpos" >
  <crystal>
   <varray name="basis" >
    <v>       6.81154489       0.00000000       0.00000000 </v>
    <v>       0.00000000       6.81154489       0.00000000 </v>
    <v>       0.00000000       0.00000000       6.81154489 </v>
   </varray>
   <i name="volume">    316.03622708 </i>
   <varray name="rec_basis" >
    <v>       0.14680957       0.00000000       0.00000000 </v>
    <v>       0.00000000       0.14680957       0.00000000 </v>
    <v>       0.00000000       0.00000000       0.14680957 </v>
   </varray>
  </crystal>
  <varray name="positions" >
   <v>       0.12500000       0.37500000       0.12500000 </v>
   <v>       0.62500000       0.37500000       0.12500000 </v>
   <v>       0.12500000       0.87500000       0.12500000 </v>
   <v>       0.62500000       0.87500000       0.12500000 </v>
   <v>       0.12500000       0.37500000       0.62500000 </v>
   <v>       0.62500000       0.37500000       0.62500000 </v>
   <v>       0.12500000       0.87500000       0.62500000 </v>
   <v>       0.62500000       0.87500000       0.62500000 </v>
   <v>       0.00000000       0.00000000       0.25000000 </v>
   <v>       0.50000000       0.00000000       0.25000000 </v>
   <v>       0.00000000       0.50000000       0.25000000 </v>
   <v>       0.50000000       0.50000000       0.25000000 </v>
   <v>       0.00000000       0.00000000       0.75000000 </v>
   <v>       0.50000000       0.00000000       0.75000000 </v>
   <v>       0.00000000       0.50000000       0.75000000 </v>
   <v>       0.50000000       0.50000000       0.75000000 </v>
   <v>       0.12500000       0.12500000       0.37500000 </v>
   <v>       0.62500000       0.12500000       0.37500000 </v>
   <v>       0.12500000       0.62500000       0.37500000 </v>
   <v>       0.62500000       0.62500000       0.37500000 </v>
   <v>       0.12500000       0.12500000       0.87500000 </v>
   <v>       0.62500000       0.12500000       0.87500000 </v>
   <v>       0.12500000       0.62500000       0.87500000 </v>
   <v>       0.62500000       0.62500000       0.87500000 </v>
   <v>       0.00000000       0.25000000       0.00000000 </v>
   <v>       0.50000000       0.25000000       0.00000000 </v>
   <v>       0.00000000       0.75000000       0.00000000 </v>
   <v>       0.50000000       0.75000000       0.00000000 </v>
   <v>       0.00000000       0.25000000       0.50000000 </v>
   <v>       0.50000000       0.25000000       0.50000000 </v>
   <v>       0.00000000       0.75000000       0.50000000 </v>
   <v>       0.50000000       0.75000000       0.50000000 </v>
   <v>       0.37500000       0.37500000       0.37500000 </v>
   <v>       0.87500000       0.37500000       0.37500000 </v>
   <v>       0.37500000       0.87500000       0.37500000 </v>
   <v>       0.87500000       0.87500000       0.37500000 </v>
   <v>       0.37500000       0.37500000       0.87500000 </v>
   <v>       0.87500000       0.37500000       0.87500000 </v>
   <v>       0.37500000       0.87500000       0.87500000 </v>
   <v>       0.87500000       0.87500000       0.87500000 </v>
   <v>       0.25000000       0.00000000       0.00000000 </v>
   <v>       0.75000000       0.00000000       0.00000000 </v>
   <v>       0.25000000       0.50000000       0.00000000 </v>
   <v>       0.75000000       0.50000000       0.00000000 </v>
   <v>       0.25000000       0.00000000       0.50000000 </v>
   <v>       0.75000000       0.00000000       0.50000000 </v>
   <v>       0.25000000       0.50000000       0.50000000 </v>
   <v>       0.75000000       0.50000000       0.50000000 </v>
   <v>       0.37500000       0.12500000       0.12500000 </v>
   <v>       0.87500000       0.12500000       0.12500000 </v>
   <v>       0.37500000       0.62500000       0.12500000 </v>
   <v>       0.87500000       0.62500000       0.12500000 </v>
   <v>       0.37500000       0.12500000       0.62500000 </v>
   <v>       0.87500000       0.12500000       0.62500000 </v>
   <v>       0.37500000       0.62500000       0.62500000 </v>
   <v>       0.87500000       0.62500000       0.62500000 </v>
   <v>       0.25000000       0.25000000       0.25000000 </v>
   <v>       0.75000000       0.25000000       0.25000000 </v>
   <v>       0.25000000       0.75000000       0.25000000 </v>
   <v>       0.75000000       0.75000000       0.25000000 </v>
   <v>       0.25000000       0.25000000       0.75000000 </v>
   <v>       0.75000000       0.25000000       0.75000000 </v>
   <v>       0.25000000       0.75000000       0.75000000 </v>
   <v>       0.75000000       0.75000000       0.75000000 </v>
  </varray>
 </structure>
 <calculation>
  <scstep>
   <time name="dav">   12.60   12.62</time>
   <time name="total">   12.72   12.88</time>
   <energy>
    <i name="alphaZ">   1056.02688283 </i>
    <i name="ewald"> -11661.14452602 </i>
    <i name="hartreedc">   -470.89321884 </i>
    <i name="XCdc">    944.61011757 </i>
    <i name="pawpsdc">   2421.21235816 </i>
    <i name="pawaedc">  -2494.84305711 </i>
    <i name="eentropy">     -0.00593094 </i>
    <i name="bandstr">   1328.94699018 </i>
    <i name="atom">   9416.14232778 </i>
    <i name="e_fr_energy">    540.05194360 </i>
    <i name="e_wo_entrp">    540.05787454 </i>
    <i name="e_0_energy">    540.05490907 </i>
   </energy>
  </scstep>
  <scstep>
   <time name="dav">   16.47   16.47</time>
   <time name="total">   16.47   16.48</time>
   <energy>
    <i name="e_fr_energy">   -561.81740665 </i>
    <i name="e_wo_entrp">   -561.81740665 </i>
    <i name="e_0_energy">   -561.81740665 </i>
   </energy>
  </scstep>
  <scstep>
   <time name="dav">   16.53   16.53</time>
   <time name="total">   16.53   16.53</time>
   <energy>
    <i name="e_fr_energy">   -600.64052456 </i>
    <i name="e_wo_entrp">   -600.64052456 </i>
    <i name="e_0_energy">   -600.64052456 </i>
   </energy>
  </scstep>
  <scstep>
   <time name="dav">   15.65   15.66</time>
   <time name="total">   15.66   15.66</time>
   <energy>
    <i name="e_fr_energy">   -600.97387374 </i>
    <i name="e_wo_entrp">   -600.97387374 </i>
    <i name="e_0_energy">   -600.97387374 </i>
   </energy>
  </scstep>
  <scstep>
   <time name="dav">   15.26   15.26</time>
   <time name="total">   15.79   15.80</time>
   <energy>
    <i name="e_fr_energy">   -600.97975544 </i>
    <i name="e_wo_entrp">   -600.97975544 </i>
    <i name="e_0_energy">   -600.97975544 </i>
   </energy>
  </scstep>
  <scstep>
   <time name="dav">   14.52   14.52</time>
   <time name="total">   15.14   15.14</time>
   <energy>
    <i name="e_fr_energy">   -578.47765301 </i>
    <i name="e_wo_entrp">   -578.47765301 </i>
    <i name="e_0_energy">   -578.47765301 </i>
   </energy>
  </scstep>
  <scstep>
   <time name="dav">   15.00   15.00</time>
   <time name="total">   15.62   15.62</time>
   <energy>
    <i name="e_fr_energy">   -570.92216701 </i>
    <i name="e_wo_entrp">   -570.92216701 </i>
    <i name="e_0_energy">   -570.92216701 </i>
   </energy>
  </scstep>
  <scstep>
   <time name="dav">   14.86   14.86</time>
   <time name="total">   15.49   15.49</time>
   <energy>
    <i name="e_fr_energy">   -570.99832386 </i>
    <i name="e_wo_entrp">   -570.99832386 </i>
    <i name="e_0_energy">   -570.99832386 </i>
   </energy>
  </scstep>
  <scstep>
   <time name="dav">   16.63   16.63</time>
   <time name="total">   17.26   17.26</time>
   <energy>
    <i name="e_fr_energy">   -571.00030589 </i>
    <i name="e_wo_entrp">   -571.00030589 </i>
    <i name="e_0_energy">   -571.00030589 </i>
   </energy>
  </scstep>
  <scstep>
   <time name="dav">   15.62   15.62</time>
   <time name="total">   16.25   16.26</time>
   <energy>
    <i name="e_fr_energy">   -571.00068533 </i>
    <i name="e_wo_entrp">   -571.00068533 </i>
    <i name="e_0_energy">   -571.00068533 </i>
   </energy>
  </scstep>
  <scstep>
   <time name="dav">   17.12   17.12</time>
   <time name="total">   17.78   17.78</time>
   <energy>
    <i name="e_fr_energy">   -571.00069332 </i>
    <i name="e_wo_entrp">   -571.00069332 </i>
    <i name="e_0_energy">   -571.00069332 </i>
   </energy>
  </scstep>
  <scstep>
   <time name="dav">   16.15   16.15</time>
   <time name="total">   16.78   16.78</time>
   <energy>
    <i name="e_fr_energy">   -571.00069281 </i>
    <i name="e_wo_entrp">   -571.00069281 </i>
    <i name="e_0_energy">   -571.00069281 </i>
   </energy>
  </scstep>
  <scstep>
   <time name="dav">   12.91   12.91</time>
   <time name="total">   13.53   13.53</time>
   <energy>
    <i name="e_fr_energy">   -571.00069278 </i>
    <i name="e_wo_entrp">   -571.00069278 </i>
    <i name="e_0_energy">   -571.00069278 </i>
   </energy>
  </scstep>
  <scstep>
   <time name="dav">   11.30   11.30</time>
   <time name="total">   11.94   11.94</time>
   <energy>
    <i name="e_fr_energy">   -571.00069281 </i>
    <i name="e_wo_entrp">   -571.00069281 </i>
    <i name="e_0_energy">   -571.00069281 </i>
   </energy>
  </scstep>
  <scstep>
   <time name="dav">   11.09   11.09</time>
   <time name="total">   11.20   11.20</time>
   <energy>
    <i name="alphaZ">   1056.02688283 </i>
    <i name="ewald"> -11661.14452602 </i>
    <i name="hartreedc">   -783.73816049 </i>
    <i name="XCdc">    974.43683663 </i>
    <i name="pawpsdc">   4859.50812874 </i>
    <i name="pawaedc">  -4943.65703641 </i>
    <i name="eentropy">     -0.00000000 </i>
    <i name="bandstr">    511.42485413 </i>
    <i name="atom">   9416.14232778 </i>
    <i name="e_fr_energy">   -571.00069281 </i>
    <i name="e_wo_entrp">   -571.00069281 </i>
    <i name="e_0_energy">   -571.00069281 </i>
   </energy>
  </scstep>
  <structure>
   <crystal>
    <varray name="basis" >
     <v>       6.81154489       0.00000000       0.00000000 </v>
     <v>       0.00000000       6.81154489       0.00000000 </v>
     <v>       0.00000000       0.00000000       6.81154489 </v>
    </varray>
    <i name="volume">    316.03622708 </i>
    <varray name="rec_basis" >
     <v>       0.14680957       0.00000000       0.00000000 </v>
     <v>       0.00000000       0.14680957       0.00000000 </v>
     <v>       0.00000000       0.00000000       0.14680957 </v>
    </varray>
   </crystal>
   <varray name="positions" >
    <v>       0.12500000       0.37500000       0.12500000 </v>
    <v>       0.62500000       0.37500000       0.12500000 </v>
    <v>       0.12500000       0.87500000       0.12500000 </v>
    <v>       0.62500000       0.87500000       0.12500000 </v>
    <v>       0.12500000       0.37500000       0.62500000 </v>
    <v>       0.62500000       0.37500000       0.62500000 </v>
    <v>       0.12500000       0.87500000       0.62500000 </v>
    <v>       0.62500000       0.87500000       0.62500000 </v>
    <v>       0.00000000       0.00000000       0.25000000 </v>
    <v>       0.50000000       0.00000000       0.25000000 </v>
    <v>       0.00000000       0.50000000       0.25000000 </v>
    <v>       0.50000000       0.50000000       0.25000000 </v>
    <v>       0.00000000       0.00000000       0.75000000 </v>
    <v>       0.50000000       0.00000000       0.75000000 </v>
    <v>       0.00000000       0.50000000       0.75000000 </v>
    <v>       0.50000000       0.50000000       0.75000000 </v>
    <v>       0.12500000       0.12500000       0.37500000 </v>
    <v>       0.62500000       0.12500000       0.37500000 </v>
    <v>       0.12500000       0.62500000       0.37500000 </v>
    <v>       0.62500000       0.62500000       0.37500000 </v>
    <v>       0.12500000       0.12500000       0.87500000 </v>
    <v>       0.62500000       0.12500000       0.87500000 </v>
    <v>       0.12500000       0.62500000       0.87500000 </v>
    <v>       0.62500000       0.62500000       0.87500000 </v>
    <v>       0.00000000       0.25000000       0.00000000 </v>
    <v>       0.50000000       0.25000000       0.00000000 </v>
    <v>       0.00000000       0.75000000       0.00000000 </v>
    <v>       0.50000000       0.75000000       0.00000000 </v>
    <v>       0.00000000       0.25000000       0.50000000 </v>
    <v>       0.50000000       0.25000000       0.50000000 </v>
    <v>       0.00000000       0.75000000       0.50000000 </v>
    <v>       0.50000000       0.75000000       0.50000000 </v>
    <v>       0.37500000       0.37500000       0.37500000 </v>
    <v>       0.87500000       0.37500000       0.37500000 </v>
    <v>       0.37500000       0.87500000       0.37500000 </v>
    <v>       0.87500000       0.87500000       0.37500000 </v>
    <v>       0.37500000       0.37500000       0.87500000 </v>
    <v>       0.87500000       0.37500000       0.87500000 </v>
    <v>       0.37500000       0.87500000       0.87500000 </v>
    <v>       0.87500000       0.87500000       0.87500000 </v>
    <v>       0.25000000       0.00000000       0.00000000 </v>
    <v>       0.75000000       0.00000000       0.00000000 </v>
    <v>       0.25000000       0.50000000       0.00000000 </v>
    <v>       0.75000000       0.50000000       0.00000000 </v>
    <v>       0.25000000       0.00000000       0.50000000 </v>
    <v>       0.75000000       0.00000000       0.50000000 </v>
    <v>       0.25000000       0.50000000       0.50000000 </v>
    <v>       0.75000000       0.50000000       0.50000000 </v>
    <v>       0.37500000       0.12500000       0.12500000 </v>
    <v>       0.87500000       0.12500000       0.12500000 </v>
    <v>       0.37500000       0.62500000       0.12500000 </v>
    <v>       0.87500000       0.62500000       0.12500000 </v>
    <v>       0.37500000       0.12500000       0.62500000 </v>
    <v>       0.87500000       0.12500000       0.62500000 </v>
    <v>       0.37500000       0.62500000       0.62500000 </v>
    <v>       0.87500000       0.62500000       0.62500000 </v>
    <v>       0.25000000       0.25000000       0.25000000 </v>
    <v>       0.75000000       0.25000000       0.25000000 </v>
    <v>       0.25000000       0.75000000       0.25000000 </v>
    <v>       0.75000000       0.75000000       0.25000000 </v>
    <v>       0.25000000       0.25000000       0.75000000 </v>
    <v>       0.75000000       0.25000000       0.75000000 </v>
    <v>       0.25000000       0.75000000       0.75000000 </v>
    <v>       0.75000000       0.75000000       0.75000000 </v>
   </varray>
  </structure>
  <varray name="forces" >
   <v>      -0.00000000       0.00000000       0.00000000 </v>
   <v>       0.00000000       0.00000000       0.00000000 </v>
   <v>       0.00000000       0.00000000      -0.00000000 </v>
   <v>       0.00000000      -0.00000000      -0.00000000 </v>
   <v>       0.00000000       0.00000000       0.00000000 </v>
   <v>      -0.00000000       0.00000000       0.00000000 </v>
   <v>      -0.00000000      -0.00000000       0.00000000 </v>
   <v>       0.00000000       0.00000000       0.00000000 </v>
   <v>      -0.00000000      -0.00000000      -0.00000000 </v>
   <v>      -0.00000000      -0.00000000      -0.00000000 </v>
   <v>      -0.00000000      -0.00000000       0.00000000 </v>
   <v>      -0.00000000      -0.00000000      -0.00000000 </v>
   <v>      -0.00000000      -0.00000000       0.00000000 </v>
   <v>      -0.00000000      -0.00000000      -0.00000000 </v>
   <v>      -0.00000000      -0.00000000      -0.00000000 </v>
   <v>       0.00000000      -0.00000000      -0.00000000 </v>
   <v>       0.00000000       0.00000000       0.00000000 </v>
   <v>       0.00000000       0.00000000      -0.00000000 </v>
   <v>       0.00000000      -0.00000000      -0.00000000 </v>
   <v>       0.00000000       0.00000000       0.00000000 </v>
   <v>       0.00000000      -0.00000000       0.00000000 </v>
   <v>       0.00000000      -0.00000000       0.00000000 </v>
   <v>       0.00000000       0.00000000       0.00000000 </v>
   <v>       0.00000000      -0.00000000       0.00000000 </v>
   <v>       0.00000000      -0.00000000      -0.00000000 </v>
   <v>      -0.00000000      -0.00000000      -0.00000000 </v>
   <v>      -0.00000000       0.00000000      -0.00000000 </v>
   <v>       0.00000000      -0.00000000      -0.00000000 </v>
   <v>      -0.00000000      -0.00000000      -0.00000000 </v>
   <v>      -0.00000000       0.00000000       0.00000000 </v>
   <v>      -0.00000000       0.00000000      -0.00000000 </v>
   <v>      -0.00000000      -0.00000000      -0.00000000 </v>
   <v>       0.00000000       0.00000000       0.00000000 </v>
   <v>       0.00000000       0.00000000       0.00000000 </v>
   <v>       0.00000000      -0.00000000      -0.00000000 </v>
   <v>       0.00000000       0.00000000       0.00000000 </v>
   <v>      -0.00000000      -0.00000000       0.00000000 </v>
   <v>       0.00000000      -0.00000000       0.00000000 </v>
   <v>       0.00000000       0.00000000       0.00000000 </v>
   <v>       0.00000000      -0.00000000      -0.00000000 </v>
   <v>       0.00000000      -0.00000000      -0.00000000 </v>
   <v>       0.00000000       0.00000000      -0.00000000 </v>
   <v>       0.00000000      -0.00000000      -0.00000000 </v>
   <v>      -0.00000000      -0.00000000      -0.00000000 </v>
   <v>      -0.00000000       0.00000000      -0.00000000 </v>
   <v>      -0.00000000      -0.00000000      -0.00000000 </v>
   <v>      -0.00000000      -0.00000000      -0.00000000 </v>
   <v>      -0.00000000       0.00000000       0.00000000 </v>
   <v>       0.00000000       0.00000000       0.00000000 </v>
   <v>       0.00000000      -0.00000000      -0.00000000 </v>
   <v>       0.00000000      -0.00000000       0.00000000 </v>
   <v>       0.00000000       0.00000000       0.00000000 </v>
   <v>      -0.00000000       0.00000000       0.00000000 </v>
   <v>       0.00000000       0.00000000       0.00000000 </v>
   <v>       0.00000000       0.00000000       0.00000000 </v>
   <v>      -0.00000000       0.00000000       0.00000000 </v>
   <v>      -0.00000000      -0.00000000       0.00000000 </v>
   <v>      -0.00000000      -0.00000000       0.00000000 </v>
   <v>      -0.00000000      -0.00000000      -0.00000000 </v>
   <v>      -0.00000000      -0.00000000      -0.00000000 </v>
   <v>      -0.00000000      -0.00000000      -0.00000000 </v>
   <v>      -0.00000000      -0.00000000      -0.00000000 </v>
   <v>      -0.00000000      -0.00000000      -0.00000000 </v>
   <v>      -0.00000000      -0.00000000      -0.00000000 </v>
  </varray>
  <varray name="stress" >
   <v>     774.63383604      -0.00000000       0.00000000 </v>
   <v>       0.00000000     774.63383604       0.00000000 </v>
   <v>      -0.00000000      -0.00000000     774.63383604 </v>
  </varray>
  <energy>
   <i name="e_fr_energy">   -571.00069281 </i>
   <i name="e_wo_entrp">   -571.00069281 </i>
   <i name="e_0_energy">     -0.00000000 </i>
  </energy>
  <kpoints>
   <generation param="Gamma">
    <v type="int" name="divisions">       6        6        6 </v>
    <v name="usershift">      0.00000000       0.00000000       0.00000000 </v>
    <v name="genvec1">      0.16666667       0.00000000       0.00000000 </v>
    <v name="genvec2">      0.00000000       0.16666667       0.00000000 </v>
    <v name="genvec3">      0.00000000       0.00000000       0.16666667 </v>
    <v name="shift">      0.00000000       0.00000000       0.00000000 </v>
   </generation>
   <varray name="kpointlist" >
    <v>       0.00000000       0.00000000       0.00000000 </v>
    <v>       0.16666667       0.00000000       0.00000000 </v>
    <v>       0.33333333       0.00000000       0.00000000 </v>
    <v>       0.50000000       0.00000000       0.00000000 </v>
    <v>       0.00000000       0.16666667       0.00000000 </v>
    <v>       0.16666667       0.16666667       0.00000000 </v>
    <v>       0.33333333       0.16666667       0.00000000 </v>
    <v>       0.50000000       0.16666667       0.00000000 </v>
    <v>       0.00000000       0.33333333       0.00000000 </v>
    <v>       0.16666667       0.33333333       0.00000000 </v>
    <v>       0.33333333       0.33333333       0.00000000 </v>
    <v>       0.50000000       0.33333333       0.00000000 </v>
    <v>       0.00000000       0.50000000       0.00000000 </v>
    <v>       0.16666667       0.50000000       0.00000000 </v>
    <v>       0.33333333       0.50000000       0.00000000 </v>
    <v>       0.50000000       0.50000000       0.00000000 </v>
    <v>       0.00000000       0.16666667       0.16666667 </v>
    <v>       0.16666667       0.16666667       0.16666667 </v>
    <v>       0.33333333       0.16666667       0.16666667 </v>
    <v>       0.50000000       0.16666667       0.16666667 </v>
    <v>       0.00000000       0.33333333       0.16666667 </v>
    <v>       0.16666667       0.33333333       0.16666667 </v>
    <v>       0.33333333       0.33333333       0.16666667 </v>
    <v>       0.50000000       0.33333333       0.16666667 </v>
    <v>       0.00000000       0.50000000       0.16666667 </v>
    <v>       0.16666667       0.50000000       0.16666667 </v>
    <v>       0.33333333       0.50000000       0.16666667 </v>
    <v>       0.50000000       0.50000000       0.16666667 </v>
    <v>       0.00000000      -0.33333333       0.16666667 </v>
    <v>       0.16666667      -0.33333333       0.16666667 </v>
    <v>       0.33333333      -0.33333333       0.16666667 </v>
    <v>       0.50000000      -0.33333333       0.16666667 </v>
    <v>       0.00000000      -0.16666667       0.16666667 </v>
    <v>       0.16666667      -0.16666667       0.16666667 </v>
    <v>       0.33333333      -0.16666667       0.16666667 </v>
    <v>       0.50000000      -0.16666667       0.16666667 </v>
    <v>       0.00000000       0.33333333       0.33333333 </v>
    <v>       0.16666667       0.33333333       0.33333333 </v>
    <v>       0.33333333       0.33333333       0.33333333 </v>
    <v>       0.50000000       0.33333333       0.33333333 </v>
    <v>       0.00000000       0.50000000       0.33333333 </v>
    <v>       0.16666667       0.50000000       0.33333333 </v>
    <v>       0.33333333       0.50000000       0.33333333 </v>
    <v>       0.50000000       0.50000000       0.33333333 </v>
    <v>       0.00000000      -0.33333333       0.33333333 </v>
    <v>       0.16666667      -0.33333333       0.33333333 </v>
    <v>       0.33333333      -0.33333333       0.33333333 </v>
    <v>       0.50000000      -0.33333333       0.33333333 </v>
    <v>       0.00000000       0.50000000       0.50000000 </v>
    <v>       0.16666667       0.50000000       0.50000000 </v>
    <v>       0.33333333       0.50000000       0.50000000 </v>
    <v>       0.50000000       0.50000000       0.50000000 </v>
   </varray>
   <varray name="weights" >
    <v>       0.00462963 </v>
    <v>       0.00925926 </v>
    <v>       0.00925926 </v>
    <v>       0.00462963 </v>
    <v>       0.01851852 </v>
    <v>       0.03703704 </v>
    <v>       0.03703704 </v>
    <v>       0.01851852 </v>
    <v>       0.01851852 </v>
    <v>       0.03703704 </v>
    <v>       0.03703704 </v>
    <v>       0.01851852 </v>
    <v>       0.00925926 </v>
    <v>       0.01851852 </v>
    <v>       0.01851852 </v>
    <v>       0.00925926 </v>
    <v>       0.00925926 </v>
    <v>       0.01851852 </v>
    <v>       0.01851852 </v>
    <v>       0.00925926 </v>
    <v>       0.01851852 </v>
    <v>       0.03703704 </v>
    <v>       0.03703704 </v>
    <v>       0.01851852 </v>
    <v>       0.01851852 </v>
    <v>       0.03703704 </v>
    <v>       0.03703704 </v>
    <v>       0.01851852 </v>
    <v>       0.01851852 </v>
    <v>       0.03703704 </v>
    <v>       0.03703704 </v>
    <v>       0.01851852 </v>
    <v>       0.00925926 </v>
    <v>       0.01851852 </v>
    <v>       0.01851852 </v>
    <v>       0.00925926 </v>
    <v>       0.00925926 </v>
    <v>       0.01851852 </v>
    <v>       0.01851852 </v>
    <v>       0.00925926 </v>
    <v>       0.01851852 </v>
    <v>       0.03703704 </v>
    <v>       0.03703704 </v>
    <v>       0.01851852 </v>
    <v>       0.00925926 </v>
    <v>       0.01851852 </v>
    <v>       0.01851852 </v>
    <v>       0.00925926 </v>
    <v>       0.00462963 </v>
    <v>       0.00925926 </v>
    <v>       0.00925926 </v>
    <v>       0.00462963 </v>
   </varray>
  </kpoints>
  <scstep>
   <time name="total">   38.84   38.84</time>
   <energy>
    <i name="e_fr_energy">   -390.32197545 </i>
    <i name="e_wo_entrp">   -390.32197545 </i>
    <i name="e_0_energy">   -390.32197545 </i>
   </energy>
  </scstep>
  <scstep>
   <time name="total">   29.13   29.14</time>
   <energy>
    <i name="e_fr_energy">   -325.53851132 </i>
    <i name="e_wo_entrp">   -325.53851132 </i>
    <i name="e_0_energy">   -325.53851132 </i>
   </energy>
  </scstep>
  <scstep>
   <time name="total">   29.37   29.37</time>
   <energy>
    <i name="e_fr_energy">   -324.53690072 </i>
    <i name="e_wo_entrp">   -324.53690072 </i>
    <i name="e_0_energy">   -324.53690072 </i>
   </energy>
  </scstep>
  <scstep>
   <time name="total">   31.14   31.14</time>
   <energy>
    <i name="e_fr_energy">   -325.50837915 </i>
    <i name="e_wo_entrp">   -325.50837915 </i>
    <i name="e_0_energy">   -325.50837915 </i>
   </energy>
  </scstep>
  <scstep>
   <time name="total">   29.86   29.86</time>
   <energy>
    <i name="e_fr_energy">   -325.83266855 </i>
    <i name="e_wo_entrp">   -325.83266855 </i>
    <i name="e_0_energy">   -325.83266855 </i>
   </energy>
  </scstep>
  <scstep>
   <time name="total">   30.17   30.17</time>
   <energy>
    <i name="e_fr_energy">   -325.79815319 </i>
    <i name="e_wo_entrp">   -325.79815319 </i>
    <i name="e_0_energy">   -325.79815319 </i>
   </energy>
  </scstep>
  <scstep>
   <time name="total">   30.43   30.43</time>
   <energy>
    <i name="e_fr_energy">   -325.77831806 </i>
    <i name="e_wo_entrp">   -325.77831806 </i>
    <i name="e_0_energy">   -325.77831806 </i>
   </energy>
  </scstep>
  <scstep>
   <time name="total">   30.59   30.59</time>
   <energy>
    <i name="e_fr_energy">   -325.77704309 </i>
    <i name="e_wo_entrp">   -325.77704309 </i>
    <i name="e_0_energy">   -325.77704309 </i>
   </energy>
  </scstep>
  <scstep>
   <time name="total">   31.63   31.63</time>
   <energy>
    <i name="e_fr_energy">   -325.77639430 </i>
    <i name="e_wo_entrp">   -325.77639430 </i>
    <i name="e_0_energy">   -325.77639430 </i>
   </energy>
  </scstep>
  <scstep>
   <time name="total">   31.92   31.92</time>
   <energy>
    <i name="e_fr_energy">   -325.77634383 </i>
    <i name="e_wo_entrp">   -325.77634383 </i>
    <i name="e_0_energy">   -325.77634383 </i>
   </energy>
  </scstep>
  <scstep>
   <time name="total">   31.79   31.80</time>
   <energy>
    <i name="e_fr_energy">   -325.77633771 </i>
    <i name="e_wo_entrp">   -325.77633771 </i>
    <i name="e_0_energy">   -325.77633771 </i>
   </energy>
  </scstep>
  <scstep>
   <time name="total">   32.30   32.30</time>
   <energy>
    <i name="e_fr_energy">   -325.77625681 </i>
    <i name="e_wo_entrp">   -325.77625681 </i>
    <i name="e_0_energy">   -325.77625681 </i>
   </energy>
  </scstep>
  <kpoints>
   <generation param="Gamma">
    <v type="int" name="divisions">       6        6        6 </v>
    <v name="usershift">      0.00000000       0.00000000       0.00000000 </v>
    <v name="genvec1">      0.16666667       0.00000000       0.00000000 </v>
    <v name="genvec2">      0.00000000       0.16666667       0.00000000 </v>
    <v name="genvec3">      0.00000000       0.00000000       0.16666667 </v>
    <v name="shift">      0.00000000       0.00000000       0.00000000 </v>
   </generation>
   <varray name="kpointlist" >
    <v>       0.00000000       0.00000000       0.00000000 </v>
    <v>       0.16666667       0.00000000       0.00000000 </v>
    <v>       0.33333333       0.00000000       0.00000000 </v>
    <v>       0.50000000       0.00000000       0.00000000 </v>
    <v>       0.16666667       0.16666667       0.00000000 </v>
    <v>       0.33333333       0.16666667       0.00000000 </v>
    <v>       0.50000000       0.16666667       0.00000000 </v>
    <v>       0.33333333       0.33333333       0.00000000 </v>
    <v>       0.50000000       0.33333333       0.00000000 </v>
    <v>       0.50000000       0.50000000       0.00000000 </v>
    <v>       0.16666667       0.16666667       0.16666667 </v>
    <v>       0.33333333       0.16666667       0.16666667 </v>
    <v>       0.50000000       0.16666667       0.16666667 </v>
    <v>       0.33333333       0.33333333       0.16666667 </v>
    <v>       0.50000000       0.33333333       0.16666667 </v>
    <v>       0.50000000       0.50000000       0.16666667 </v>
    <v>       0.33333333       0.33333333       0.33333333 </v>
    <v>       0.50000000       0.33333333       0.33333333 </v>
    <v>       0.50000000       0.50000000       0.33333333 </v>
    <v>       0.50000000       0.50000000       0.50000000 </v>
   </varray>
   <varray name="weights" >
    <v>       0.00462963 </v>
    <v>       0.02777778 </v>
    <v>       0.02777778 </v>
    <v>       0.01388889 </v>
    <v>       0.05555556 </v>
    <v>       0.11111111 </v>
    <v>       0.05555556 </v>
    <v>       0.05555556 </v>
    <v>       0.05555556 </v>
    <v>       0.01388889 </v>
    <v>       0.03703704 </v>
    <v>       0.11111111 </v>
    <v>       0.05555556 </v>
    <v>       0.11111111 </v>
    <v>       0.11111111 </v>
    <v>       0.02777778 </v>
    <v>       0.03703704 </v>
    <v>       0.05555556 </v>
    <v>       0.02777778 </v>
    <v>       0.00462963 </v>
   </varray>
  </kpoints>
  <dynmat>
   <varray name="hessian" >
    <v>      -4.89591411       0.00000000      -0.00000000       0.01757127       0.00000000      -0.00000000       0.00867496       0.00000000       0.00000000       0.01484763      -0.00000000      -0.00000000       0.00867496      -0.00000000      -0.00000000       0.01484763       0.00000000      -0.00000000      -0.05084373       0.00000000       0.00000000       0.00544719      -0.00000000       0.00000000      -0.01448131      -0.00830447       0.00495066       0.00918820      -0.01258195      -0.02222818       1.01186023      -0.41577170      -0.41577170      -0.00588698      -0.00830447      -0.00830447       0.03083456      -0.02222818      -0.02222818      -0.00289488      -0.00247749      -0.00247749      -0.01448131       0.00495066      -0.00830447       0.00918820      -0.02222818      -0.01258195      -0.13314813       0.07476357      -0.07476357      -0.00708437       0.00414528      -0.00414528      -0.13314813       0.07476357       0.07476357      -0.00708437       0.00414528       0.00414528      -0.13314813      -0.07476357      -0.07476357      -0.00708437      -0.00414528      -0.00414528      -0.13314813      -0.07476357       0.07476357      -0.00708437      -0.00414528       0.00414528       1.01186023       0.41577170       0.41577170      -0.00588698       0.00830447       0.00830447      -0.01448131       0.00830447      -0.00495066       0.00918820       0.01258195       0.02222818      -0.01448131      -0.00495066       0.00830447       0.00918820       0.02222818       0.01258195       0.03083456       0.02222818       0.02222818      -0.00289488       0.00247749       0.00247749       0.15998006      -0.07476357       0.16788313       0.15998006      -0.07476357      -0.16788313       0.00805960      -0.00414528      -0.00575769       0.00805960      -0.00414528       0.00575769       0.15998006       0.07476357      -0.16788313       0.15998006       0.07476357       0.16788313       0.00805960       0.00414528       0.00575769       0.00805960       0.00414528      -0.00575769      -0.01448131       0.00830447       0.00495066       0.00918820       0.01258195      -0.02222818       1.01186023       0.41577170      -0.41577170      -0.00588698       0.00830447      -0.00830447       0.03083456       0.02222818      -0.02222818      -0.00289488       0.00247749      -0.00247749      -0.01448131      -0.00495066      -0.00830447       0.00918820       0.02222818      -0.01258195       0.15998006      -0.16788313       0.07476357       0.15998006       0.16788313       0.07476357       0.15998006       0.16788313      -0.07476357       0.15998006      -0.16788313      -0.07476357       0.00805960       0.00575769       0.00414528       0.00805960      -0.00575769       0.00414528       0.00805960      -0.00575769      -0.00414528       0.00805960       0.00575769      -0.00414528       1.01186023      -0.41577170       0.41577170      -0.00588698      -0.00830447       0.00830447      -0.01448131      -0.00830447      -0.00495066       0.00918820      -0.01258195       0.02222818      -0.01448131       0.00495066       0.00830447       0.00918820      -0.02222818       0.01258195       0.03083456      -0.02222818       0.02222818      -0.00289488      -0.00247749       0.00247749 </v>
    <v>       0.00000000      -4.89591411      -0.00000000       0.00000000       0.00867496       0.00000000       0.00000000       0.01757127      -0.00000000      -0.00000000       0.01484763      -0.00000000      -0.00000000       0.00867496      -0.00000000       0.00000000      -0.05084373       0.00000000       0.00000000       0.01484763      -0.00000000      -0.00000000       0.00544719       0.00000000      -0.00830447      -0.00588698       0.00830447      -0.01258195       0.00918820       0.02222818      -0.41577170       1.01186023       0.41577170      -0.00830447      -0.01448131      -0.00495066      -0.02222818       0.00918820       0.01258195      -0.00247749      -0.00289488       0.00247749       0.00495066      -0.01448131       0.00830447      -0.02222818       0.03083456       0.02222818      -0.07476357       0.15998006      -0.16788313      -0.00414528       0.00805960       0.00575769      -0.07476357       0.15998006       0.16788313      -0.00414528       0.00805960      -0.00575769       0.07476357       0.15998006       0.16788313       0.00414528       0.00805960      -0.00575769       0.07476357       0.15998006      -0.16788313       0.00414528       0.00805960       0.00575769       0.41577170       1.01186023       0.41577170       0.00830447      -0.01448131      -0.00495066       0.00830447      -0.00588698       0.00830447       0.01258195       0.00918820       0.02222818      -0.00495066      -0.01448131       0.00830447       0.02222818       0.03083456       0.02222818       0.02222818       0.00918820       0.01258195       0.00247749      -0.00289488       0.00247749       0.07476357      -0.13314813       0.07476357       0.07476357      -0.13314813      -0.07476357       0.00414528      -0.00708437       0.00414528       0.00414528      -0.00708437      -0.00414528      -0.07476357      -0.13314813       0.07476357      -0.07476357      -0.13314813      -0.07476357      -0.00414528      -0.00708437       0.00414528      -0.00414528      -0.00708437      -0.00414528       0.00830447      -0.00588698      -0.00830447       0.01258195       0.00918820      -0.02222818       0.41577170       1.01186023      -0.41577170       0.00830447      -0.01448131       0.00495066       0.02222818       0.00918820      -0.01258195       0.00247749      -0.00289488      -0.00247749      -0.00495066      -0.01448131      -0.00830447       0.02222818       0.03083456      -0.02222818      -0.16788313       0.15998006      -0.07476357       0.16788313       0.15998006       0.07476357       0.16788313       0.15998006      -0.07476357      -0.16788313       0.15998006       0.07476357       0.00575769       0.00805960      -0.00414528      -0.00575769       0.00805960       0.00414528      -0.00575769       0.00805960      -0.00414528       0.00575769       0.00805960       0.00414528      -0.41577170       1.01186023      -0.41577170      -0.00830447      -0.01448131       0.00495066      -0.00830447      -0.00588698      -0.00830447      -0.01258195       0.00918820      -0.02222818       0.00495066      -0.01448131      -0.00830447      -0.02222818       0.03083456      -0.02222818      -0.02222818       0.00918820      -0.01258195      -0.00247749      -0.00289488      -0.00247749 </v>
    <v>      -0.00000000      -0.00000000      -4.89591411      -0.00000000       0.00000000       0.00867496       0.00000000      -0.00000000       0.00867496      -0.00000000      -0.00000000      -0.05084373      -0.00000000      -0.00000000       0.01757127      -0.00000000       0.00000000       0.01484763       0.00000000      -0.00000000       0.01484763       0.00000000       0.00000000       0.00544719       0.00495066       0.00830447      -0.01448131      -0.02222818       0.02222818       0.03083456      -0.41577170       0.41577170       1.01186023      -0.00830447      -0.00495066      -0.01448131      -0.02222818       0.01258195       0.00918820      -0.00247749       0.00247749      -0.00289488      -0.00830447       0.00830447      -0.00588698      -0.01258195       0.02222818       0.00918820       0.07476357      -0.16788313       0.15998006       0.00414528       0.00575769       0.00805960      -0.07476357       0.16788313       0.15998006      -0.00414528      -0.00575769       0.00805960       0.07476357       0.16788313       0.15998006       0.00414528      -0.00575769       0.00805960      -0.07476357      -0.16788313       0.15998006      -0.00414528       0.00575769       0.00805960       0.41577170       0.41577170       1.01186023       0.00830447      -0.00495066      -0.01448131      -0.00495066       0.00830447      -0.01448131       0.02222818       0.02222818       0.03083456       0.00830447       0.00830447      -0.00588698       0.01258195       0.02222818       0.00918820       0.02222818       0.01258195       0.00918820       0.00247749       0.00247749      -0.00289488       0.16788313      -0.07476357       0.15998006      -0.16788313       0.07476357       0.15998006      -0.00575769      -0.00414528       0.00805960       0.00575769       0.00414528       0.00805960      -0.16788313      -0.07476357       0.15998006       0.16788313       0.07476357       0.15998006       0.00575769      -0.00414528       0.00805960      -0.00575769       0.00414528       0.00805960       0.00495066      -0.00830447      -0.01448131      -0.02222818      -0.02222818       0.03083456      -0.41577170      -0.41577170       1.01186023      -0.00830447       0.00495066      -0.01448131      -0.02222818      -0.01258195       0.00918820      -0.00247749      -0.00247749      -0.00289488      -0.00830447      -0.00830447      -0.00588698      -0.01258195      -0.02222818       0.00918820      -0.07476357       0.07476357      -0.13314813      -0.07476357      -0.07476357      -0.13314813       0.07476357       0.07476357      -0.13314813       0.07476357      -0.07476357      -0.13314813      -0.00414528       0.00414528      -0.00708437      -0.00414528      -0.00414528      -0.00708437       0.00414528       0.00414528      -0.00708437       0.00414528      -0.00414528      -0.00708437       0.41577170      -0.41577170       1.01186023       0.00830447       0.00495066      -0.01448131      -0.00495066      -0.00830447      -0.01448131       0.02222818      -0.02222818       0.03083456       0.00830447      -0.00830447      -0.00588698       0.01258195      -0.02222818       0.00918820       0.02222818      -0.01258195       0.00918820       0.00247749      -0.00247749      -0.00289488 </v>
    <v>       0.01757127       0.00000000      -0.00000000      -4.89591411       0.00000000      -0.00000000       0.01484763      -0.00000000      -0.00000000       0.00867496       0.00000000       0.00000000       0.01484763       0.00000000      -0.00000000       0.00867496      -0.00000000      -0.00000000       0.00544719      -0.00000000       0.00000000      -0.05084373       0.00000000       0.00000000       0.00918820      -0.01258195      -0.02222818      -0.01448131      -0.00830447       0.00495066      -0.00588698      -0.00830447      -0.00830447       1.01186023      -0.41577170      -0.41577170      -0.00289488      -0.00247749      -0.00247749       0.03083456      -0.02222818      -0.02222818       0.00918820      -0.02222818      -0.01258195      -0.01448131       0.00495066      -0.00830447      -0.00708437       0.00414528      -0.00414528      -0.13314813       0.07476357      -0.07476357      -0.00708437       0.00414528       0.00414528      -0.13314813       0.07476357       0.07476357      -0.00708437      -0.00414528      -0.00414528      -0.13314813      -0.07476357      -0.07476357      -0.00708437      -0.00414528       0.00414528      -0.13314813      -0.07476357       0.07476357      -0.00588698       0.00830447       0.00830447       1.01186023       0.41577170       0.41577170       0.00918820       0.01258195       0.02222818      -0.01448131       0.00830447      -0.00495066       0.00918820       0.02222818       0.01258195      -0.01448131      -0.00495066       0.00830447      -0.00289488       0.00247749       0.00247749       0.03083456       0.02222818       0.02222818       0.15998006      -0.07476357      -0.16788313       0.15998006      -0.07476357       0.16788313       0.00805960      -0.00414528       0.00575769       0.00805960      -0.00414528      -0.00575769       0.15998006       0.07476357       0.16788313       0.15998006       0.07476357      -0.16788313       0.00805960       0.00414528      -0.00575769       0.00805960       0.00414528       0.00575769       0.00918820       0.01258195      -0.02222818      -0.01448131       0.00830447       0.00495066      -0.00588698       0.00830447      -0.00830447       1.01186023       0.41577170      -0.41577170      -0.00289488       0.00247749      -0.00247749       0.03083456       0.02222818      -0.02222818       0.00918820       0.02222818      -0.01258195      -0.01448131      -0.00495066      -0.00830447       0.15998006       0.16788313       0.07476357       0.15998006      -0.16788313       0.07476357       0.15998006      -0.16788313      -0.07476357       0.15998006       0.16788313      -0.07476357       0.00805960      -0.00575769       0.00414528       0.00805960       0.00575769       0.00414528       0.00805960       0.00575769      -0.00414528       0.00805960      -0.00575769      -0.00414528      -0.00588698      -0.00830447       0.00830447       1.01186023      -0.41577170       0.41577170       0.00918820      -0.01258195       0.02222818      -0.01448131      -0.00830447      -0.00495066       0.00918820      -0.02222818       0.01258195      -0.01448131       0.00495066       0.00830447      -0.00289488      -0.00247749       0.00247749       0.03083456      -0.02222818       0.02222818 </v>
    <v>       0.00000000       0.00867496       0.00000000       0.00000000      -4.89591411      -0.00000000      -0.00000000       0.01484763      -0.00000000       0.00000000       0.01757127      -0.00000000       0.00000000      -0.05084373       0.00000000      -0.00000000       0.00867496      -0.00000000      -0.00000000       0.00544719       0.00000000       0.00000000       0.01484763      -0.00000000      -0.01258195       0.00918820       0.02222818      -0.00830447      -0.00588698       0.00830447      -0.00830447      -0.01448131      -0.00495066      -0.41577170       1.01186023       0.41577170      -0.00247749      -0.00289488       0.00247749      -0.02222818       0.00918820       0.01258195      -0.02222818       0.03083456       0.02222818       0.00495066      -0.01448131       0.00830447      -0.00414528       0.00805960       0.00575769      -0.07476357       0.15998006      -0.16788313      -0.00414528       0.00805960      -0.00575769      -0.07476357       0.15998006       0.16788313       0.00414528       0.00805960      -0.00575769       0.07476357       0.15998006       0.16788313       0.00414528       0.00805960       0.00575769       0.07476357       0.15998006      -0.16788313       0.00830447      -0.01448131      -0.00495066       0.41577170       1.01186023       0.41577170       0.01258195       0.00918820       0.02222818       0.00830447      -0.00588698       0.00830447       0.02222818       0.03083456       0.02222818      -0.00495066      -0.01448131       0.00830447       0.00247749      -0.00289488       0.00247749       0.02222818       0.00918820       0.01258195       0.07476357      -0.13314813      -0.07476357       0.07476357      -0.13314813       0.07476357       0.00414528      -0.00708437      -0.00414528       0.00414528      -0.00708437       0.00414528      -0.07476357      -0.13314813      -0.07476357      -0.07476357      -0.13314813       0.07476357      -0.00414528      -0.00708437      -0.00414528      -0.00414528      -0.00708437       0.00414528       0.01258195       0.00918820      -0.02222818       0.00830447      -0.00588698      -0.00830447       0.00830447      -0.01448131       0.00495066       0.41577170       1.01186023      -0.41577170       0.00247749      -0.00289488      -0.00247749       0.02222818       0.00918820      -0.01258195       0.02222818       0.03083456      -0.02222818      -0.00495066      -0.01448131      -0.00830447       0.16788313       0.15998006       0.07476357      -0.16788313       0.15998006      -0.07476357      -0.16788313       0.15998006       0.07476357       0.16788313       0.15998006      -0.07476357      -0.00575769       0.00805960       0.00414528       0.00575769       0.00805960      -0.00414528       0.00575769       0.00805960       0.00414528      -0.00575769       0.00805960      -0.00414528      -0.00830447      -0.01448131       0.00495066      -0.41577170       1.01186023      -0.41577170      -0.01258195       0.00918820      -0.02222818      -0.00830447      -0.00588698      -0.00830447      -0.02222818       0.03083456      -0.02222818       0.00495066      -0.01448131      -0.00830447      -0.00247749      -0.00289488      -0.00247749      -0.02222818       0.00918820      -0.01258195 </v>
    <v>      -0.00000000       0.00000000       0.00867496      -0.00000000      -0.00000000      -4.89591411      -0.00000000      -0.00000000      -0.05084373       0.00000000      -0.00000000       0.00867496      -0.00000000       0.00000000       0.01484763      -0.00000000      -0.00000000       0.01757127       0.00000000       0.00000000       0.00544719       0.00000000      -0.00000000       0.01484763      -0.02222818       0.02222818       0.03083456       0.00495066       0.00830447      -0.01448131      -0.00830447      -0.00495066      -0.01448131      -0.41577170       0.41577170       1.01186023      -0.00247749       0.00247749      -0.00289488      -0.02222818       0.01258195       0.00918820      -0.01258195       0.02222818       0.00918820      -0.00830447       0.00830447      -0.00588698       0.00414528       0.00575769       0.00805960       0.07476357      -0.16788313       0.15998006      -0.00414528      -0.00575769       0.00805960      -0.07476357       0.16788313       0.15998006       0.00414528      -0.00575769       0.00805960       0.07476357       0.16788313       0.15998006      -0.00414528       0.00575769       0.00805960      -0.07476357      -0.16788313       0.15998006       0.00830447      -0.00495066      -0.01448131       0.41577170       0.41577170       1.01186023       0.02222818       0.02222818       0.03083456      -0.00495066       0.00830447      -0.01448131       0.01258195       0.02222818       0.00918820       0.00830447       0.00830447      -0.00588698       0.00247749       0.00247749      -0.00289488       0.02222818       0.01258195       0.00918820      -0.16788313       0.07476357       0.15998006       0.16788313      -0.07476357       0.15998006       0.00575769       0.00414528       0.00805960      -0.00575769      -0.00414528       0.00805960       0.16788313       0.07476357       0.15998006      -0.16788313      -0.07476357       0.15998006      -0.00575769       0.00414528       0.00805960       0.00575769      -0.00414528       0.00805960      -0.02222818      -0.02222818       0.03083456       0.00495066      -0.00830447      -0.01448131      -0.00830447       0.00495066      -0.01448131      -0.41577170      -0.41577170       1.01186023      -0.00247749      -0.00247749      -0.00289488      -0.02222818      -0.01258195       0.00918820      -0.01258195      -0.02222818       0.00918820      -0.00830447      -0.00830447      -0.00588698      -0.07476357      -0.07476357      -0.13314813      -0.07476357       0.07476357      -0.13314813       0.07476357      -0.07476357      -0.13314813       0.07476357       0.07476357      -0.13314813      -0.00414528      -0.00414528      -0.00708437      -0.00414528       0.00414528      -0.00708437       0.00414528      -0.00414528      -0.00708437       0.00414528       0.00414528      -0.00708437       0.00830447       0.00495066      -0.01448131       0.41577170      -0.41577170       1.01186023       0.02222818      -0.02222818       0.03083456      -0.00495066      -0.00830447      -0.01448131       0.01258195      -0.02222818       0.00918820       0.00830447      -0.00830447      -0.00588698       0.00247749      -0.00247749      -0.00289488       0.02222818      -0.01258195       0.00918820 </v>
    <v>       0.00867496       0.00000000       0.00000000       0.01484763      -0.00000000      -0.00000000      -4.89591411       0.00000000      -0.00000000       0.01757127       0.00000000      -0.00000000      -0.05084373       0.00000000       0.00000000       0.00544719      -0.00000000       0.00000000       0.00867496      -0.00000000      -0.00000000       0.01484763       0.00000000      -0.00000000       1.01186023      -0.41577170      -0.41577170      -0.00588698      -0.00830447      -0.00830447      -0.01448131      -0.00830447       0.00495066       0.00918820      -0.01258195      -0.02222818      -0.01448131       0.00495066      -0.00830447       0.00918820      -0.02222818      -0.01258195       0.03083456      -0.02222818      -0.02222818      -0.00289488      -0.00247749      -0.00247749      -0.13314813       0.07476357       0.07476357      -0.00708437       0.00414528       0.00414528      -0.13314813       0.07476357      -0.07476357      -0.00708437       0.00414528      -0.00414528      -0.13314813      -0.07476357       0.07476357      -0.00708437      -0.00414528       0.00414528      -0.13314813      -0.07476357      -0.07476357      -0.00708437      -0.00414528      -0.00414528      -0.01448131       0.00830447      -0.00495066       0.00918820       0.01258195       0.02222818       1.01186023       0.41577170       0.41577170      -0.00588698       0.00830447       0.00830447       0.03083456       0.02222818       0.02222818      -0.00289488       0.00247749       0.00247749      -0.01448131      -0.00495066       0.00830447       0.00918820       0.02222818       0.01258195       0.00805960      -0.00414528      -0.00575769       0.00805960      -0.00414528       0.00575769       0.15998006      -0.07476357       0.16788313       0.15998006      -0.07476357      -0.16788313       0.00805960       0.00414528       0.00575769       0.00805960       0.00414528      -0.00575769       0.15998006       0.07476357      -0.16788313       0.15998006       0.07476357       0.16788313       1.01186023       0.41577170      -0.41577170      -0.00588698       0.00830447      -0.00830447      -0.01448131       0.00830447       0.00495066       0.00918820       0.01258195      -0.02222818      -0.01448131      -0.00495066      -0.00830447       0.00918820       0.02222818      -0.01258195       0.03083456       0.02222818      -0.02222818      -0.00289488       0.00247749      -0.00247749       0.15998006       0.16788313      -0.07476357       0.15998006      -0.16788313      -0.07476357       0.15998006      -0.16788313       0.07476357       0.15998006       0.16788313       0.07476357       0.00805960      -0.00575769      -0.00414528       0.00805960       0.00575769      -0.00414528       0.00805960       0.00575769       0.00414528       0.00805960      -0.00575769       0.00414528      -0.01448131      -0.00830447      -0.00495066       0.00918820      -0.01258195       0.02222818       1.01186023      -0.41577170       0.41577170      -0.00588698      -0.00830447       0.00830447       0.03083456      -0.02222818       0.02222818      -0.00289488      -0.00247749       0.00247749      -0.01448131       0.00495066       0.00830447       0.00918820      -0.02222818       0.01258195 </v>
    <v>       0.00000000       0.01757127      -0.00000000      -0.00000000       0.01484763      -0.00000000       0.00000000      -4.89591411      -0.00000000       0.00000000       0.00867496       0.00000000       0.00000000       0.01484763      -0.00000000      -0.00000000       0.00544719       0.00000000      -0.00000000       0.00867496      -0.00000000       0.00000000      -0.05084373       0.00000000      -0.41577170       1.01186023       0.41577170      -0.00830447      -0.01448131      -0.00495066      -0.00830447      -0.00588698       0.00830447      -0.01258195       0.00918820       0.02222818       0.00495066      -0.01448131       0.00830447      -0.02222818       0.03083456       0.02222818      -0.02222818       0.00918820       0.01258195      -0.00247749      -0.00289488       0.00247749      -0.07476357       0.15998006       0.16788313      -0.00414528       0.00805960      -0.00575769      -0.07476357       0.15998006      -0.16788313      -0.00414528       0.00805960       0.00575769       0.07476357       0.15998006      -0.16788313       0.00414528       0.00805960       0.00575769       0.07476357       0.15998006       0.16788313       0.00414528       0.00805960      -0.00575769       0.00830447      -0.00588698       0.00830447       0.01258195       0.00918820       0.02222818       0.41577170       1.01186023       0.41577170       0.00830447      -0.01448131      -0.00495066       0.02222818       0.00918820       0.01258195       0.00247749      -0.00289488       0.00247749      -0.00495066      -0.01448131       0.00830447       0.02222818       0.03083456       0.02222818       0.00414528      -0.00708437       0.00414528       0.00414528      -0.00708437      -0.00414528       0.07476357      -0.13314813       0.07476357       0.07476357      -0.13314813      -0.07476357      -0.00414528      -0.00708437       0.00414528      -0.00414528      -0.00708437      -0.00414528      -0.07476357      -0.13314813       0.07476357      -0.07476357      -0.13314813      -0.07476357       0.41577170       1.01186023      -0.41577170       0.00830447      -0.01448131       0.00495066       0.00830447      -0.00588698      -0.00830447       0.01258195       0.00918820      -0.02222818      -0.00495066      -0.01448131      -0.00830447       0.02222818       0.03083456      -0.02222818       0.02222818       0.00918820      -0.01258195       0.00247749      -0.00289488      -0.00247749       0.16788313       0.15998006      -0.07476357      -0.16788313       0.15998006       0.07476357      -0.16788313       0.15998006      -0.07476357       0.16788313       0.15998006       0.07476357      -0.00575769       0.00805960      -0.00414528       0.00575769       0.00805960       0.00414528       0.00575769       0.00805960      -0.00414528      -0.00575769       0.00805960       0.00414528      -0.00830447      -0.00588698      -0.00830447      -0.01258195       0.00918820      -0.02222818      -0.41577170       1.01186023      -0.41577170      -0.00830447      -0.01448131       0.00495066      -0.02222818       0.00918820      -0.01258195      -0.00247749      -0.00289488      -0.00247749       0.00495066      -0.01448131      -0.00830447      -0.02222818       0.03083456      -0.02222818 </v>
    <v>       0.00000000      -0.00000000       0.00867496      -0.00000000      -0.00000000      -0.05084373      -0.00000000      -0.00000000      -4.89591411      -0.00000000       0.00000000       0.00867496       0.00000000      -0.00000000       0.01484763       0.00000000       0.00000000       0.00544719      -0.00000000      -0.00000000       0.01757127      -0.00000000       0.00000000       0.01484763      -0.41577170       0.41577170       1.01186023      -0.00830447      -0.00495066      -0.01448131       0.00495066       0.00830447      -0.01448131      -0.02222818       0.02222818       0.03083456      -0.00830447       0.00830447      -0.00588698      -0.01258195       0.02222818       0.00918820      -0.02222818       0.01258195       0.00918820      -0.00247749       0.00247749      -0.00289488      -0.07476357       0.16788313       0.15998006      -0.00414528      -0.00575769       0.00805960       0.07476357      -0.16788313       0.15998006       0.00414528       0.00575769       0.00805960      -0.07476357      -0.16788313       0.15998006      -0.00414528       0.00575769       0.00805960       0.07476357       0.16788313       0.15998006       0.00414528      -0.00575769       0.00805960      -0.00495066       0.00830447      -0.01448131       0.02222818       0.02222818       0.03083456       0.41577170       0.41577170       1.01186023       0.00830447      -0.00495066      -0.01448131       0.02222818       0.01258195       0.00918820       0.00247749       0.00247749      -0.00289488       0.00830447       0.00830447      -0.00588698       0.01258195       0.02222818       0.00918820      -0.00575769      -0.00414528       0.00805960       0.00575769       0.00414528       0.00805960       0.16788313      -0.07476357       0.15998006      -0.16788313       0.07476357       0.15998006       0.00575769      -0.00414528       0.00805960      -0.00575769       0.00414528       0.00805960      -0.16788313      -0.07476357       0.15998006       0.16788313       0.07476357       0.15998006      -0.41577170      -0.41577170       1.01186023      -0.00830447       0.00495066      -0.01448131       0.00495066      -0.00830447      -0.01448131      -0.02222818      -0.02222818       0.03083456      -0.00830447      -0.00830447      -0.00588698      -0.01258195      -0.02222818       0.00918820      -0.02222818      -0.01258195       0.00918820      -0.00247749      -0.00247749      -0.00289488       0.07476357       0.07476357      -0.13314813       0.07476357      -0.07476357      -0.13314813      -0.07476357       0.07476357      -0.13314813      -0.07476357      -0.07476357      -0.13314813       0.00414528       0.00414528      -0.00708437       0.00414528      -0.00414528      -0.00708437      -0.00414528       0.00414528      -0.00708437      -0.00414528      -0.00414528      -0.00708437      -0.00495066      -0.00830447      -0.01448131       0.02222818      -0.02222818       0.03083456       0.41577170      -0.41577170       1.01186023       0.00830447       0.00495066      -0.01448131       0.02222818      -0.01258195       0.00918820       0.00247749      -0.00247749      -0.00289488       0.00830447      -0.00830447      -0.00588698       0.01258195      -0.02222818       0.00918820 </v>
[...]
      </set>
     </set>
    </set>
   </array>
  </eigenvalues>
  <separator name="orbital magnetization" >
   <v name="MAGDIPOLOUT">      0.00000000      0.00000000      0.00000000</v>
  </separator>
  <dos>
   <i name="efermi">     12.18107210 </i>
   <total>
    <array>
     <dimension dim="1">gridpoints</dimension>
     <dimension dim="2">spin</dimension>
     <field>energy</field>
     <field>total</field>
     <field>integrated</field>
     <set>
      <set comment="spin 1">
       <r>   -13.3749     0.0000     0.0000 </r>
       <r>   -13.2419     0.0000     0.0000 </r>
       <r>   -13.1088     0.0000     0.0000 </r>
       <r>   -12.9758     0.0000     0.0000 </r>
       <r>   -12.8427     0.0000     0.0000 </r>
       <r>   -12.7096     0.0000     0.0000 </r>
       <r>   -12.5766     0.0000     0.0000 </r>
       <r>   -12.4435     0.0000     0.0000 </r>
       <r>   -12.3105     0.0000     0.0000 </r>
       <r>   -12.1774     0.0000     0.0000 </r>
       <r>   -12.0443     0.0000     0.0000 </r>
       <r>   -11.9113     0.0000     0.0000 </r>
       <r>   -11.7782     0.0000     0.0000 </r>
       <r>   -11.6451     0.0017     0.0002 </r>
       <r>   -11.5121     0.1978     0.0265 </r>
       <r>   -11.3790     1.1201     0.1756 </r>
       <r>   -11.2460     1.2137     0.3371 </r>
       <r>   -11.1129     2.6363     0.6879 </r>
       <r>   -10.9798     1.2688     0.8567 </r>
       <r>   -10.8468     3.2251     1.2858 </r>
       <r>   -10.7137     2.5826     1.6295 </r>
       <r>   -10.5807     3.4052     2.0826 </r>
       <r>   -10.4476     2.0970     2.3616 </r>
       <r>   -10.3145     4.0986     2.9070 </r>
       <r>   -10.1815     3.9092     3.4271 </r>
       <r>   -10.0484     4.5576     4.0336 </r>
       <r>    -9.9154     2.1387     4.3181 </r>
       <r>    -9.7823     3.7965     4.8233 </r>
       <r>    -9.6492     6.1550     5.6423 </r>
       <r>    -9.5162     4.4750     6.2377 </r>
       <r>    -9.3831     4.5521     6.8434 </r>
       <r>    -9.2500     3.0502     7.2493 </r>
       <r>    -9.1170     6.2784     8.0847 </r>
       <r>    -8.9839     4.5598     8.6915 </r>
       <r>    -8.8509     5.4652     9.4187 </r>
       <r>    -8.7178     4.7116    10.0456 </r>
       <r>    -8.5847     7.6361    11.0617 </r>
       <r>    -8.4517     4.6222    11.6767 </r>
       <r>    -8.3186     6.2445    12.5076 </r>
       <r>    -8.1856     2.1087    12.7882 </r>
       <r>    -8.0525     8.4307    13.9100 </r>
       <r>    -7.9194     6.0624    14.7166 </r>
       <r>    -7.7864     9.3636    15.9626 </r>
       <r>    -7.6533     4.7977    16.6010 </r>
       <r>    -7.5203     5.4926    17.3318 </r>
       <r>    -7.3872     5.5362    18.0685 </r>
       <r>    -7.2541     8.9559    19.2601 </r>
       <r>    -7.1211     3.1619    19.6809 </r>
       <r>    -6.9880    10.7469    21.1108 </r>
       <r>    -6.8550     6.6833    22.0001 </r>
       <r>    -6.7219     9.1264    23.2145 </r>
       <r>    -6.5888     3.1670    23.6359 </r>
       <r>    -6.4558    10.6724    25.0560 </r>
       <r>    -6.3227     8.3532    26.1675 </r>
       <r>    -6.1896     7.7173    27.1943 </r>
       <r>    -6.0566     4.0943    27.7391 </r>
       <r>    -5.9235     9.2779    28.9737 </r>
       <r>    -5.7905     8.4681    30.1004 </r>
       <r>    -5.6574     9.8960    31.4172 </r>
       <r>    -5.5243     8.6494    32.5681 </r>
       <r>    -5.3913    12.2820    34.2024 </r>
       <r>    -5.2582     7.2674    35.1694 </r>
       <r>    -5.1252     8.1887    36.2590 </r>
       <r>    -4.9921     6.1625    37.0789 </r>
       <r>    -4.8590    12.5115    38.7437 </r>
       <r>    -4.7260    11.4059    40.2614 </r>
       <r>    -4.5929    11.0023    41.7254 </r>
       <r>    -4.4599    10.5663    43.1314 </r>
       <r>    -4.3268    11.1012    44.6085 </r>
       <r>    -4.1937     6.5210    45.4762 </r>
       <r>    -4.0607    11.1807    46.9639 </r>
       <r>    -3.9276    11.3918    48.4797 </r>
       <r>    -3.7946     5.4313    49.2024 </r>
       <r>    -3.6615    11.9999    50.7991 </r>
       <r>    -3.5284     4.1084    51.3458 </r>
       <r>    -3.3954     5.6554    52.0983 </r>
       <r>    -3.2623     9.4594    53.3570 </r>
       <r>    -3.1292    12.2746    54.9902 </r>
       <r>    -2.9962     7.8571    56.0357 </r>
       <r>    -2.8631     4.7141    56.6630 </r>
       <r>    -2.7301    10.5677    58.0691 </r>
       <r>    -2.5970    10.5705    59.4757 </r>
       <r>    -2.4639    12.9580    61.1999 </r>
       <r>    -2.3309     5.7339    61.9628 </r>
       <r>    -2.1978     6.4338    62.8189 </r>
       <r>    -2.0648     9.0592    64.0243 </r>
       <r>    -1.9317     8.9375    65.2135 </r>
       <r>    -1.7986     9.2273    66.4413 </r>
       <r>    -1.6656    10.6649    67.8604 </r>
       <r>    -1.5325    11.3734    69.3738 </r>
       <r>    -1.3995    13.8105    71.2114 </r>
       <r>    -1.2664     6.8480    72.1226 </r>
       <r>    -1.1333     8.5563    73.2611 </r>
       <r>    -1.0003     9.3933    74.5110 </r>
       <r>    -0.8672    13.0370    76.2457 </r>
       <r>    -0.7342    12.6913    77.9344 </r>
       <r>    -0.6011    12.3838    79.5822 </r>
       <r>    -0.4680     8.2151    80.6753 </r>
       <r>    -0.3350    20.1435    83.3556 </r>
       <r>    -0.2019    25.1841    86.7067 </r>
       <r>    -0.0688    15.7177    88.7981 </r>
       <r>     0.0642     7.7916    89.8348 </r>
       <r>     0.1973    12.1219    91.4478 </r>
       <r>     0.3303     6.6992    92.3392 </r>
       <r>     0.4634     6.6168    93.2196 </r>
       <r>     0.5965     9.3586    94.4649 </r>
       <r>     0.7295     9.2234    95.6922 </r>
       <r>     0.8626     6.6501    96.5770 </r>
       <r>     0.9956    11.4050    98.0946 </r>
       <r>     1.1287    14.0520    99.9644 </r>
       <r>     1.2618    18.1692   102.3820 </r>
       <r>     1.3948     4.5098   102.9821 </r>
       <r>     1.5279     5.1451   103.6667 </r>
       <r>     1.6609    10.8605   105.1118 </r>
       <r>     1.7940    16.4161   107.2961 </r>
       <r>     1.9271    18.1422   109.7101 </r>
       <r>     2.0601    13.7640   111.5416 </r>
       <r>     2.1932    11.6728   113.0948 </r>
       <r>     2.3262    15.3770   115.1408 </r>
       <r>     2.4593    11.3026   116.6448 </r>
       <r>     2.5924    17.9447   119.0325 </r>
       <r>     2.7254    17.1600   121.3158 </r>
       <r>     2.8585     9.2593   122.5479 </r>
       <r>     2.9916    15.2229   124.5735 </r>
       <r>     3.1246    15.0633   126.5778 </r>
       <r>     3.2577    26.8972   130.1568 </r>
       <r>     3.3907    11.6694   131.7095 </r>
       <r>     3.5238     7.2834   132.6786 </r>
       <r>     3.6569    16.6177   134.8898 </r>
       <r>     3.7899    18.1915   137.3104 </r>
       <r>     3.9230    10.8603   138.7555 </r>
       <r>     4.0560    22.1123   141.6977 </r>
       <r>     4.1891    24.2652   144.9265 </r>
       <r>     4.3222    17.7647   147.2903 </r>
       <r>     4.4552    18.0647   149.6940 </r>
       <r>     4.5883    17.0708   151.9654 </r>
       <r>     4.7213    13.4682   153.7575 </r>
       <r>     4.8544    32.1819   158.0397 </r>
       <r>     4.9875    28.3902   161.8173 </r>
       <r>     5.1205    18.1571   164.2333 </r>
       <r>     5.2536    15.9347   166.3536 </r>
       <r>     5.3866    23.5337   169.4850 </r>
       <r>     5.5197    21.7912   172.3846 </r>
       <r>     5.6528    22.4068   175.3660 </r>
       <r>     5.7858    23.3100   178.4677 </r>
       <r>     5.9189    28.4392   182.2518 </r>
       <r>     6.0520    20.2323   184.9440 </r>
       <r>     6.1850    15.6605   187.0278 </r>
       <r>     6.3181    14.5328   188.9615 </r>
       <r>     6.4511    19.7829   191.5938 </r>
       <r>     6.5842    23.6589   194.7419 </r>
       <r>     6.7173    23.9624   197.9304 </r>
       <r>     6.8503    23.7877   201.0956 </r>
       <r>     6.9834    18.6258   203.5740 </r>
       <r>     7.1164    15.6035   205.6502 </r>
       <r>     7.2495    20.0743   208.3213 </r>
       <r>     7.3826    19.5115   210.9175 </r>
       <r>     7.5156    14.9773   212.9104 </r>
       <r>     7.6487    13.6625   214.7283 </r>
       <r>     7.7817    28.7831   218.5583 </r>
       <r>     7.9148    21.3016   221.3927 </r>
       <r>     8.0479    18.2629   223.8227 </r>
       <r>     8.1809    17.7989   226.1911 </r>
       <r>     8.3140    14.3412   228.0993 </r>
       <r>     8.4471    10.6968   229.5227 </r>
       <r>     8.5801    16.3387   231.6967 </r>
       <r>     8.7132    23.4447   234.8163 </r>
       <r>     8.8462    26.8686   238.3914 </r>
       <r>     8.9793     9.2319   239.6198 </r>
       <r>     9.1124     6.3453   240.4642 </r>
       <r>     9.2454     5.8243   241.2392 </r>
       <r>     9.3785    12.5036   242.9029 </r>
       <r>     9.5115    10.8210   244.3427 </r>
       <r>     9.6446    12.0961   245.9523 </r>
       <r>     9.7777    10.1712   247.3056 </r>
       <r>     9.9107     5.9006   248.0908 </r>
       <r>    10.0438     5.2715   248.7922 </r>
       <r>    10.1768     5.9646   249.5859 </r>
       <r>    10.3099     6.1683   250.4066 </r>
       <r>    10.4430     7.4337   251.3958 </r>
       <r>    10.5760     6.6579   252.2817 </r>
       <r>    10.7091     2.8501   252.6609 </r>
       <r>    10.8421     3.7047   253.1538 </r>
       <r>    10.9752     6.2595   253.9867 </r>
       <r>    11.1083     3.1261   254.4027 </r>
       <r>    11.2413     2.0626   254.6771 </r>
       <r>    11.3744     3.0615   255.0845 </r>
       <r>    11.5075     2.8997   255.4703 </r>
       <r>    11.6405     2.4958   255.8024 </r>
       <r>    11.7736     0.6876   255.8939 </r>
       <r>    11.9066     0.7431   255.9928 </r>
       <r>    12.0397     0.0540   256.0000 </r>
       <r>    12.1728     0.0000   256.0000 </r>
       <r>    12.3058     0.0000   256.0000 </r>
       <r>    12.4389     0.0000   256.0000 </r>
       <r>    12.5719     0.0000   256.0000 </r>
       <r>    12.7050     0.0000   256.0000 </r>
       <r>    12.8381     0.0000   256.0000 </r>
       <r>    12.9711     0.0000   256.0000 </r>
       <r>    13.1042     0.0000   256.0000 </r>
       <r>    13.2372     0.0000   256.0000 </r>
       <r>    13.3703     0.0000   256.0000 </r>
       <r>    13.5034     0.0000   256.0000 </r>
       <r>    13.6364     0.0000   256.0000 </r>
       <r>    13.7695     0.0000   256.0000 </r>
       <r>    13.9025     0.0000   256.0000 </r>
       <r>    14.0356     0.0000   256.0000 </r>
       <r>    14.1687     0.0000   256.0000 </r>
       <r>    14.3017     0.0000   256.0000 </r>
       <r>    14.4348     0.0000   256.0000 </r>
       <r>    14.5679     0.0000   256.0000 </r>
       <r>    14.7009     0.0000   256.0000 </r>
       <r>    14.8340     0.0000   256.0000 </r>
       <r>    14.9670     0.0000   256.0000 </r>
       <r>    15.1001     0.0000   256.0000 </r>
       <r>    15.2332     0.0000   256.0000 </r>
       <r>    15.3662     0.0000   256.0000 </r>
       <r>    15.4993     0.0000   256.0000 </r>
       <r>    15.6323     0.0000   256.0000 </r>
       <r>    15.7654     0.0000   256.0000 </r>
       <r>    15.8985     0.0000   256.0000 </r>
       <r>    16.0315     0.0000   256.0000 </r>
       <r>    16.1646     0.0001   256.0000 </r>
       <r>    16.2976     0.1645   256.0219 </r>
       <r>    16.4307     1.0407   256.1604 </r>
       <r>    16.5638     0.7045   256.2541 </r>
       <r>    16.6968     4.1681   256.8087 </r>
       <r>    16.8299     4.2140   257.3694 </r>
       <r>    16.9629     7.6648   258.3893 </r>
       <r>    17.0960     4.3971   258.9744 </r>
       <r>    17.2291     3.0629   259.3820 </r>
       <r>    17.3621     4.1955   259.9402 </r>
       <r>    17.4952    16.4331   262.1268 </r>
       <r>    17.6283    11.2316   263.6213 </r>
       <r>    17.7613    10.0136   264.9537 </r>
       <r>    17.8944    10.1027   266.2980 </r>
       <r>    18.0274    13.9725   268.1572 </r>
       <r>    18.1605     9.9349   269.4791 </r>
       <r>    18.2936    10.9506   270.9362 </r>
       <r>    18.4266    15.3680   272.9811 </r>
       <r>    18.5597    18.3661   275.4249 </r>
       <r>    18.6927    12.6564   277.1090 </r>
       <r>    18.8258    18.4047   279.5580 </r>
       <r>    18.9589    14.2064   281.4483 </r>
       <r>    19.0919    15.1092   283.4587 </r>
       <r>    19.2250    16.8573   285.7018 </r>
       <r>    19.3580    22.3295   288.6729 </r>
       <r>    19.4911    19.1664   291.2232 </r>
       <r>    19.6242    17.6611   293.5732 </r>
       <r>    19.7572    24.8486   296.8796 </r>
       <r>    19.8903    14.2915   298.7813 </r>
       <r>    20.0233    12.3702   300.4272 </r>
       <r>    20.1564    15.2155   302.4518 </r>
       <r>    20.2895    25.4330   305.8360 </r>
       <r>    20.4225    43.6170   311.6397 </r>
       <r>    20.5556    41.2276   317.1255 </r>
       <r>    20.6887    24.0916   320.3311 </r>
       <r>    20.8217    25.9025   323.7777 </r>
       <r>    20.9548    15.2035   325.8007 </r>
       <r>    21.0878    23.2490   328.8942 </r>
       <r>    21.2209    27.3249   332.5301 </r>
       <r>    21.3540    17.0955   334.8049 </r>
       <r>    21.4870    18.5012   337.2667 </r>
       <r>    21.6201    23.9727   340.4565 </r>
       <r>    21.7531    25.0577   343.7907 </r>
       <r>    21.8862    26.2356   347.2816 </r>
       <r>    22.0193    28.8639   351.1223 </r>
       <r>    22.1523    23.5406   354.2546 </r>
       <r>    22.2854    30.9310   358.3703 </r>
       <r>    22.4184    23.7476   361.5302 </r>
       <r>    22.5515    15.7082   363.6203 </r>
       <r>    22.6846    17.2724   365.9186 </r>
       <r>    22.8176    27.2245   369.5411 </r>
       <r>    22.9507    24.2001   372.7612 </r>
       <r>    23.0837    14.5973   374.7036 </r>
       <r>    23.2168    23.5814   377.8413 </r>
       <r>    23.3499    12.5828   379.5156 </r>
       <r>    23.4829    15.8249   381.6213 </r>
       <r>    23.6160     5.2137   382.3150 </r>
       <r>    23.7491     2.1012   382.5946 </r>
       <r>    23.8821     4.9426   383.2523 </r>
       <r>    24.0152     2.7603   383.6196 </r>
       <r>    24.1482     0.0758   383.6296 </r>
       <r>    24.2813     0.2198   383.6589 </r>
       <r>    24.4144     0.8811   383.7761 </r>
       <r>    24.5474     0.0124   383.7778 </r>
       <r>    24.6805     0.2184   383.8068 </r>
       <r>    24.8135     1.4149   383.9951 </r>
       <r>    24.9466     0.0368   384.0000 </r>
       <r>    25.0797     0.0000   384.0000 </r>
       <r>    25.2127     0.0000   384.0000 </r>
       <r>    25.3458     0.0000   384.0000 </r>
       <r>    25.4788     0.0000   384.0000 </r>
       <r>    25.6119     0.0000   384.0000 </r>
       <r>    25.7450     0.0000   384.0000 </r>
       <r>    25.8780     0.0000   384.0000 </r>
       <r>    26.0111     0.0000   384.0000 </r>
       <r>    26.1442     0.0000   384.0000 </r>
       <r>    26.2772     0.0000   384.0000 </r>
       <r>    26.4103     0.0000   384.0000 </r>
       <r>    26.5433     0.0000   384.0000 </r>
      </set>
     </set>
    </array>
   </total>
  </dos>
 </calculation>
 <structure name="finalpos" >
  <crystal>
   <varray name="basis" >
    <v>       6.81154489       0.00000000       0.00000000 </v>
    <v>       0.00000000       6.81154489       0.00000000 </v>
    <v>       0.00000000       0.00000000       6.81154489 </v>
   </varray>
   <i name="volume">    316.03622708 </i>
   <varray name="rec_basis" >
    <v>       0.14680957       0.00000000       0.00000000 </v>
    <v>       0.00000000       0.14680957       0.00000000 </v>
    <v>       0.00000000       0.00000000       0.14680957 </v>
   </varray>
  </crystal>
  <varray name="positions" >
   <v>       0.12500000       0.37500000       0.12500000 </v>
   <v>       0.62500000       0.37500000       0.12500000 </v>
   <v>       0.12500000       0.87500000       0.12500000 </v>
   <v>       0.62500000       0.87500000       0.12500000 </v>
   <v>       0.12500000       0.37500000       0.62500000 </v>
   <v>       0.62500000       0.37500000       0.62500000 </v>
   <v>       0.12500000       0.87500000       0.62500000 </v>
   <v>       0.62500000       0.87500000       0.62500000 </v>
   <v>       0.00000000       0.00000000       0.25000000 </v>
   <v>       0.50000000       0.00000000       0.25000000 </v>
   <v>       0.00000000       0.50000000       0.25000000 </v>
   <v>       0.50000000       0.50000000       0.25000000 </v>
   <v>       0.00000000       0.00000000       0.75000000 </v>
   <v>       0.50000000       0.00000000       0.75000000 </v>
   <v>       0.00000000       0.50000000       0.75000000 </v>
   <v>       0.50000000       0.50000000       0.75000000 </v>
   <v>       0.12500000       0.12500000       0.37500000 </v>
   <v>       0.62500000       0.12500000       0.37500000 </v>
   <v>       0.12500000       0.62500000       0.37500000 </v>
   <v>       0.62500000       0.62500000       0.37500000 </v>
   <v>       0.12500000       0.12500000       0.87500000 </v>
   <v>       0.62500000       0.12500000       0.87500000 </v>
   <v>       0.12500000       0.62500000       0.87500000 </v>
   <v>       0.62500000       0.62500000       0.87500000 </v>
   <v>       0.00000000       0.25000000       0.00000000 </v>
   <v>       0.50000000       0.25000000       0.00000000 </v>
   <v>       0.00000000       0.75000000       0.00000000 </v>
   <v>       0.50000000       0.75000000       0.00000000 </v>
   <v>       0.00000000       0.25000000       0.50000000 </v>
   <v>       0.50000000       0.25000000       0.50000000 </v>
   <v>       0.00000000       0.75000000       0.50000000 </v>
   <v>       0.50000000       0.75000000       0.50000000 </v>
   <v>       0.37500000       0.37500000       0.37500000 </v>
   <v>       0.87500000       0.37500000       0.37500000 </v>
   <v>       0.37500000       0.87500000       0.37500000 </v>
   <v>       0.87500000       0.87500000       0.37500000 </v>
   <v>       0.37500000       0.37500000       0.87500000 </v>
   <v>       0.87500000       0.37500000       0.87500000 </v>
   <v>       0.37500000       0.87500000       0.87500000 </v>
   <v>       0.87500000       0.87500000       0.87500000 </v>
   <v>       0.25000000       0.00000000       0.00000000 </v>
   <v>       0.75000000       0.00000000       0.00000000 </v>
   <v>       0.25000000       0.50000000       0.00000000 </v>
   <v>       0.75000000       0.50000000       0.00000000 </v>
   <v>       0.25000000       0.00000000       0.50000000 </v>
   <v>       0.75000000       0.00000000       0.50000000 </v>
   <v>       0.25000000       0.50000000       0.50000000 </v>
   <v>       0.75000000       0.50000000       0.50000000 </v>
   <v>       0.37500000       0.12500000       0.12500000 </v>
   <v>       0.87500000       0.12500000       0.12500000 </v>
   <v>       0.37500000       0.62500000       0.12500000 </v>
   <v>       0.87500000       0.62500000       0.12500000 </v>
   <v>       0.37500000       0.12500000       0.62500000 </v>
   <v>       0.87500000       0.12500000       0.62500000 </v>
   <v>       0.37500000       0.62500000       0.62500000 </v>
   <v>       0.87500000       0.62500000       0.62500000 </v>
   <v>       0.25000000       0.25000000       0.25000000 </v>
   <v>       0.75000000       0.25000000       0.25000000 </v>
   <v>       0.25000000       0.75000000       0.25000000 </v>
   <v>       0.75000000       0.75000000       0.25000000 </v>
   <v>       0.25000000       0.25000000       0.75000000 </v>
   <v>       0.75000000       0.25000000       0.75000000 </v>
   <v>       0.25000000       0.75000000       0.75000000 </v>
   <v>       0.75000000       0.75000000       0.75000000 </v>
  </varray>
 </structure>
</modeling>
