  64  64   0   0
  0.5440012E+01  0.7034933E-09  0.7034933E-09  0.7034933E-09  0.5000000E-15
  1.000000000000000E-004
  CAR 
 unknown system                          
     24.13741652    -13.38159093  301     10.64620676      1.00000000
    -13.382  0.0000E+00  0.0000E+00
    -13.257  0.0000E+00  0.0000E+00
    -13.131  0.0000E+00  0.0000E+00
    -13.006  0.0000E+00  0.0000E+00
    -12.881  0.0000E+00  0.0000E+00
    -12.756  0.0000E+00  0.0000E+00
    -12.631  0.0000E+00  0.0000E+00
    -12.506  0.0000E+00  0.0000E+00
    -12.381  0.0000E+00  0.0000E+00
    -12.256  0.0000E+00  0.0000E+00
    -12.131  0.0000E+00  0.0000E+00
    -12.006  0.2877E-15  0.3598E-16
    -11.881  0.5222E-07  0.6531E-08
    -11.756  0.2380E-02  0.2976E-03
    -11.631  0.2194E+00  0.2774E-01
    -11.506  0.1181E+01  0.1754E+00
    -11.381  0.1326E+01  0.3413E+00
    -11.256  0.2756E+01  0.6860E+00
    -11.130  0.1416E+01  0.8631E+00
    -11.005  0.3418E+01  0.1291E+01
    -10.880  0.2747E+01  0.1634E+01
    -10.755  0.3661E+01  0.2092E+01
    -10.630  0.2225E+01  0.2370E+01
    -10.505  0.4413E+01  0.2922E+01
    -10.380  0.4161E+01  0.3442E+01
    -10.255  0.4846E+01  0.4048E+01
    -10.130  0.2267E+01  0.4332E+01
    -10.005  0.4275E+01  0.4867E+01
     -9.880  0.6308E+01  0.5656E+01
     -9.755  0.5080E+01  0.6291E+01
     -9.630  0.4487E+01  0.6852E+01
     -9.505  0.3623E+01  0.7305E+01
     -9.380  0.6657E+01  0.8138E+01
     -9.255  0.4838E+01  0.8743E+01
     -9.129  0.5571E+01  0.9440E+01
     -9.004  0.5835E+01  0.1017E+02
     -8.879  0.7557E+01  0.1111E+02
     -8.754  0.5420E+01  0.1179E+02
     -8.629  0.5919E+01  0.1253E+02
     -8.504  0.2918E+01  0.1290E+02
     -8.379  0.9099E+01  0.1404E+02
     -8.254  0.6653E+01  0.1487E+02
     -8.129  0.9539E+01  0.1606E+02
     -8.004  0.5453E+01  0.1674E+02
     -7.879  0.5982E+01  0.1749E+02
     -7.754  0.6221E+01  0.1827E+02
     -7.629  0.8883E+01  0.1938E+02
     -7.504  0.4423E+01  0.1993E+02
     -7.379  0.1122E+02  0.2134E+02
     -7.253  0.7883E+01  0.2232E+02
     -7.128  0.7843E+01  0.2330E+02
     -7.003  0.4771E+01  0.2390E+02
     -6.878  0.1265E+02  0.2548E+02
     -6.753  0.9002E+01  0.2661E+02
     -6.628  0.5532E+01  0.2730E+02
     -6.503  0.7222E+01  0.2820E+02
     -6.378  0.9587E+01  0.2940E+02
     -6.253  0.9802E+01  0.3063E+02
     -6.128  0.9852E+01  0.3186E+02
     -6.003  0.1313E+02  0.3350E+02
     -5.878  0.9254E+01  0.3466E+02
     -5.753  0.1030E+02  0.3595E+02
     -5.628  0.7976E+01  0.3694E+02
     -5.503  0.1111E+02  0.3833E+02
     -5.378  0.1173E+02  0.3980E+02
     -5.252  0.1397E+02  0.4155E+02
     -5.127  0.1075E+02  0.4289E+02
     -5.002  0.1088E+02  0.4425E+02
     -4.877  0.8482E+01  0.4531E+02
     -4.752  0.1244E+02  0.4687E+02
     -4.627  0.1229E+02  0.4841E+02
     -4.502  0.5207E+01  0.4906E+02
     -4.377  0.1260E+02  0.5063E+02
     -4.252  0.6796E+01  0.5148E+02
     -4.127  0.6871E+01  0.5234E+02
     -4.002  0.6591E+01  0.5317E+02
     -3.877  0.1376E+02  0.5489E+02
     -3.752  0.7502E+01  0.5583E+02
     -3.627  0.2999E+01  0.5620E+02
     -3.502  0.1232E+02  0.5774E+02
     -3.377  0.7349E+01  0.5866E+02
     -3.251  0.1292E+02  0.6028E+02
     -3.126  0.5098E+01  0.6091E+02
     -3.001  0.6961E+01  0.6178E+02
     -2.876  0.8991E+01  0.6291E+02
     -2.751  0.3422E+01  0.6334E+02
     -2.626  0.1006E+02  0.6459E+02
     -2.501  0.1359E+02  0.6629E+02
     -2.376  0.1268E+02  0.6788E+02
     -2.251  0.7720E+01  0.6884E+02
     -2.126  0.7863E+01  0.6983E+02
     -2.001  0.1094E+02  0.7120E+02
     -1.876  0.1131E+02  0.7261E+02
     -1.751  0.9066E+01  0.7374E+02
     -1.626  0.8907E+01  0.7486E+02
     -1.501  0.1658E+02  0.7693E+02
     -1.376  0.1525E+02  0.7884E+02
     -1.250  0.1609E+02  0.8085E+02
     -1.125  0.2716E+02  0.8425E+02
     -1.000  0.2277E+02  0.8709E+02
     -0.875  0.1173E+02  0.8856E+02
     -0.750  0.1001E+02  0.8981E+02
     -0.625  0.7715E+01  0.9078E+02
     -0.500  0.8988E+01  0.9190E+02
     -0.375  0.9705E+01  0.9312E+02
     -0.250  0.1207E+02  0.9463E+02
     -0.125  0.5800E+01  0.9535E+02
      0.000  0.1019E+02  0.9662E+02
      0.125  0.1385E+02  0.9836E+02
      0.250  0.1627E+02  0.1004E+03
      0.375  0.8752E+01  0.1015E+03
      0.500  0.3455E+01  0.1019E+03
      0.626  0.3429E+01  0.1023E+03
      0.751  0.1242E+02  0.1039E+03
      0.876  0.1677E+02  0.1060E+03
      1.001  0.7081E+01  0.1069E+03
      1.126  0.1145E+02  0.1083E+03
      1.251  0.1513E+02  0.1102E+03
      1.376  0.1968E+02  0.1127E+03
      1.501  0.2090E+02  0.1153E+03
      1.626  0.1865E+02  0.1176E+03
      1.751  0.7958E+01  0.1186E+03
      1.876  0.1563E+02  0.1206E+03
      2.001  0.9669E+01  0.1218E+03
      2.126  0.1681E+02  0.1239E+03
      2.251  0.2672E+02  0.1272E+03
      2.376  0.1750E+02  0.1294E+03
      2.501  0.1021E+02  0.1307E+03
      2.627  0.1259E+02  0.1323E+03
      2.752  0.1659E+02  0.1343E+03
      2.877  0.1946E+02  0.1368E+03
      3.002  0.2291E+02  0.1396E+03
      3.127  0.1485E+02  0.1415E+03
      3.252  0.1668E+02  0.1436E+03
      3.377  0.2225E+02  0.1464E+03
      3.502  0.1803E+02  0.1486E+03
      3.627  0.1585E+02  0.1506E+03
      3.752  0.2642E+02  0.1539E+03
      3.877  0.2562E+02  0.1571E+03
      4.002  0.3429E+02  0.1614E+03
      4.127  0.9384E+01  0.1626E+03
      4.252  0.2353E+02  0.1655E+03
      4.377  0.2068E+02  0.1681E+03
      4.502  0.2834E+02  0.1716E+03
      4.628  0.3101E+02  0.1755E+03
      4.753  0.2472E+02  0.1786E+03
      4.878  0.1849E+02  0.1809E+03
      5.003  0.2508E+02  0.1841E+03
      5.128  0.1892E+02  0.1864E+03
      5.253  0.1951E+02  0.1889E+03
      5.378  0.1853E+02  0.1912E+03
      5.503  0.2831E+02  0.1947E+03
      5.628  0.2674E+02  0.1981E+03
      5.753  0.1960E+02  0.2005E+03
      5.878  0.2171E+02  0.2032E+03
      6.003  0.1987E+02  0.2057E+03
      6.128  0.1851E+02  0.2080E+03
      6.253  0.2526E+02  0.2112E+03
      6.378  0.1583E+02  0.2132E+03
      6.503  0.1556E+02  0.2151E+03
      6.629  0.2858E+02  0.2187E+03
      6.754  0.2139E+02  0.2214E+03
      6.879  0.2144E+02  0.2240E+03
      7.004  0.2048E+02  0.2266E+03
      7.129  0.1582E+02  0.2286E+03
      7.254  0.1200E+02  0.2301E+03
      7.379  0.1852E+02  0.2324E+03
      7.504  0.2510E+02  0.2355E+03
      7.629  0.2695E+02  0.2389E+03
      7.754  0.7263E+01  0.2398E+03
      7.879  0.6697E+01  0.2407E+03
      8.004  0.1105E+02  0.2420E+03
      8.129  0.1370E+02  0.2438E+03
      8.254  0.8899E+01  0.2449E+03
      8.379  0.1445E+02  0.2467E+03
      8.504  0.6668E+01  0.2475E+03
      8.630  0.8185E+01  0.2485E+03
      8.755  0.6041E+01  0.2493E+03
      8.880  0.5816E+01  0.2500E+03
      9.005  0.7581E+01  0.2510E+03
      9.130  0.7635E+01  0.2519E+03
      9.255  0.4755E+01  0.2525E+03
      9.380  0.2675E+01  0.2528E+03
      9.505  0.7272E+01  0.2538E+03
      9.630  0.4182E+01  0.2543E+03
      9.755  0.2630E+01  0.2546E+03
      9.880  0.2762E+01  0.2550E+03
     10.005  0.2779E+01  0.2553E+03
     10.130  0.3651E+01  0.2558E+03
     10.255  0.7808E+00  0.2559E+03
     10.380  0.9696E+00  0.2560E+03
     10.506  0.1626E+00  0.2560E+03
     10.631  0.6216E-03  0.2560E+03
     10.756  0.1191E-08  0.2560E+03
     10.881  0.0000E+00  0.2560E+03
     11.006  0.0000E+00  0.2560E+03
     11.131  0.0000E+00  0.2560E+03
     11.256  0.0000E+00  0.2560E+03
     11.381  0.0000E+00  0.2560E+03
     11.506  0.0000E+00  0.2560E+03
     11.631  0.0000E+00  0.2560E+03
     11.756  0.0000E+00  0.2560E+03
     11.881  0.0000E+00  0.2560E+03
     12.006  0.0000E+00  0.2560E+03
     12.131  0.0000E+00  0.2560E+03
     12.256  0.0000E+00  0.2560E+03
     12.381  0.0000E+00  0.2560E+03
     12.507  0.0000E+00  0.2560E+03
     12.632  0.0000E+00  0.2560E+03
     12.757  0.0000E+00  0.2560E+03
     12.882  0.0000E+00  0.2560E+03
     13.007  0.0000E+00  0.2560E+03
     13.132  0.0000E+00  0.2560E+03
     13.257  0.0000E+00  0.2560E+03
     13.382  0.0000E+00  0.2560E+03
     13.507  0.0000E+00  0.2560E+03
     13.632  0.0000E+00  0.2560E+03
     13.757  0.0000E+00  0.2560E+03
     13.882  0.0000E+00  0.2560E+03
     14.007  0.0000E+00  0.2560E+03
     14.132  0.0000E+00  0.2560E+03
     14.257  0.2219E-15  0.2560E+03
     14.382  0.8536E-07  0.2560E+03
     14.508  0.8640E-02  0.2560E+03
     14.633  0.6663E+00  0.2561E+03
     14.758  0.9341E+00  0.2562E+03
     14.883  0.1814E+01  0.2564E+03
     15.008  0.4876E+01  0.2570E+03
     15.133  0.5609E+01  0.2577E+03
     15.258  0.7303E+01  0.2587E+03
     15.383  0.2972E+01  0.2590E+03
     15.508  0.4613E+01  0.2596E+03
     15.633  0.4045E+01  0.2601E+03
     15.758  0.2206E+02  0.2629E+03
     15.883  0.8559E+01  0.2639E+03
     16.008  0.1143E+02  0.2654E+03
     16.133  0.8996E+01  0.2665E+03
     16.258  0.1537E+02  0.2684E+03
     16.383  0.1052E+02  0.2697E+03
     16.509  0.1155E+02  0.2712E+03
     16.634  0.1786E+02  0.2734E+03
     16.759  0.1702E+02  0.2755E+03
     16.884  0.1695E+02  0.2777E+03
     17.009  0.1907E+02  0.2800E+03
     17.134  0.1396E+02  0.2818E+03
     17.259  0.1655E+02  0.2839E+03
     17.384  0.2001E+02  0.2864E+03
     17.509  0.2458E+02  0.2894E+03
     17.634  0.1519E+02  0.2913E+03
     17.759  0.1745E+02  0.2935E+03
     17.884  0.2869E+02  0.2971E+03
     18.009  0.1478E+02  0.2989E+03
     18.134  0.1230E+02  0.3005E+03
     18.259  0.1835E+02  0.3028E+03
     18.385  0.3408E+02  0.3070E+03
     18.510  0.4666E+02  0.3129E+03
     18.635  0.3717E+02  0.3175E+03
     18.760  0.2251E+02  0.3203E+03
     18.885  0.2355E+02  0.3233E+03
     19.010  0.2328E+02  0.3262E+03
     19.135  0.2340E+02  0.3291E+03
     19.260  0.3314E+02  0.3333E+03
     19.385  0.2810E+02  0.3368E+03
     19.510  0.3235E+02  0.3408E+03
     19.635  0.3262E+02  0.3449E+03
     19.760  0.2869E+02  0.3485E+03
     19.885  0.2295E+02  0.3514E+03
     20.010  0.3430E+02  0.3557E+03
     20.135  0.2743E+02  0.3591E+03
     20.260  0.1919E+02  0.3615E+03
     20.386  0.2201E+02  0.3642E+03
     20.511  0.3402E+02  0.3685E+03
     20.636  0.2373E+02  0.3715E+03
     20.761  0.1597E+02  0.3735E+03
     20.886  0.2852E+02  0.3770E+03
     21.011  0.1674E+02  0.3791E+03
     21.136  0.1338E+02  0.3808E+03
     21.261  0.3061E+01  0.3812E+03
     21.386  0.5911E+01  0.3819E+03
     21.511  0.6094E+01  0.3827E+03
     21.636  0.3232E+01  0.3831E+03
     21.761  0.2370E+01  0.3834E+03
     21.886  0.1962E+01  0.3836E+03
     22.011  0.1979E-01  0.3836E+03
     22.136  0.5417E+00  0.3837E+03
     22.261  0.6389E+00  0.3838E+03
     22.387  0.2894E+00  0.3838E+03
     22.512  0.1445E+01  0.3840E+03
     22.637  0.4487E-01  0.3840E+03
     22.762  0.8533E-06  0.3840E+03
     22.887  0.3945E-14  0.3840E+03
     23.012  0.0000E+00  0.3840E+03
     23.137  0.0000E+00  0.3840E+03
     23.262  0.0000E+00  0.3840E+03
     23.387  0.0000E+00  0.3840E+03
     23.512  0.0000E+00  0.3840E+03
     23.637  0.0000E+00  0.3840E+03
     23.762  0.0000E+00  0.3840E+03
     23.887  0.0000E+00  0.3840E+03
     24.012  0.0000E+00  0.3840E+03
     24.137  0.0000E+00  0.3840E+03
