  64   64
1 1
    48.487926559999991     0.000000000000000     0.000000000000000
     0.000000000000000    48.487926559999991     0.000000000000000
     0.000000000000000     0.000000000000000    48.487926559999991
1 2
    -0.178852317810000    -0.000000000000000    -0.000000000000000
    -0.000000000000000    -0.096490848940000     0.000000000000000
    -0.000000000000000     0.000000000000000    -0.096490848940000
1 3
    -0.096490848940000    -0.000000000000000     0.000000000000000
    -0.000000000000000    -0.178852317810000    -0.000000000000000
     0.000000000000000    -0.000000000000000    -0.096490848940000
1 4
    -0.132858475400000    -0.000000000000000    -0.000000000000000
    -0.000000000000000    -0.132858475400000    -0.000000000000000
    -0.000000000000000    -0.000000000000000     0.583852788240000
1 5
    -0.096490848940000     0.000000000000000     0.000000000000000
     0.000000000000000    -0.096490848940000     0.000000000000000
     0.000000000000000     0.000000000000000    -0.178852317810000
1 6
    -0.132858475400000    -0.000000000000000    -0.000000000000000
    -0.000000000000000     0.583852788240000     0.000000000000000
    -0.000000000000000     0.000000000000000    -0.132858475400000
1 7
     0.583852788240000    -0.000000000000000     0.000000000000000
    -0.000000000000000    -0.132858475400000    -0.000000000000000
     0.000000000000000    -0.000000000000000    -0.132858475400000
1 8
    -0.056412904470000     0.000000000000000     0.000000000000000
     0.000000000000000    -0.056412904470000     0.000000000000000
     0.000000000000000     0.000000000000000    -0.056412904470000
1 9
     0.162630261210000     0.096419383490000    -0.037459786690000
     0.096419383490000     0.067451614020000    -0.096419383490000
    -0.037459786690000    -0.096419383490000     0.162630261210000
1 10
    -0.093320545490000     0.120741418270000     0.231744678070000
     0.120741418270000    -0.093320545490000    -0.231744678070000
     0.231744678070000    -0.231744678070000    -0.353192343140000
1 11
   -10.038325010670000     2.946506450630000     2.946506450630000
     2.946506450630000   -10.038325010670000    -2.946506450630000
     2.946506450630000    -2.946506450630000   -10.038325010670000
1 12
     0.067451614020000     0.096419383490000     0.096419383490000
     0.096419383490000     0.162630261210000     0.037459786690000
     0.096419383490000     0.037459786690000     0.162630261210000
1 13
    -0.353192343140000     0.231744678070000     0.231744678070000
     0.231744678070000    -0.093320545490000    -0.120741418270000
     0.231744678070000    -0.120741418270000    -0.093320545490000
1 14
     0.034087097890000     0.030505898130000     0.030505898130000
     0.030505898130000     0.034087097890000    -0.030505898130000
     0.030505898130000    -0.030505898130000     0.034087097890000
1 15
     0.162630261210000    -0.037459786690000     0.096419383490000
    -0.037459786690000     0.162630261210000    -0.096419383490000
     0.096419383490000    -0.096419383490000     0.067451614020000
1 16
    -0.093320545490000     0.231744678070000     0.120741418270000
     0.231744678070000    -0.353192343140000    -0.231744678070000
     0.120741418270000    -0.231744678070000    -0.093320545490000
1 17
     1.455347526790000    -0.773680877960000     0.773680877960000
     0.773680877960000    -1.644642208000000     1.714670902180000
    -0.773680877960000     1.714670902180000    -1.644642208000000
1 18
     0.065975462120000    -0.041797078900000     0.041797078900000
     0.041797078900000    -0.087566555830000    -0.072849837860000
    -0.041797078900000    -0.072849837860000    -0.087566555830000
1 19
     1.455347526790000    -0.773680877960000    -0.773680877960000
     0.773680877960000    -1.644642208000000    -1.714670902180000
     0.773680877960000    -1.714670902180000    -1.644642208000000
1 20
     0.065975462120000    -0.041797078900000    -0.041797078900000
     0.041797078900000    -0.087566555830000     0.072849837860000
     0.041797078900000     0.072849837860000    -0.087566555830000
1 21
     1.455347526790000     0.773680877960000     0.773680877960000
    -0.773680877960000    -1.644642208000000    -1.714670902180000
    -0.773680877960000    -1.714670902180000    -1.644642208000000
1 22
     0.065975462120000     0.041797078900000     0.041797078900000
    -0.041797078900000    -0.087566555830000     0.072849837860000
    -0.041797078900000     0.072849837860000    -0.087566555830000
1 23
     1.455347526790000     0.773680877960000    -0.773680877960000
    -0.773680877960000    -1.644642208000000     1.714670902180000
     0.773680877960000     1.714670902180000    -1.644642208000000
1 24
     0.065975462120000     0.041797078900000    -0.041797078900000
    -0.041797078900000    -0.087566555830000    -0.072849837860000
     0.041797078900000    -0.072849837860000    -0.087566555830000
1 25
   -10.038325010670000    -2.946506450630000    -2.946506450630000
    -2.946506450630000   -10.038325010670000    -2.946506450630000
    -2.946506450630000    -2.946506450630000   -10.038325010670000
1 26
     0.067451614020000    -0.096419383490000    -0.096419383490000
    -0.096419383490000     0.162630261210000     0.037459786690000
    -0.096419383490000     0.037459786690000     0.162630261210000
1 27
     0.162630261210000    -0.096419383490000     0.037459786690000
    -0.096419383490000     0.067451614020000    -0.096419383490000
     0.037459786690000    -0.096419383490000     0.162630261210000
1 28
    -0.093320545490000    -0.120741418270000    -0.231744678070000
    -0.120741418270000    -0.093320545490000    -0.231744678070000
    -0.231744678070000    -0.231744678070000    -0.353192343140000
1 29
     0.162630261210000     0.037459786690000    -0.096419383490000
     0.037459786690000     0.162630261210000    -0.096419383490000
    -0.096419383490000    -0.096419383490000     0.067451614020000
1 30
    -0.093320545490000    -0.231744678070000    -0.120741418270000
    -0.231744678070000    -0.353192343140000    -0.231744678070000
    -0.120741418270000    -0.231744678070000    -0.093320545490000
1 31
    -0.353192343140000    -0.231744678070000    -0.231744678070000
    -0.231744678070000    -0.093320545490000    -0.120741418270000
    -0.231744678070000    -0.120741418270000    -0.093320545490000
1 32
     0.034087097890000    -0.030505898130000    -0.030505898130000
    -0.030505898130000     0.034087097890000    -0.030505898130000
    -0.030505898130000    -0.030505898130000     0.034087097890000
1 33
    -1.644642208000000     0.773680877960000    -1.714670902180000
    -0.773680877960000     1.455347526790000    -0.773680877960000
    -1.714670902180000     0.773680877960000    -1.644642208000000
1 34
    -1.644642208000000     0.773680877960000     1.714670902180000
    -0.773680877960000     1.455347526790000     0.773680877960000
     1.714670902180000    -0.773680877960000    -1.644642208000000
1 35
    -0.087566555830000     0.041797078900000     0.072849837860000
    -0.041797078900000     0.065975462120000    -0.041797078900000
     0.072849837860000     0.041797078900000    -0.087566555830000
1 36
    -0.087566555830000     0.041797078900000    -0.072849837860000
    -0.041797078900000     0.065975462120000     0.041797078900000
    -0.072849837860000    -0.041797078900000    -0.087566555830000
1 37
    -1.644642208000000    -0.773680877960000     1.714670902180000
     0.773680877960000     1.455347526790000    -0.773680877960000
     1.714670902180000     0.773680877960000    -1.644642208000000
1 38
    -1.644642208000000    -0.773680877960000    -1.714670902180000
     0.773680877960000     1.455347526790000     0.773680877960000
    -1.714670902180000    -0.773680877960000    -1.644642208000000
1 39
    -0.087566555830000    -0.041797078900000    -0.072849837860000
     0.041797078900000     0.065975462120000    -0.041797078900000
    -0.072849837860000     0.041797078900000    -0.087566555830000
1 40
    -0.087566555830000    -0.041797078900000     0.072849837860000
     0.041797078900000     0.065975462120000     0.041797078900000
     0.072849837860000    -0.041797078900000    -0.087566555830000
1 41
     0.162630261210000    -0.096419383490000    -0.037459786690000
    -0.096419383490000     0.067451614020000     0.096419383490000
    -0.037459786690000     0.096419383490000     0.162630261210000
1 42
    -0.093320545490000    -0.120741418270000     0.231744678070000
    -0.120741418270000    -0.093320545490000     0.231744678070000
     0.231744678070000     0.231744678070000    -0.353192343140000
1 43
   -10.038325010670000    -2.946506450630000     2.946506450630000
    -2.946506450630000   -10.038325010670000     2.946506450630000
     2.946506450630000     2.946506450630000   -10.038325010670000
1 44
     0.067451614020000    -0.096419383490000     0.096419383490000
    -0.096419383490000     0.162630261210000    -0.037459786690000
     0.096419383490000    -0.037459786690000     0.162630261210000
1 45
    -0.353192343140000    -0.231744678070000     0.231744678070000
    -0.231744678070000    -0.093320545490000     0.120741418270000
     0.231744678070000     0.120741418270000    -0.093320545490000
1 46
     0.034087097890000    -0.030505898130000     0.030505898130000
    -0.030505898130000     0.034087097890000     0.030505898130000
     0.030505898130000     0.030505898130000     0.034087097890000
1 47
     0.162630261210000     0.037459786690000     0.096419383490000
     0.037459786690000     0.162630261210000     0.096419383490000
     0.096419383490000     0.096419383490000     0.067451614020000
1 48
    -0.093320545490000    -0.231744678070000     0.120741418270000
    -0.231744678070000    -0.353192343140000     0.231744678070000
     0.120741418270000     0.231744678070000    -0.093320545490000
1 49
    -1.644642208000000     1.714670902180000    -0.773680877960000
     1.714670902180000    -1.644642208000000     0.773680877960000
     0.773680877960000    -0.773680877960000     1.455347526790000
1 50
    -1.644642208000000    -1.714670902180000    -0.773680877960000
    -1.714670902180000    -1.644642208000000    -0.773680877960000
     0.773680877960000     0.773680877960000     1.455347526790000
1 51
    -1.644642208000000    -1.714670902180000     0.773680877960000
    -1.714670902180000    -1.644642208000000     0.773680877960000
    -0.773680877960000    -0.773680877960000     1.455347526790000
1 52
    -1.644642208000000     1.714670902180000     0.773680877960000
     1.714670902180000    -1.644642208000000    -0.773680877960000
    -0.773680877960000     0.773680877960000     1.455347526790000
1 53
    -0.087566555830000    -0.072849837860000    -0.041797078900000
    -0.072849837860000    -0.087566555830000     0.041797078900000
     0.041797078900000    -0.041797078900000     0.065975462120000
1 54
    -0.087566555830000     0.072849837860000    -0.041797078900000
     0.072849837860000    -0.087566555830000    -0.041797078900000
     0.041797078900000     0.041797078900000     0.065975462120000
1 55
    -0.087566555830000     0.072849837860000     0.041797078900000
     0.072849837860000    -0.087566555830000     0.041797078900000
    -0.041797078900000    -0.041797078900000     0.065975462120000
1 56
    -0.087566555830000    -0.072849837860000     0.041797078900000
    -0.072849837860000    -0.087566555830000    -0.041797078900000
    -0.041797078900000     0.041797078900000     0.065975462120000
1 57
   -10.038325010670000     2.946506450630000    -2.946506450630000
     2.946506450630000   -10.038325010670000     2.946506450630000
    -2.946506450630000     2.946506450630000   -10.038325010670000
1 58
     0.067451614020000     0.096419383490000    -0.096419383490000
     0.096419383490000     0.162630261210000    -0.037459786690000
    -0.096419383490000    -0.037459786690000     0.162630261210000
1 59
     0.162630261210000     0.096419383490000     0.037459786690000
     0.096419383490000     0.067451614020000     0.096419383490000
     0.037459786690000     0.096419383490000     0.162630261210000
1 60
    -0.093320545490000     0.120741418270000    -0.231744678070000
     0.120741418270000    -0.093320545490000     0.231744678070000
    -0.231744678070000     0.231744678070000    -0.353192343140000
1 61
     0.162630261210000    -0.037459786690000    -0.096419383490000
    -0.037459786690000     0.162630261210000     0.096419383490000
    -0.096419383490000     0.096419383490000     0.067451614020000
1 62
    -0.093320545490000     0.231744678070000    -0.120741418270000
     0.231744678070000    -0.353192343140000     0.231744678070000
    -0.120741418270000     0.231744678070000    -0.093320545490000
1 63
    -0.353192343140000     0.231744678070000    -0.231744678070000
     0.231744678070000    -0.093320545490000     0.120741418270000
    -0.231744678070000     0.120741418270000    -0.093320545490000
1 64
     0.034087097890000     0.030505898130000    -0.030505898130000
     0.030505898130000     0.034087097890000     0.030505898130000
    -0.030505898130000     0.030505898130000     0.034087097890000
2 1
    -0.178852317810000    -0.000000000000000    -0.000000000000000
    -0.000000000000000    -0.096490848940000     0.000000000000000
    -0.000000000000000     0.000000000000000    -0.096490848940000
2 2
    48.487926559999991     0.000000000000000     0.000000000000000
     0.000000000000000    48.487926559999991     0.000000000000000
     0.000000000000000     0.000000000000000    48.487926559999991
2 3
    -0.132858475400000    -0.000000000000000    -0.000000000000000
    -0.000000000000000    -0.132858475400000    -0.000000000000000
    -0.000000000000000    -0.000000000000000     0.583852788240000
2 4
    -0.096490848940000    -0.000000000000000     0.000000000000000
    -0.000000000000000    -0.178852317810000    -0.000000000000000
     0.000000000000000    -0.000000000000000    -0.096490848940000
2 5
    -0.132858475400000    -0.000000000000000    -0.000000000000000
    -0.000000000000000     0.583852788240000     0.000000000000000
    -0.000000000000000     0.000000000000000    -0.132858475400000
2 6
    -0.096490848940000     0.000000000000000     0.000000000000000
     0.000000000000000    -0.096490848940000     0.000000000000000
     0.000000000000000     0.000000000000000    -0.178852317810000
2 7
    -0.056412904470000     0.000000000000000     0.000000000000000
     0.000000000000000    -0.056412904470000     0.000000000000000
     0.000000000000000     0.000000000000000    -0.056412904470000
2 8
     0.583852788240000    -0.000000000000000     0.000000000000000
    -0.000000000000000    -0.132858475400000    -0.000000000000000
     0.000000000000000    -0.000000000000000    -0.132858475400000
2 9
    -0.093320545490000     0.120741418270000     0.231744678070000
     0.120741418270000    -0.093320545490000    -0.231744678070000
     0.231744678070000    -0.231744678070000    -0.353192343140000
2 10
     0.162630261210000     0.096419383490000    -0.037459786690000
     0.096419383490000     0.067451614020000    -0.096419383490000
    -0.037459786690000    -0.096419383490000     0.162630261210000
2 11
     0.067451614020000     0.096419383490000     0.096419383490000
     0.096419383490000     0.162630261210000     0.037459786690000
     0.096419383490000     0.037459786690000     0.162630261210000
2 12
   -10.038325010670000     2.946506450630000     2.946506450630000
     2.946506450630000   -10.038325010670000    -2.946506450630000
     2.946506450630000    -2.946506450630000   -10.038325010670000
2 13
     0.034087097890000     0.030505898130000     0.030505898130000
     0.030505898130000     0.034087097890000    -0.030505898130000
     0.030505898130000    -0.030505898130000     0.034087097890000
2 14
    -0.353192343140000     0.231744678070000     0.231744678070000
     0.231744678070000    -0.093320545490000    -0.120741418270000
     0.231744678070000    -0.120741418270000    -0.093320545490000
2 15
    -0.093320545490000     0.231744678070000     0.120741418270000
     0.231744678070000    -0.353192343140000    -0.231744678070000
     0.120741418270000    -0.231744678070000    -0.093320545490000
2 16
     0.162630261210000    -0.037459786690000     0.096419383490000
    -0.037459786690000     0.162630261210000    -0.096419383490000
     0.096419383490000    -0.096419383490000     0.067451614020000
2 17
     0.065975462120000    -0.041797078900000     0.041797078900000
     0.041797078900000    -0.087566555830000    -0.072849837860000
    -0.041797078900000    -0.072849837860000    -0.087566555830000
2 18
     1.455347526790000    -0.773680877960000     0.773680877960000
     0.773680877960000    -1.644642208000000     1.714670902180000
    -0.773680877960000     1.714670902180000    -1.644642208000000
2 19
     0.065975462120000    -0.041797078900000    -0.041797078900000
     0.041797078900000    -0.087566555830000     0.072849837860000
     0.041797078900000     0.072849837860000    -0.087566555830000
2 20
     1.455347526790000    -0.773680877960000    -0.773680877960000
     0.773680877960000    -1.644642208000000    -1.714670902180000
     0.773680877960000    -1.714670902180000    -1.644642208000000
2 21
     0.065975462120000     0.041797078900000     0.041797078900000
    -0.041797078900000    -0.087566555830000     0.072849837860000
    -0.041797078900000     0.072849837860000    -0.087566555830000
2 22
     1.455347526790000     0.773680877960000     0.773680877960000
    -0.773680877960000    -1.644642208000000    -1.714670902180000
    -0.773680877960000    -1.714670902180000    -1.644642208000000
2 23
     0.065975462120000     0.041797078900000    -0.041797078900000
    -0.041797078900000    -0.087566555830000    -0.072849837860000
     0.041797078900000    -0.072849837860000    -0.087566555830000
2 24
     1.455347526790000     0.773680877960000    -0.773680877960000
    -0.773680877960000    -1.644642208000000     1.714670902180000
     0.773680877960000     1.714670902180000    -1.644642208000000
2 25
     0.067451614020000    -0.096419383490000    -0.096419383490000
    -0.096419383490000     0.162630261210000     0.037459786690000
    -0.096419383490000     0.037459786690000     0.162630261210000
2 26
   -10.038325010670000    -2.946506450630000    -2.946506450630000
    -2.946506450630000   -10.038325010670000    -2.946506450630000
    -2.946506450630000    -2.946506450630000   -10.038325010670000
2 27
    -0.093320545490000    -0.120741418270000    -0.231744678070000
    -0.120741418270000    -0.093320545490000    -0.231744678070000
    -0.231744678070000    -0.231744678070000    -0.353192343140000
2 28
     0.162630261210000    -0.096419383490000     0.037459786690000
    -0.096419383490000     0.067451614020000    -0.096419383490000
     0.037459786690000    -0.096419383490000     0.162630261210000
2 29
    -0.093320545490000    -0.231744678070000    -0.120741418270000
    -0.231744678070000    -0.353192343140000    -0.231744678070000
    -0.120741418270000    -0.231744678070000    -0.093320545490000
2 30
     0.162630261210000     0.037459786690000    -0.096419383490000
     0.037459786690000     0.162630261210000    -0.096419383490000
    -0.096419383490000    -0.096419383490000     0.067451614020000
2 31
     0.034087097890000    -0.030505898130000    -0.030505898130000
    -0.030505898130000     0.034087097890000    -0.030505898130000
    -0.030505898130000    -0.030505898130000     0.034087097890000
2 32
    -0.353192343140000    -0.231744678070000    -0.231744678070000
    -0.231744678070000    -0.093320545490000    -0.120741418270000
    -0.231744678070000    -0.120741418270000    -0.093320545490000
2 33
    -1.644642208000000     0.773680877960000     1.714670902180000
    -0.773680877960000     1.455347526790000     0.773680877960000
     1.714670902180000    -0.773680877960000    -1.644642208000000
2 34
    -1.644642208000000     0.773680877960000    -1.714670902180000
    -0.773680877960000     1.455347526790000    -0.773680877960000
    -1.714670902180000     0.773680877960000    -1.644642208000000
2 35
    -0.087566555830000     0.041797078900000    -0.072849837860000
    -0.041797078900000     0.065975462120000     0.041797078900000
    -0.072849837860000    -0.041797078900000    -0.087566555830000
2 36
    -0.087566555830000     0.041797078900000     0.072849837860000
    -0.041797078900000     0.065975462120000    -0.041797078900000
     0.072849837860000     0.041797078900000    -0.087566555830000
2 37
    -1.644642208000000    -0.773680877960000    -1.714670902180000
     0.773680877960000     1.455347526790000     0.773680877960000
    -1.714670902180000    -0.773680877960000    -1.644642208000000
2 38
    -1.644642208000000    -0.773680877960000     1.714670902180000
     0.773680877960000     1.455347526790000    -0.773680877960000
     1.714670902180000     0.773680877960000    -1.644642208000000
2 39
    -0.087566555830000    -0.041797078900000     0.072849837860000
     0.041797078900000     0.065975462120000     0.041797078900000
     0.072849837860000    -0.041797078900000    -0.087566555830000
2 40
    -0.087566555830000    -0.041797078900000    -0.072849837860000
     0.041797078900000     0.065975462120000    -0.041797078900000
    -0.072849837860000     0.041797078900000    -0.087566555830000
2 41
    -0.093320545490000    -0.120741418270000     0.231744678070000
    -0.120741418270000    -0.093320545490000     0.231744678070000
     0.231744678070000     0.231744678070000    -0.353192343140000
2 42
     0.162630261210000    -0.096419383490000    -0.037459786690000
    -0.096419383490000     0.067451614020000     0.096419383490000
    -0.037459786690000     0.096419383490000     0.162630261210000
2 43
     0.067451614020000    -0.096419383490000     0.096419383490000
    -0.096419383490000     0.162630261210000    -0.037459786690000
     0.096419383490000    -0.037459786690000     0.162630261210000
2 44
   -10.038325010670000    -2.946506450630000     2.946506450630000
    -2.946506450630000   -10.038325010670000     2.946506450630000
     2.946506450630000     2.946506450630000   -10.038325010670000
2 45
     0.034087097890000    -0.030505898130000     0.030505898130000
    -0.030505898130000     0.034087097890000     0.030505898130000
     0.030505898130000     0.030505898130000     0.034087097890000
2 46
    -0.353192343140000    -0.231744678070000     0.231744678070000
    -0.231744678070000    -0.093320545490000     0.120741418270000
     0.231744678070000     0.120741418270000    -0.093320545490000
2 47
    -0.093320545490000    -0.231744678070000     0.120741418270000
    -0.231744678070000    -0.353192343140000     0.231744678070000
     0.120741418270000     0.231744678070000    -0.093320545490000
2 48
     0.162630261210000     0.037459786690000     0.096419383490000
     0.037459786690000     0.162630261210000     0.096419383490000
     0.096419383490000     0.096419383490000     0.067451614020000
2 49
    -1.644642208000000    -1.714670902180000    -0.773680877960000
    -1.714670902180000    -1.644642208000000    -0.773680877960000
     0.773680877960000     0.773680877960000     1.455347526790000
2 50
    -1.644642208000000     1.714670902180000    -0.773680877960000
     1.714670902180000    -1.644642208000000     0.773680877960000
     0.773680877960000    -0.773680877960000     1.455347526790000
2 51
    -1.644642208000000     1.714670902180000     0.773680877960000
     1.714670902180000    -1.644642208000000    -0.773680877960000
    -0.773680877960000     0.773680877960000     1.455347526790000
2 52
    -1.644642208000000    -1.714670902180000     0.773680877960000
    -1.714670902180000    -1.644642208000000     0.773680877960000
    -0.773680877960000    -0.773680877960000     1.455347526790000
2 53
    -0.087566555830000     0.072849837860000    -0.041797078900000
     0.072849837860000    -0.087566555830000    -0.041797078900000
     0.041797078900000     0.041797078900000     0.065975462120000
2 54
    -0.087566555830000    -0.072849837860000    -0.041797078900000
    -0.072849837860000    -0.087566555830000     0.041797078900000
     0.041797078900000    -0.041797078900000     0.065975462120000
2 55
    -0.087566555830000    -0.072849837860000     0.041797078900000
    -0.072849837860000    -0.087566555830000    -0.041797078900000
    -0.041797078900000     0.041797078900000     0.065975462120000
2 56
    -0.087566555830000     0.072849837860000     0.041797078900000
     0.072849837860000    -0.087566555830000     0.041797078900000
    -0.041797078900000    -0.041797078900000     0.065975462120000
2 57
     0.067451614020000     0.096419383490000    -0.096419383490000
     0.096419383490000     0.162630261210000    -0.037459786690000
    -0.096419383490000    -0.037459786690000     0.162630261210000
2 58
   -10.038325010670000     2.946506450630000    -2.946506450630000
     2.946506450630000   -10.038325010670000     2.946506450630000
    -2.946506450630000     2.946506450630000   -10.038325010670000
2 59
    -0.093320545490000     0.120741418270000    -0.231744678070000
     0.120741418270000    -0.093320545490000     0.231744678070000
    -0.231744678070000     0.231744678070000    -0.353192343140000
2 60
     0.162630261210000     0.096419383490000     0.037459786690000
     0.096419383490000     0.067451614020000     0.096419383490000
     0.037459786690000     0.096419383490000     0.162630261210000
2 61
    -0.093320545490000     0.231744678070000    -0.120741418270000
     0.231744678070000    -0.353192343140000     0.231744678070000
    -0.120741418270000     0.231744678070000    -0.093320545490000
2 62
     0.162630261210000    -0.037459786690000    -0.096419383490000
    -0.037459786690000     0.162630261210000     0.096419383490000
    -0.096419383490000     0.096419383490000     0.067451614020000
2 63
     0.034087097890000     0.030505898130000    -0.030505898130000
     0.030505898130000     0.034087097890000     0.030505898130000
    -0.030505898130000     0.030505898130000     0.034087097890000
2 64
    -0.353192343140000     0.231744678070000    -0.231744678070000
     0.231744678070000    -0.093320545490000     0.120741418270000
    -0.231744678070000     0.120741418270000    -0.093320545490000
3 1
    -0.096490848940000    -0.000000000000000     0.000000000000000
    -0.000000000000000    -0.178852317810000    -0.000000000000000
     0.000000000000000    -0.000000000000000    -0.096490848940000
3 2
    -0.132858475400000    -0.000000000000000    -0.000000000000000
    -0.000000000000000    -0.132858475400000    -0.000000000000000
    -0.000000000000000    -0.000000000000000     0.583852788240000
3 3
    48.487926559999991     0.000000000000000     0.000000000000000
     0.000000000000000    48.487926559999991     0.000000000000000
     0.000000000000000     0.000000000000000    48.487926559999991
3 4
    -0.178852317810000    -0.000000000000000    -0.000000000000000
    -0.000000000000000    -0.096490848940000     0.000000000000000
    -0.000000000000000     0.000000000000000    -0.096490848940000
3 5
     0.583852788240000    -0.000000000000000     0.000000000000000
    -0.000000000000000    -0.132858475400000    -0.000000000000000
     0.000000000000000    -0.000000000000000    -0.132858475400000
3 6
    -0.056412904470000     0.000000000000000     0.000000000000000
     0.000000000000000    -0.056412904470000     0.000000000000000
     0.000000000000000     0.000000000000000    -0.056412904470000
3 7
    -0.096490848940000     0.000000000000000     0.000000000000000
     0.000000000000000    -0.096490848940000     0.000000000000000
     0.000000000000000     0.000000000000000    -0.178852317810000
3 8
    -0.132858475400000    -0.000000000000000    -0.000000000000000
    -0.000000000000000     0.583852788240000     0.000000000000000
    -0.000000000000000     0.000000000000000    -0.132858475400000
3 9
   -10.038325010670000     2.946506450630000     2.946506450630000
     2.946506450630000   -10.038325010670000    -2.946506450630000
     2.946506450630000    -2.946506450630000   -10.038325010670000
3 10
     0.067451614020000     0.096419383490000     0.096419383490000
     0.096419383490000     0.162630261210000     0.037459786690000
     0.096419383490000     0.037459786690000     0.162630261210000
3 11
     0.162630261210000     0.096419383490000    -0.037459786690000
     0.096419383490000     0.067451614020000    -0.096419383490000
    -0.037459786690000    -0.096419383490000     0.162630261210000
3 12
    -0.093320545490000     0.120741418270000     0.231744678070000
     0.120741418270000    -0.093320545490000    -0.231744678070000
     0.231744678070000    -0.231744678070000    -0.353192343140000
3 13
     0.162630261210000    -0.037459786690000     0.096419383490000
    -0.037459786690000     0.162630261210000    -0.096419383490000
     0.096419383490000    -0.096419383490000     0.067451614020000
3 14
    -0.093320545490000     0.231744678070000     0.120741418270000
     0.231744678070000    -0.353192343140000    -0.231744678070000
     0.120741418270000    -0.231744678070000    -0.093320545490000
3 15
    -0.353192343140000     0.231744678070000     0.231744678070000
     0.231744678070000    -0.093320545490000    -0.120741418270000
     0.231744678070000    -0.120741418270000    -0.093320545490000
3 16
     0.034087097890000     0.030505898130000     0.030505898130000
     0.030505898130000     0.034087097890000    -0.030505898130000
     0.030505898130000    -0.030505898130000     0.034087097890000
3 17
     1.455347526790000    -0.773680877960000    -0.773680877960000
     0.773680877960000    -1.644642208000000    -1.714670902180000
     0.773680877960000    -1.714670902180000    -1.644642208000000
3 18
     0.065975462120000    -0.041797078900000    -0.041797078900000
     0.041797078900000    -0.087566555830000     0.072849837860000