mesh: [    48,    48,    48 ]
nqpoint: 2600   
reciprocal_lattice:
- [   0.28429555,   0.00000000,   0.00000000 ] # a*
- [   0.00000000,   0.28429555,   0.00000000 ] # b*
- [   0.00000000,   0.00000000,   0.28429555 ] # c*
natom:   8      
lattice:
- [     3.517466245278817,     0.000000000000000,     0.000000000000000 ] # a
- [     0.000000000000000,     3.517466245278817,     0.000000000000000 ] # b
- [     0.000000000000000,     0.000000000000000,     3.517466245278817 ] # c
points:
- symbol: C  # 1
  coordinates: [  0.250000000000000,  0.750000000000000,  0.250000000000000 ]
  mass: 12.010700
- symbol: C  # 2
  coordinates: [  0.000000000000000,  0.000000000000000,  0.500000000000000 ]
  mass: 12.010700
- symbol: C  # 3
  coordinates: [  0.250000000000000,  0.250000000000000,  0.750000000000000 ]
  mass: 12.010700
- symbol: C  # 4
  coordinates: [  0.000000000000000,  0.500000000000000,  0.000000000000000 ]
  mass: 12.010700
- symbol: C  # 5
  coordinates: [  0.750000000000000,  0.750000000000000,  0.750000000000000 ]
  mass: 12.010700
- symbol: C  # 6
  coordinates: [  0.500000000000000,  0.000000000000000,  0.000000000000000 ]
  mass: 12.010700
- symbol: C  # 7
  coordinates: [  0.750000000000000,  0.250000000000000,  0.250000000000000 ]
  mass: 12.010700
- symbol: C  # 8
  coordinates: [  0.500000000000000,  0.500000000000000,  0.500000000000000 ]
  mass: 12.010700

phonon:
- q-position: [    0.0104167,    0.0104167,    0.0104167 ]
  distance_from_gamma:  0.005129316
  weight: 8    
  band:
  - # 1
    frequency:     0.6080855753
  - # 2
    frequency:     0.6080855753
  - # 3
    frequency:     0.9685011722
  - # 4
    frequency:    23.6191233393
  - # 5
    frequency:    23.6191233393
  - # 6
    frequency:    23.6191233393
  - # 7
    frequency:    23.6339843767
  - # 8
    frequency:    23.6339843767
  - # 9
    frequency:    23.6339843767
  - # 10
    frequency:    34.0994183240
  - # 11
    frequency:    34.0994183240
  - # 12
    frequency:    34.0994183240
  - # 13
    frequency:    34.1073660614
  - # 14
    frequency:    34.1073660614
  - # 15
    frequency:    34.1073660614
  - # 16
    frequency:    37.1067235520
  - # 17
    frequency:    37.1067235520
  - # 18
    frequency:    37.1067235520
  - # 19
    frequency:    37.4566083594
  - # 20
    frequency:    37.4566083594
  - # 21
    frequency:    37.4566083594
  - # 22
    frequency:    40.6476901365
  - # 23
    frequency:    40.6476901365
  - # 24
    frequency:    40.6512599361

- q-position: [    0.0312500,    0.0104167,    0.0104167 ]
  distance_from_gamma:  0.009821892
  weight: 24   
  band:
  - # 1
    frequency:     1.1847046385
  - # 2
    frequency:     1.2198264679
  - # 3
    frequency:     1.8041477538
  - # 4
    frequency:    23.5899850919
  - # 5
    frequency:    23.6048487293
  - # 6
    frequency:    23.6302032377
  - # 7
    frequency:    23.6302032377
  - # 8
    frequency:    23.6747074241
  - # 9
    frequency:    23.6747074241
  - # 10
    frequency:    34.0786321980
  - # 11
    frequency:    34.0786321980
  - # 12
    frequency:    34.1024681452
  - # 13
    frequency:    34.1024681452
  - # 14
    frequency:    34.1175001993
  - # 15
    frequency:    34.1259062122
  - # 16
    frequency:    36.7389608502
  - # 17
    frequency:    37.1002052400
  - # 18
    frequency:    37.1002052400
  - # 19
    frequency:    37.4488132464
  - # 20
    frequency:    37.4488132464
  - # 21
    frequency:    37.7880955246
  - # 22
    frequency:    40.6361858519
  - # 23
    frequency:    40.6369874624
  - # 24
    frequency:    40.6546950332

- q-position: [    0.0520833,    0.0104167,    0.0104167 ]
  distance_from_gamma:  0.015387948
  weight: 24   
  band:
  - # 1
    frequency:     1.9005655918
  - # 2
    frequency:     1.9287562431
  - # 3
    frequency:     2.7812402242
  - # 4
    frequency:    23.5318612556
  - # 5
    frequency:    23.5467291942
  - # 6
    frequency:    23.6670797297
  - # 7
    frequency:    23.6670797297
  - # 8
    frequency:    23.7409933631
  - # 9
    frequency:    23.7409933631
  - # 10
    frequency:    34.0448798881
  - # 11
    frequency:    34.0448798881
  - # 12
    frequency:    34.0846313431
  - # 13
    frequency:    34.0846313431
  - # 14
    frequency:    34.1533206924
  - # 15
    frequency:    34.1627767336
  - # 16
    frequency:    36.3529196039
  - # 17
    frequency:    37.0873805847
  - # 18
    frequency:    37.0873805847
  - # 19
    frequency:    37.4334372361
  - # 20
    frequency:    37.4334372361
  - # 21
    frequency:    38.1017497846
  - # 22
    frequency:    40.6132049770
  - # 23
    frequency:    40.6140964219
  - # 24
    frequency:    40.6630159138

- q-position: [    0.0729167,    0.0104167,    0.0104167 ]
  distance_from_gamma:  0.021148712
  weight: 24   
  band:
  - # 1
    frequency:     2.6354028823
  - # 2
    frequency:     2.6566086151
  - # 3
    frequency:     3.7953259686
  - # 4
    frequency:    23.4450481072
  - # 5
    frequency:    23.4599203137
  - # 6
    frequency:    23.7293871409
  - # 7
    frequency:    23.7293871409
  - # 8
    frequency:    23.8323268646
  - # 9
    frequency:    23.8323268646
  - # 10
    frequency:    33.9979499582
  - # 11
    frequency:    33.9979499582
  - # 12
    frequency:    34.0536428163
  - # 13
    frequency:    34.0536428163
  - # 14
    frequency:    34.2060833672
  - # 15
    frequency:    34.2175680110
  - # 16
    frequency:    35.9488868903
  - # 17
    frequency:    37.0686638322
  - # 18
    frequency:    37.0686638322
  - # 19
    frequency:    37.4109016198
  - # 20
    frequency:    37.4109016198
  - # 21
    frequency:    38.3977322965
  - # 22
    frequency:    40.5788029941
  - # 23
    frequency:    40.5797185144
  - # 24
    frequency:    40.6754517382

- q-position: [    0.0937500,    0.0104167,    0.0104167 ]
  distance_from_gamma:  0.026979747
  weight: 24   
  band:
  - # 1
    frequency:     3.3732301930
  - # 2
    frequency:     3.3893309979
  - # 3
    frequency:     4.8218167374
  - # 4
    frequency:    23.3299687354
  - # 5
    frequency:    23.3448427253
  - # 6
    frequency:    23.8165420622
  - # 7
    frequency:    23.8165420622
  - # 8
    frequency:    23.9479840831
  - # 9
    frequency:    23.9479840831
  - # 10
    frequency:    33.9375567231
  - # 11
    frequency:    33.9375567231
  - # 12
    frequency:    34.0091966094
  - # 13
    frequency:    34.0091966094
  - # 14
    frequency:    34.2740596178
  - # 15
    frequency:    34.2896891890
  - # 16
    frequency:    35.5278557900
  - # 17
    frequency:    37.0446522172
  - # 18
    frequency:    37.0446522172
  - # 19
    frequency:    37.3818202504
  - # 20
    frequency:    37.3818202504
  - # 21
    frequency:    38.6762803401
  - # 22
    frequency:    40.5330633576
  - # 23
    frequency:    40.5339880692
  - # 24
    frequency:    40.6917658317

- q-position: [    0.1145833,    0.0104167,    0.0104167 ]
  distance_from_gamma:  0.032843648
  weight: 24   
  band:
  - # 1
    frequency:     4.1099559773
  - # 2
    frequency:     4.1222647878
  - # 3
    frequency:     5.8517383679
  - # 4
    frequency:    23.1871507249
  - # 5
    frequency:    23.2020210034
  - # 6
    frequency:    23.9277495496
  - # 7
    frequency:    23.9277495496
  - # 8
    frequency:    24.0870420461
  - # 9
    frequency:    24.0870420461
  - # 10
    frequency:    33.8633723901
  - # 11
    frequency:    33.8633723901
  - # 12
    frequency:    33.9509158104
  - # 13
    frequency:    33.9509158104
  - # 14
    frequency:    34.3518333512
  - # 15
    frequency:    34.3783931145
  - # 16
    frequency:    35.0943553058
  - # 17
    frequency:    37.0160974492
  - # 18
    frequency:    37.0160974492
  - # 19
    frequency:    37.3469773516
  - # 20
    frequency:    37.3469773516
  - # 21
    frequency:    38.9376582562
  - # 22
    frequency:    40.4760977657
  - # 23
    frequency:    40.4770263680
  - # 24
    frequency:    40.7117035262

- q-position: [    0.1354167,    0.0104167,    0.0104167 ]
  distance_from_gamma:  0.038725487
  weight: 24   
  band:
  - # 1
    frequency:     4.8437715220
  - # 2
    frequency:     4.8531347072
  - # 3
    frequency:     6.8807540814
  - # 4
    frequency:    23.0172010664
  - # 5
    frequency:    23.0320587487
  - # 6
    frequency:    24.0620108390
  - # 7
    frequency:    24.0620108390
  - # 8
    frequency:    24.2483892387
  - # 9
    frequency:    24.2483892387
  - # 10
    frequency:    33.7750665843
  - # 11
    frequency:    33.7750665843
  - # 12
    frequency:    33.8783854976
  - # 13
    frequency:    33.8783854976
  - # 14
    frequency:    34.3934931358
  - # 15
    frequency:    34.4828048318
  - # 16
    frequency:    34.6932932184
  - # 17
    frequency:    36.9838689239
  - # 18
    frequency:    36.9838689239
  - # 19
    frequency:    37.3072975785
  - # 20
    frequency:    37.3072975785
  - # 21
    frequency:    39.1821517417
  - # 22
    frequency:    40.4080465123
  - # 23
    frequency:    40.4089765508
  - # 24
    frequency:    40.7349598138

- q-position: [    0.1562500,    0.0104167,    0.0104167 ]
  distance_from_gamma:  0.044618170
  weight: 24   
  band:
  - # 1
    frequency:     5.5735142537
  - # 2
    frequency:     5.5804918121
  - # 3
    frequency:     7.9062735341
  - # 4
    frequency:    22.8207809833
  - # 5
    frequency:    22.8356135963
  - # 6
    frequency:    24.2181315639
  - # 7
    frequency:    24.2181315639
  - # 8
    frequency:    24.4307363014
  - # 9
    frequency:    24.4307363014
  - # 10
    frequency:    33.6723532005
  - # 11
    frequency:    33.6723532005
  - # 12
    frequency:    33.7911951068
  - # 13
    frequency:    33.7911951068
  - # 14
    frequency:    34.0846294586
  - # 15
    frequency:    34.6019508586
  - # 16
    frequency:    34.6379908673
  - # 17
    frequency:    36.9489104951
  - # 18
    frequency:    36.9489104951
  - # 19
    frequency:    37.2638088695
  - # 20
    frequency:    37.2638088695
  - # 21
    frequency:    39.4100660998
  - # 22
    frequency:    40.3290789107
  - # 23
    frequency:    40.3300090315
  - # 24
    frequency:    40.7611770424

- q-position: [    0.1770833,    0.0104167,    0.0104167 ]
  distance_from_gamma:  0.050517904
  weight: 24   
  band:
  - # 1
    frequency:     6.2982585167
  - # 2
    frequency:     6.3032362073
  - # 3
    frequency:     8.9264833833
  - # 4
    frequency:    22.5985828922
  - # 5
    frequency:    22.6133743448
  - # 6
    frequency:    24.3947291579
  - # 7
    frequency:    24.3947291579
  - # 8
    frequency:    24.6326255353
  - # 9
    frequency:    24.6326255353
  - # 10
    frequency:    33.5550428409
  - # 11
    frequency:    33.5550428409
  - # 12
    frequency:    33.6014295515
  - # 13
    frequency:    33.6889889653
  - # 14
    frequency:    33.6889889653
  - # 15
    frequency:    34.7347869330
  - # 16
    frequency:    34.7511178693
  - # 17
    frequency:    36.9121936844
  - # 18
    frequency:    36.9121936844
  - # 19
    frequency:    37.2175995916
  - # 20
    frequency:    37.2175995916
  - # 21
    frequency:    39.6217256542
  - # 22
    frequency:    40.2393937796
  - # 23
    frequency:    40.2403231513
  - # 24
    frequency:    40.7899468645

- q-position: [    0.1979167,    0.0104167,    0.0104167 ]
  distance_from_gamma:  0.056422476
  weight: 24   
  band:
  - # 1
    frequency:     7.0171834763
  - # 2
    frequency:     7.0204376919
  - # 3
    frequency:     9.9399638979
  - # 4
    frequency:    22.3513110024
  - # 5
    frequency:    22.3660417000
  - # 6
    frequency:    24.5902377819
  - # 7
    frequency:    24.5902377819
  - # 8
    frequency:    24.8524376111
  - # 9
    frequency:    24.8524376111
  - # 10
    frequency:    33.0849444652
  - # 11
    frequency:    33.4230985397
  - # 12
    frequency:    33.4230985397
  - # 13
    frequency:    33.5715229010
  - # 14
    frequency:    33.5715229010
  - # 15
    frequency:    34.8802226251
  - # 16
    frequency:    34.8904511101
  - # 17
    frequency:    36.8746710956
  - # 18
    frequency:    36.8746710956
  - # 19
    frequency:    37.1697726239
  - # 20
    frequency:    37.1697726239
  - # 21
    frequency:    39.8174736895
  - # 22
    frequency:    40.1392199783
  - # 23
    frequency:    40.1401480792
  - # 24
    frequency:    40.8208133686

- q-position: [    0.2187500,    0.0104167,    0.0104167 ]
  distance_from_gamma:  0.062330512
  weight: 24   
  band:
  - # 1
    frequency:     7.7295222699
  - # 2
    frequency:     7.7312582389
  - # 3
    frequency:    10.9455180810
  - # 4
    frequency:    22.0796663054
  - # 5
    frequency:    22.0943133792
  - # 6
    frequency:    24.8029086764
  - # 7
    frequency:    24.8029086764
  - # 8
    frequency:    25.0883934720
  - # 9
    frequency:    25.0883934720
  - # 10
    frequency:    32.5455439132
  - # 11
    frequency:    33.2766925675
  - # 12
    frequency:    33.2766925675
  - # 13
    frequency:    33.4387242737
  - # 14
    frequency:    33.4387242737
  - # 15
    frequency:    35.0371419495
  - # 16
    frequency:    35.0444418452
  - # 17
    frequency:    36.8372342037
  - # 18
    frequency:    36.8372342037
  - # 19
    frequency:    37.1214000163
  - # 20
    frequency:    37.1214000163
  - # 21
    frequency:    39.9976726726
  - # 22
    frequency:    40.0288169786
  - # 23
    frequency:    40.0297435240
  - # 24
    frequency:    40.8532767557

- q-position: [    0.2395833,    0.0104167,    0.0104167 ]
  distance_from_gamma:  0.068241111
  weight: 24   
  band:
  - # 1
    frequency:     8.4345398518
  - # 2
    frequency:     8.4349149360
  - # 3
    frequency:    11.9420884193
  - # 4
    frequency:    21.7843360549
  - # 5
    frequency:    21.7988736728
  - # 6
    frequency:    25.0308031986
  - # 7
    frequency:    25.0308031986
  - # 8
    frequency:    25.3385487876
  - # 9
    frequency:    25.3385487876
  - # 10
    frequency:    31.9851459481
  - # 11
    frequency:    33.1162631677
  - # 12
    frequency:    33.1162631677
  - # 13
    frequency:    33.2907529989
  - # 14
    frequency:    33.2907529989
  - # 15
    frequency:    35.2044197697
  - # 16
    frequency:    35.2100037337
  - # 17
    frequency:    36.8006793278
  - # 18
    frequency:    36.8006793278
  - # 19
    frequency:    37.0734823485
  - # 20
    frequency:    37.0734823485
  - # 21
    frequency:    39.9084754579
  - # 22
    frequency:    39.9094003933
  - # 23
    frequency:    40.1627046270
  - # 24
    frequency:    40.8867973513

- q-position: [    0.2604167,    0.0104167,    0.0104167 ]
  distance_from_gamma:  0.074153661
  weight: 24   
  band:
  - # 1
    frequency:     9.1306609076
  - # 2
    frequency:     9.1315224744
  - # 3
    frequency:    12.9287135129
  - # 4
    frequency:    21.4659873601
  - # 5
    frequency:    21.4803870893
  - # 6
    frequency:    25.2717748323
  - # 7
    frequency:    25.2717748323
  - # 8
    frequency:    25.6007773124
  - # 9
    frequency:    25.6007773124
  - # 10
    frequency:    31.4043517213
  - # 11
    frequency:    32.9425722663
  - # 12
    frequency:    32.9425722663
  - # 13
    frequency:    33.1280625676
  - # 14
    frequency:    33.1280625676
  - # 15
    frequency:    35.3809342574
  - # 16
    frequency:    35.3853918560
  - # 17
    frequency:    36.7656844588
  - # 18
    frequency:    36.7656844588
  - # 19
    frequency:    37.0269166018
  - # 20
    frequency:    37.0269166018
  - # 21
    frequency:    39.7785178985
  - # 22
    frequency:    39.7794414289
  - # 23
    frequency:    40.3129715825
  - # 24
    frequency:    40.9207998436

- q-position: [    0.2812500,    0.0104167,    0.0104167 ]
  distance_from_gamma:  0.080067730
  weight: 24   
  band:
  - # 1
    frequency:     9.8177749523
  - # 2
    frequency:     9.8197724152
  - # 3
    frequency:    13.9045043210
  - # 4
    frequency:    21.1252642395
  - # 5
    frequency:    21.1394954332
  - # 6
    frequency:    25.5234349417
  - # 7
    frequency:    25.5234349417
  - # 8
    frequency:    25.8727378615
  - # 9
    frequency:    25.8727378615
  - # 10
    frequency:    30.8034197416
  - # 11
    frequency:    32.7567685032
  - # 12
    frequency:    32.7567685032
  - # 13
    frequency:    32.9514629179
  - # 14
    frequency:    32.9514629179
  - # 15
    frequency:    35.5655759544
  - # 16
    frequency:    35.5692388622
  - # 17
    frequency:    36.7327979548
  - # 18
    frequency:    36.7327979548
  - # 19
    frequency:    36.9824752109
  - # 20
    frequency:    36.9824752109
  - # 21
    frequency:    39.6392991754
  - # 22
    frequency:    39.6402218196
  - # 23
    frequency:    40.4488960435
  - # 24
    frequency:    40.9546776688

- q-position: [    0.3020833,    0.0104167,    0.0104167 ]
  distance_from_gamma:  0.085983004
  weight: 24   
  band:
  - # 1
    frequency:    10.4955557035
  - # 2
    frequency:    10.4986052713
  - # 3
    frequency:    14.8686306634
  - # 4
    frequency:    20.7627873656
  - # 5
    frequency:    20.7768175514
  - # 6
    frequency:    25.7830946858
  - # 7
    frequency:    25.7830946858
  - # 8
    frequency:    26.1518169624
  - # 9
    frequency:    26.1518169624
  - # 10
    frequency:    30.1825000353
  - # 11
    frequency:    32.5604642575
  - # 12
    frequency:    32.5604642575
  - # 13
    frequency:    32.7621913620
  - # 14
    frequency:    32.7621913620
  - # 15
    frequency:    35.7572541038
  - # 16
    frequency:    35.7603285137
  - # 17
    frequency:    36.7024383877
  - # 18
    frequency:    36.7024383877
  - # 19
    frequency:    36.9407972507
  - # 20
    frequency:    36.9407972507
  - # 21
    frequency:    39.4912071173
  - # 22
    frequency:    39.4921297816
  - # 23
    frequency:    40.5709214325
  - # 24
    frequency:    40.9877974737

- q-position: [    0.3229167,    0.0104167,    0.0104167 ]
  distance_from_gamma:  0.091899251
  weight: 24   
  band:
  - # 1
    frequency:    11.1633182677
  - # 2
    frequency:    11.1673485903
  - # 3
    frequency:    15.8203133473
  - # 4
    frequency:    20.3791557438
  - # 5
    frequency:    20.3929509942
  - # 6
    frequency:    26.0476719725
  - # 7
    frequency:    26.0476719725
  - # 8
    frequency:    26.4350350018
  - # 9
    frequency:    26.4350350018
  - # 10
    frequency:    29.5417106854
  - # 11
    frequency:    32.3558406161
  - # 12
    frequency:    32.3558406161
  - # 13
    frequency:    32.5620036498
  - # 14
    frequency:    32.5620036498
  - # 15
    frequency:    35.9549009172
  - # 16
    frequency:    35.9575247991
  - # 17
    frequency:    36.6749034701
  - # 18
    frequency:    36.6749034701
  - # 19
    frequency:    36.9023908890
  - # 20
    frequency:    36.9023908890
  - # 21
    frequency:    39.3346630225
  - # 22
    frequency:    39.3355870924
  - # 23
    frequency:    40.6795124708
  - # 24
    frequency:    41.0195035932

- q-position: [    0.3437500,    0.0104167,    0.0104167 ]
  distance_from_gamma:  0.097816294
  weight: 24   
  band:
  - # 1
    frequency:    11.8203922744
  - # 2
    frequency:    11.8253412251
  - # 3
    frequency:    16.7588194927
  - # 4
    frequency:    19.9749496480
  - # 5
    frequency:    19.9884749207
  - # 6
    frequency:    26.3135473547
  - # 7
    frequency:    26.3135473547
  - # 8
    frequency:    26.7188971947
  - # 9
    frequency:    26.7188971947
  - # 10
    frequency:    28.8811685468
  - # 11
    frequency:    32.1458003662
  - # 12
    frequency:    32.1458003662
  - # 13
    frequency:    32.3533049230
  - # 14
    frequency:    32.3533049230
  - # 15
    frequency:    36.1574743737
  - # 16
    frequency:    36.1597454073
  - # 17
    frequency:    36.6503852904
  - # 18
    frequency:    36.6503852904
  - # 19
    frequency:    36.8676447750
  - # 20
    frequency:    36.8676447750
  - # 21
    frequency:    39.1701221149
  - # 22
    frequency:    39.1710495627
  - # 23
    frequency:    40.7751554626
  - # 24
    frequency:    41.0491224866

- q-position: [    0.3645833,    0.0104167,    0.0104167 ]
  distance_from_gamma:  0.103733996
  weight: 24   
  band:
  - # 1
    frequency:    12.4661207487
  - # 2
    frequency:    12.4719330848
  - # 3
    frequency:    17.6834597176
  - # 4
    frequency:    19.5507342597
  - # 5
    frequency:    19.5639536962
  - # 6
    frequency:    26.5763469548
  - # 7
    frequency:    26.5763469548
  - # 8
    frequency:    26.9991617333
  - # 9
    frequency:    26.9991617333
  - # 10
    frequency:    28.2010036778
  - # 11
    frequency:    31.9341949793
  - # 12
    frequency:    31.9341949793
  - # 13
    frequency:    32.1393501957
  - # 14
    frequency:    32.1393501957
  - # 15
    frequency:    36.3639600333
  - # 16
    frequency:    36.3659504889
  - # 17
    frequency:    36.6289890520
  - # 18
    frequency:    36.6289890520
  - # 19
    frequency:    36.8368452278
  - # 20
    frequency:    36.8368452278
  - # 21
    frequency:    38.9980739237
  - # 22
    frequency:    38.9990074349
  - # 23
    frequency:    40.8583584511
  - # 24
    frequency:    41.0759670765

- q-position: [    0.3854167,    0.0104167,    0.0104167 ]
  distance_from_gamma:  0.109652252
  weight: 24   
  band:
  - # 1
    frequency:    13.0998594627
  - # 2
    frequency:    13.1064850922
  - # 3
    frequency:    18.5935864172
  - # 4
    frequency:    19.1070635811
  - # 5
    frequency:    19.1199407581
  - # 6
    frequency:    26.8306275109
  - # 7
    frequency:    26.8306275109
  - # 8
    frequency:    27.2704883740
  - # 9
    frequency:    27.2704883740
  - # 10
    frequency:    27.5013670899
  - # 11
    frequency:    31.7261519323
  - # 12
    frequency:    31.7261519323
  - # 13
    frequency:    31.9245554646
  - # 14
    frequency:    31.9245554646
  - # 15
    frequency:    36.5733722375
  - # 16
    frequency:    36.5751374553
  - # 17
    frequency:    36.6107529751
  - # 18
    frequency:    36.6107529751
  - # 19
    frequency:    36.8101959828
  - # 20
    frequency:    36.8101959828
  - # 21
    frequency:    38.8190425751
  - # 22
    frequency:    38.8199856913
  - # 23
    frequency:    40.9296512190
  - # 24
    frequency:    41.0993409464

- q-position: [    0.4062500,    0.0104167,    0.0104167 ]
  distance_from_gamma:  0.115570976
  weight: 24   
  band:
  - # 1
    frequency:    13.7209765513
  - # 2
    frequency:    13.7283692268
  - # 3
    frequency:    18.6444843168
  - # 4
    frequency:    18.6569824441
  - # 5
    frequency:    19.4885926768
  - # 6
    frequency:    26.7824354321
  - # 7
    frequency:    27.0694514070
  - # 8
    frequency:    27.0694514070
  - # 9
    frequency:    27.5259335598
  - # 10
    frequency:    27.5259335598
  - # 11
    frequency:    31.5285049588
  - # 12
    frequency:    31.5285049588
  - # 13
    frequency:    31.7149676365
  - # 14
    frequency:    31.7149676365
  - # 15
    frequency:    36.5956677167
  - # 16
    frequency:    36.5956677167
  - # 17
    frequency:    36.7847549584
  - # 18
    frequency:    36.7863384493
  - # 19
    frequency:    36.7878376877
  - # 20
    frequency:    36.7878376877
  - # 21
    frequency:    38.6335869827
  - # 22
    frequency:    38.6345442662
  - # 23
    frequency:    40.9895851040
  - # 24
    frequency:    41.1185423522

- q-position: [    0.4270833,    0.0104167,    0.0104167 ]
  distance_from_gamma:  0.121490099
  weight: 24   
  band:
  - # 1
    frequency:    14.3288522491
  - # 2
    frequency:    14.3369685712
  - # 3
    frequency:    18.1635395141
  - # 4
    frequency:    18.1756215770
  - # 5
    frequency:    20.3679115400
  - # 6
    frequency:    26.0444141259
  - # 7
    frequency:    27.2839037369
  - # 8
    frequency:    27.2839037369
  - # 9
    frequency:    27.7563134097
  - # 10
    frequency:    27.7563134097
  - # 11
    frequency:    31.3502290544
  - # 12
    frequency:    31.3502290544
  - # 13
    frequency:    31.5189214325
  - # 14
    frequency:    31.5189214325
  - # 15
    frequency:    36.5836943255
  - # 16
    frequency:    36.5836943255
  - # 17
    frequency:    36.7698650919
  - # 18
    frequency:    36.7698650919
  - # 19
    frequency:    36.9971824699
  - # 20
    frequency:    36.9986191282
  - # 21
    frequency:    38.4423009304
  - # 22
    frequency:    38.4432781514
  - # 23
    frequency:    41.0387326056
  - # 24
    frequency:    41.1328680136

- q-position: [    0.4479167,    0.0104167,    0.0104167 ]
  distance_from_gamma:  0.127409566
  weight: 24   
  band:
  - # 1
    frequency:    14.9228786447
  - # 2
    frequency:    14.9316772956
  - # 3
    frequency:    17.6647718387
  - # 4
    frequency:    17.6764006828
  - # 5
    frequency:    21.2310154537
  - # 6
    frequency:    25.2875396440
  - # 7
    frequency:    27.4627915537
  - # 8
    frequency:    27.4627915537
  - # 9
    frequency:    27.9496638981
  - # 10
    frequency:    27.9496638981
  - # 11
    frequency:    31.2024889958
  - # 12
    frequency:    31.2024889958
  - # 13
    frequency:    31.3478070842
  - # 14
    frequency:    31.3478070842
  - # 15
    frequency:    36.5747802124
  - # 16
    frequency:    36.5747802124
  - # 17
    frequency:    36.7563407326
  - # 18
    frequency:    36.7563407326
  - # 19
    frequency:    37.2097599461
  - # 20
    frequency:    37.2110781546
  - # 21
    frequency:    38.2458130420
  - # 22
    frequency:    38.2468173937
  - # 23
    frequency:    41.0776867584
  - # 24
    frequency:    41.1416166543

- q-position: [    0.4687500,    0.0104167,    0.0104167 ]
  distance_from_gamma:  0.133329332
  weight: 24   
  band:
  - # 1
    frequency:    15.5024593730
  - # 2
    frequency:    15.5119005234
  - # 3
    frequency:    17.1487264220
  - # 4
    frequency:    17.1598647775
  - # 5
    frequency:    22.0774157744
  - # 6
    frequency:    24.5120812695
  - # 7
    frequency:    27.5931361024
  - # 8
    frequency:    27.5931361024
  - # 9
    frequency:    28.0915209062
  - # 10
    frequency:    28.0915209062
  - # 11
    frequency:    31.0973131798
  - # 12
    frequency:    31.0973131798
  - # 13
    frequency:    31.2166045545
  - # 14
    frequency:    31.2166045545
  - # 15
    frequency:    36.5688728054
  - # 16
    frequency:    36.5688728054
  - # 17
    frequency:    36.7473047461
  - # 18
    frequency:    36.7473047461
  - # 19
    frequency:    37.4216240374
  - # 20
    frequency:    37.4228471022
  - # 21
    frequency:    38.0447866383
  - # 22
    frequency:    38.0458269865
  - # 23
    frequency:    41.1070602522
  - # 24
    frequency:    41.1440922681

- q-position: [    0.4895833,    0.0104167,    0.0104167 ]
  distance_from_gamma:  0.139249357
  weight: 24   
  band:
  - # 1
    frequency:    16.0670091744
  - # 2
    frequency:    16.0770540271
  - # 3
    frequency:    16.6159532598
  - # 4
    frequency:    16.6265637037
  - # 5
    frequency:    22.9066622625
  - # 6
    frequency:    23.7183425105
  - # 7
    frequency:    27.6623673086
  - # 8
    frequency:    27.6623673086
  - # 9
    frequency:    28.1673008432
  - # 10
    frequency:    28.1673008432
  - # 11
    frequency:    31.0436372845
  - # 12
    frequency:    31.0436372845
  - # 13
    frequency:    31.1432501457
  - # 14
    frequency:    31.1432501457
  - # 15
    frequency:    36.5659305152
  - # 16
    frequency:    36.5659305152
  - # 17
    frequency:    36.7427811184
  - # 18
    frequency:    36.7427811184
  - # 19
    frequency:    37.6319434446
  - # 20
    frequency:    37.6330906070
  - # 21
    frequency:    37.8399194855
  - # 22
    frequency:    37.8410066631
  - # 23
    frequency:    41.1274842789
  - # 24
    frequency:    41.1396070925

- q-position: [    0.0312500,    0.0312500,    0.0104167 ]
  distance_from_gamma:  0.012908496
  weight: 24   
  band:
  - # 1
    frequency:     1.4845952130
  - # 2
    frequency:     1.6073530578
  - # 3
    frequency:     2.4119679660
  - # 4
    frequency:    23.6009956740
  - # 5
    frequency:    23.6009956740
  - # 6
    frequency:    23.6115172261
  - # 7
    frequency:    23.6455307183
  - # 8
    frequency:    23.6455307183
  - # 9
    frequency:    23.7447770221
  - # 10
    frequency:    34.0427609812
  - # 11
    frequency:    34.0948635163
  - # 12
    frequency:    34.0948635163
  - # 13
    frequency:    34.1134719058
  - # 14
    frequency:    34.1211432851
  - # 15
    frequency:    34.1211432851
  - # 16
    frequency:    36.7374293271
  - # 17
    frequency:    36.7374293271
  - # 18
    frequency:    37.0858079239
  - # 19
    frequency:    37.4481582281
  - # 20
    frequency:    37.7772259976
  - # 21
    frequency:    37.7772259976
  - # 22
    frequency:    40.6250364117
  - # 23
    frequency:    40.6309090744
  - # 24
    frequency:    40.6531917245

- q-position: [    0.0520833,    0.0312500,    0.0104167 ]
  distance_from_gamma:  0.017519950
  weight: 48   
  band:
  - # 1
    frequency:     2.0482871336
  - # 2
    frequency:     2.1946118338
  - # 3
    frequency:     3.2394732722
  - # 4
    frequency:    23.5427359626
  - # 5
    frequency:    23.5873305972
  - # 6
    frequency:    23.6186660395
  - # 7
    frequency:    23.6377066586
  - # 8
    frequency:    23.7117599359
  - # 9
    frequency:    23.8399601266
  - # 10
    frequency:    33.9947944251
  - # 11
    frequency:    34.0567922272
  - # 12
    frequency:    34.1043083599
  - # 13
    frequency:    34.1114200418
  - # 14
    frequency:    34.1265119446
  - # 15
    frequency:    34.1582490822
  - # 16
    frequency:    36.3577349465
  - # 17
    frequency:    36.7344608876
  - # 18
    frequency:    37.0583021455
  - # 19
    frequency:    37.4460470218
  - # 20
    frequency:    37.7557055209
  - # 21
    frequency:    38.0888604559
  - # 22
    frequency:    40.6022585763
  - # 23
    frequency:    40.6106326844
  - # 24
    frequency:    40.6587762503

- q-position: [    0.0729167,    0.0312500,    0.0104167 ]
  distance_from_gamma:  0.022747037
  weight: 48   
  band: