       N       E                     dE             d eps       ncg     rms          rms(c)
DAV:   1     0.514559623102E+03    0.51456E+03   -0.11443E+05  7680   0.107E+03
DAV:   2    -0.563151684447E+03   -0.10777E+04   -0.10290E+04 10144   0.234E+02
DAV:   3    -0.603445943816E+03   -0.40294E+02   -0.40068E+02 10112   0.423E+01
DAV:   4    -0.603848099753E+03   -0.40216E+00   -0.40129E+00 10048   0.471E+00
DAV:   5    -0.603856709603E+03   -0.86098E-02   -0.86062E-02  9568   0.627E-01    0.283E+01
DAV:   6    -0.586633231889E+03    0.17223E+02   -0.11270E+01  8992   0.686E+00    0.154E+01
DAV:   7    -0.580825321824E+03    0.58079E+01   -0.12696E+01  9408   0.750E+00    0.199E+00
DAV:   8    -0.580890763638E+03   -0.65442E-01   -0.28012E-01  9536   0.107E+00    0.224E-01
DAV:   9    -0.580892836664E+03   -0.20730E-02   -0.35809E-03  9952   0.146E-01    0.821E-02
DAV:  10    -0.580893271294E+03   -0.43463E-03   -0.36860E-04  9120   0.518E-02    0.808E-03
DAV:  11    -0.580893277275E+03   -0.59806E-05   -0.10409E-05  9920   0.775E-03    0.197E-03
DAV:  12    -0.580893277095E+03    0.17979E-06   -0.29465E-07  9856   0.139E-03    0.232E-04
DAV:  13    -0.580893277140E+03   -0.45498E-07   -0.48988E-09  7392   0.184E-04    0.376E-05
DAV:  14    -0.580893277166E+03   -0.25675E-07   -0.61512E-10  6304   0.644E-05    0.212E-05
DAV:  15    -0.580893277166E+03   -0.29104E-09   -0.11342E-10  5792   0.254E-05
   1 F= -.58089328E+03 E0= -.58089328E+03  d E =-.165972E-11
 Linear response reoptimize wavefunctions
DAV:   1    -0.580893277165E+03    0.11187E-08   -0.14723E-11  5760   0.112E-05
DAV:   2    -0.580893277165E+03   -0.22101E-09   -0.39190E-13  5760   0.562E-06
DAV:   3    -0.580893277165E+03    0.33015E-09    0.54295E-12  5696   0.279E-06
 Linear response DOF=           1
 Linear response progress:
  Degree of freedom:   1/  1
       N       E                     dE             d eps       ncg     rms          rms(c)
RMM:   1    -0.149172992007E+00   -0.14917E+00    0.44482E-03 56409   0.746E-01
RMM:   2    -0.125958816036E+00    0.23214E-01   -0.71834E-03 33687   0.189E-01    0.193E-01
RMM:   3    -0.125736358752E+00    0.22246E-03   -0.10780E-03 35320   0.548E-02    0.970E-02
RMM:   4    -0.126045607670E+00   -0.30925E-03   -0.30351E-04 35453   0.302E-02    0.287E-02
RMM:   5    -0.126145226495E+00   -0.99619E-04   -0.19438E-05 36014   0.830E-03    0.684E-03
RMM:   6    -0.126130005000E+00    0.15221E-04   -0.91960E-07 36408   0.200E-03    0.143E-03
RMM:   7    -0.126121296211E+00    0.87088E-05   -0.61120E-08 36756   0.596E-04    0.401E-04
RMM:   8    -0.126120774053E+00    0.52216E-06   -0.41280E-08 37375   0.223E-04    0.851E-05
RMM:   9    -0.126120525694E+00    0.24836E-06   -0.27537E-08 38149   0.964E-05    0.368E-05
RMM:  10    -0.126120575229E+00   -0.49536E-07   -0.68258E-09 39098   0.855E-05    0.103E-05
RMM:  11    -0.126120577826E+00   -0.25964E-08    0.97690E-09 39821   0.798E-05    0.429E-06
 Linear response finished
