 vasp.5.4.4.18Apr17-6-g9f103f2a35 (build Mar 12 2022 03:36:41) complex          
  
 executed on IFC19.0.3.199_CrayMP date 2022.12.02  01:26:26
 running on   32 total cores
 distrk:  each k-point on   32 cores,    1 groups
 distr:  one band on NCORES_PER_BAND=   1 cores,   32 groups


--------------------------------------------------------------------------------------------------------


 INCAR:
 POTCAR:   PAW_PBE C 08Apr2002                    

 ----------------------------------------------------------------------------- 
|                                                                             |
|           W    W    AA    RRRRR   N    N  II  N    N   GGGG   !!!           |
|           W    W   A  A   R    R  NN   N  II  NN   N  G    G  !!!           |
|           W    W  A    A  R    R  N N  N  II  N N  N  G       !!!           |
|           W WW W  AAAAAA  RRRRR   N  N N  II  N  N N  G  GGG   !            |
|           WW  WW  A    A  R   R   N   NN  II  N   NN  G    G                |
|           W    W  A    A  R    R  N    N  II  N    N   GGGG   !!!           |
|                                                                             |
|      For optimal performance we recommend to set                            |
|        NCORE= 4 - approx SQRT( number of cores)                             |
|      NCORE specifies how many cores store one orbital (NPAR=cpu/NCORE).     |
|      This setting can  greatly improve the performance of VASP for DFT.     |
|      The default,   NCORE=1            might be grossly inefficient         |
|      on modern multi-core architectures or massively parallel machines.     |
|      Do your own testing !!!!                                               |
|      Unfortunately you need to use the default for GW and RPA calculations. |
|      (for HF NCORE is supported but not extensively tested yet)             |
|                                                                             |
 ----------------------------------------------------------------------------- 

 POTCAR:   PAW_PBE C 08Apr2002                    
   VRHFIN =C: s2p2                                                              
   LEXCH  = PE                                                                  
   EATOM  =   147.1560 eV,   10.8157 Ry                                         
                                                                                
   TITEL  = PAW_PBE C 08Apr2002                                                 
   LULTRA =        F    use ultrasoft PP ?                                      
   IUNSCR =        0    unscreen: 0-lin 1-nonlin 2-no                           
   RPACOR =     .000    partial core radius                                     
   POMASS =   12.011; ZVAL   =    4.000    mass and valenz                      
   RCORE  =    1.500    outmost cutoff radius                                   
   RWIGS  =    1.630; RWIGS  =     .863    wigner-seitz radius (au A)           
   ENMAX  =  400.000; ENMIN  =  300.000 eV                                      
   ICORE  =        2    local potential                                         
   LCOR   =        T    correct aug charges                                     
   LPAW   =        T    paw PP                                                  
   EAUG   =  644.873                                                            
   DEXC   =     .000                                                            
   RMAX   =    2.266    core radius for proj-oper                               
   RAUG   =    1.300    factor for augmentation sphere                          
   RDEP   =    1.501    radius for radial grids                                 
   RDEPT  =    1.300    core radius for aug-charge                              
   QCUT   =   -5.516; QGAM   =   11.032    optimization parameters              
                                                                                
   Description                                                                  
     l     E      TYP  RCUT    TYP  RCUT                                        
     0   .000     23  1.200                                                     
     0   .000     23  1.200                                                     
     1   .000     23  1.500                                                     
     1  2.500     23  1.500                                                     
     2   .000      7  1.500                                                     
  local pseudopotential read in
  atomic valenz-charges read in
  non local Contribution for L=           0  read in
    real space projection operators read in
  non local Contribution for L=           0  read in
    real space projection operators read in
  non local Contribution for L=           1  read in
    real space projection operators read in
  non local Contribution for L=           1  read in
    real space projection operators read in
    PAW grid and wavefunctions read in
 
   number of l-projection  operators is LMAX  =           4
   number of lm-projection operators is LMMAX =           8
 

 ----------------------------------------------------------------------------- 
|                                                                             |
|  ADVICE TO THIS USER RUNNING 'VASP/VAMP'   (HEAR YOUR MASTER'S VOICE ...):  |
|                                                                             |
|      You have a (more or less) 'large supercell' and for larger cells       |
|      it might be more efficient to use real space projection operators      |
|      So try LREAL= Auto  in the INCAR   file.                               |
|      Mind: If you want to do a very accurate calculations keep the          |
|      reciprocal projection scheme          (i.e. LREAL=.FALSE.)             |
|                                                                             |
 ----------------------------------------------------------------------------- 

 PAW_PBE C 08Apr2002                    :
 energy of atom  1       EATOM= -147.1560
 kinetic energy error for atom=    0.0288 (will be added to EATOM!!)
 
 
 POSCAR: generated by phonopy                    
  positions in direct lattice
  No initial velocities read in
 exchange correlation table for  LEXCH =        8
   RHO(1)=    0.500       N(1)  =     2000
   RHO(2)=  100.500       N(2)  =     4000
 


--------------------------------------------------------------------------------------------------------


 ion  position               nearest neighbor table
   1  0.125  0.375  0.125-  11 1.52  25 1.52  43 1.52  57 1.52
   2  0.625  0.375  0.125-  12 1.52  26 1.52  44 1.52  58 1.52
   3  0.125  0.875  0.125-   9 1.52  27 1.52  41 1.52  59 1.52
   4  0.625  0.875  0.125-  10 1.52  28 1.52  42 1.52  60 1.52
   5  0.125  0.375  0.625-  15 1.52  29 1.52  47 1.52  61 1.52
   6  0.625  0.375  0.625-  16 1.52  30 1.52  48 1.52  62 1.52
   7  0.125  0.875  0.625-  13 1.52  31 1.52  45 1.52  63 1.52
   8  0.625  0.875  0.625-  14 1.52  32 1.52  46 1.52  64 1.52
   9  0.000  0.000  0.250-   3 1.52  17 1.52  36 1.52  50 1.52
  10  0.500  0.000  0.250-   4 1.52  18 1.52  35 1.52  49 1.52
  11  0.000  0.500  0.250-   1 1.52  19 1.52  34 1.52  52 1.52
  12  0.500  0.500  0.250-   2 1.52  20 1.52  33 1.52  51 1.52
  13  0.000  0.000  0.750-   7 1.52  21 1.52  40 1.52  54 1.52
  14  0.500  0.000  0.750-   8 1.52  22 1.52  39 1.52  53 1.52
  15  0.000  0.500  0.750-   5 1.52  23 1.52  38 1.52  56 1.52
  16  0.500  0.500  0.750-   6 1.52  24 1.52  37 1.52  55 1.52
  17  0.125  0.125  0.375-   9 1.52  29 1.52  45 1.52  57 1.52
  18  0.625  0.125  0.375-  10 1.52  30 1.52  46 1.52  58 1.52
  19  0.125  0.625  0.375-  11 1.52  31 1.52  47 1.52  59 1.52
  20  0.625  0.625  0.375-  12 1.52  32 1.52  48 1.52  60 1.52
  21  0.125  0.125  0.875-  13 1.52  25 1.52  41 1.52  61 1.52
  22  0.625  0.125  0.875-  14 1.52  26 1.52  42 1.52  62 1.52
  23  0.125  0.625  0.875-  15 1.52  27 1.52  43 1.52  63 1.52
  24  0.625  0.625  0.875-  16 1.52  28 1.52  44 1.52  64 1.52
  25  0.000  0.250  0.000-   1 1.52  21 1.52  38 1.52  50 1.52
  26  0.500  0.250  0.000-   2 1.52  22 1.52  37 1.52  49 1.52
  27  0.000  0.750  0.000-   3 1.52  23 1.52  40 1.52  52 1.52
  28  0.500  0.750  0.000-   4 1.52  24 1.52  39 1.52  51 1.52
  29  0.000  0.250  0.500-   5 1.52  17 1.52  34 1.52  54 1.52
  30  0.500  0.250  0.500-   6 1.52  18 1.52  33 1.52  53 1.52
  31  0.000  0.750  0.500-   7 1.52  19 1.52  36 1.52  56 1.52
  32  0.500  0.750  0.500-   8 1.52  20 1.52  35 1.52  55 1.52
  33  0.375  0.375  0.375-  12 1.52  30 1.52  47 1.52  57 1.52
  34  0.875  0.375  0.375-  11 1.52  29 1.52  48 1.52  58 1.52
  35  0.375  0.875  0.375-  10 1.52  32 1.52  45 1.52  59 1.52
  36  0.875  0.875  0.375-   9 1.52  31 1.52  46 1.52  60 1.52
  37  0.375  0.375  0.875-  16 1.52  26 1.52  43 1.52  61 1.52
  38  0.875  0.375  0.875-  15 1.52  25 1.52  44 1.52  62 1.52
  39  0.375  0.875  0.875-  14 1.52  28 1.52  41 1.52  63 1.52
  40  0.875  0.875  0.875-  13 1.52  27 1.52  42 1.52  64 1.52
  41  0.250  0.000  0.000-   3 1.52  21 1.52  39 1.52  49 1.52
  42  0.750  0.000  0.000-   4 1.52  22 1.52  40 1.52  50 1.52
  43  0.250  0.500  0.000-   1 1.52  23 1.52  37 1.52  51 1.52
  44  0.750  0.500  0.000-   2 1.52  24 1.52  38 1.52  52 1.52
  45  0.250  0.000  0.500-   7 1.52  17 1.52  35 1.52  53 1.52
  46  0.750  0.000  0.500-   8 1.52  18 1.52  36 1.52  54 1.52
  47  0.250  0.500  0.500-   5 1.52  19 1.52  33 1.52  55 1.52
  48  0.750  0.500  0.500-   6 1.52  20 1.52  34 1.52  56 1.52
  49  0.375  0.125  0.125-  10 1.52  26 1.52  41 1.52  57 1.52
  50  0.875  0.125  0.125-   9 1.52  25 1.52  42 1.52  58 1.52
  51  0.375  0.625  0.125-  12 1.52  28 1.52  43 1.52  59 1.52
  52  0.875  0.625  0.125-  11 1.52  27 1.52  44 1.52  60 1.52
  53  0.375  0.125  0.625-  14 1.52  30 1.52  45 1.52  61 1.52
  54  0.875  0.125  0.625-  13 1.52  29 1.52  46 1.52  62 1.52
  55  0.375  0.625  0.625-  16 1.52  32 1.52  47 1.52  63 1.52
  56  0.875  0.625  0.625-  15 1.52  31 1.52  48 1.52  64 1.52
  57  0.250  0.250  0.250-   1 1.52  17 1.52  33 1.52  49 1.52
  58  0.750  0.250  0.250-   2 1.52  18 1.52  34 1.52  50 1.52
  59  0.250  0.750  0.250-   3 1.52  19 1.52  35 1.52  51 1.52
  60  0.750  0.750  0.250-   4 1.52  20 1.52  36 1.52  52 1.52
  61  0.250  0.250  0.750-   5 1.52  21 1.52  37 1.52  53 1.52
  62  0.750  0.250  0.750-   6 1.52  22 1.52  38 1.52  54 1.52
  63  0.250  0.750  0.750-   7 1.52  23 1.52  39 1.52  55 1.52
  64  0.750  0.750  0.750-   8 1.52  24 1.52  40 1.52  56 1.52
 
  LATTYP: Found a simple cubic cell.
 ALAT       =     7.0349324906
  
  Lattice vectors:
  
 A1 = (   7.0349324906,   0.0000000000,   0.0000000000)
 A2 = (   0.0000000000,   7.0349324906,   0.0000000000)
 A3 = (   0.0000000000,   0.0000000000,   7.0349324906)


Analysis of symmetry for initial positions (statically):
=====================================================================
 Subroutine PRICEL returns following result:
 
  LATTYP: Found a face centered cubic cell.
 ALAT       =     3.5174662453
  
  Lattice vectors:
  
 A1 = (   1.7587331226,   1.7587331226,  -0.0000000000)
 A2 = (   1.7587331226,   0.0000000000,  -1.7587331226)
 A3 = (   0.0000000000,   1.7587331226,  -1.7587331226)
 
  32 primitive cells build up your supercell.
 

 Routine SETGRP: Setting up the symmetry group for a 
 simple cubic supercell.


 Subroutine GETGRP returns: Found 48 space group operations
 (whereof 24 operations were pure point group operations)
 out of a pool of 48 trial point group operations.


The static configuration has the point symmetry T_d .
 The point group associated with its full space group is O_h .


Analysis of symmetry for dynamics (positions and initial velocities):
=====================================================================
 Subroutine PRICEL returns following result:
 
  LATTYP: Found a face centered cubic cell.
 ALAT       =     3.5174662453
  
  Lattice vectors:
  
 A1 = (   1.7587331226,   1.7587331226,  -0.0000000000)
 A2 = (   1.7587331226,   0.0000000000,  -1.7587331226)
 A3 = (   0.0000000000,   1.7587331226,  -1.7587331226)
 
  32 primitive cells build up your supercell.
 

 Routine SETGRP: Setting up the symmetry group for a 
 simple cubic supercell.


 Subroutine GETGRP returns: Found 48 space group operations
 (whereof 24 operations were pure point group operations)
 out of a pool of 48 trial point group operations.


The dynamic configuration has the point symmetry T_d .
 The point group associated with its full space group is O_h .


 Subroutine INISYM returns: Found 48 space group operations
 (whereof 24 operations are pure point group operations),
 and found    32 'primitive' translations

 
 
 KPOINTS: kpt_density=3000                        

Automatic generation of k-mesh.
Space group operators:
 irot       det(A)        alpha          n_x          n_y          n_z        tau_x        tau_y        tau_z
    1     1.000000     0.000001     1.000000     0.000000     0.000000     0.000000     0.000000     0.000000
    2     1.000000   120.000000    -0.577350    -0.577350    -0.577350     0.000000     0.000000     0.000000
    3     1.000000   120.000000     0.577350     0.577350     0.577350     0.000000     0.000000     0.000000
    4    -1.000000    90.000000     0.000000     0.000000    -1.000000     0.000000     0.000000     0.000000
    5    -1.000000   180.000000     0.000000     0.707107     0.707107     0.000000     0.000000     0.000000
    6    -1.000000    90.000000     0.000000     1.000000     0.000000     0.000000     0.000000     0.000000
    7     1.000000   180.000000     0.000000     0.000000     1.000000     0.000000     0.000000     0.000000
    8     1.000000   120.000000    -0.577350     0.577350     0.577350     0.000000     0.000000     0.000000
    9     1.000000   120.000000    -0.577350     0.577350    -0.577350     0.000000     0.000000     0.000000
   10    -1.000000    90.000000     0.000000     0.000000     1.000000     0.000000     0.000000     0.000000
   11    -1.000000    90.000000    -1.000000     0.000000     0.000000     0.000000     0.000000     0.000000
   12    -1.000000   180.000000     0.707107     0.000000     0.707107     0.000000     0.000000     0.000000
   13     1.000000   120.000000     0.577350    -0.577350     0.577350     0.000000     0.000000     0.000000
   14     1.000000   120.000000    -0.577350    -0.577350     0.577350     0.000000     0.000000     0.000000
   15     1.000000   180.000000     1.000000     0.000000     0.000000     0.000000     0.000000     0.000000
   16    -1.000000    90.000000     0.000000    -1.000000     0.000000     0.000000     0.000000     0.000000
   17    -1.000000   180.000000     0.707107     0.707107     0.000000     0.000000     0.000000     0.000000
   18    -1.000000    90.000000     1.000000     0.000000     0.000000     0.000000     0.000000     0.000000
   19     1.000000   120.000000     0.577350    -0.577350    -0.577350     0.000000     0.000000     0.000000
   20     1.000000   180.000000     0.000000     1.000000     0.000000     0.000000     0.000000     0.000000
   21     1.000000   120.000000     0.577350     0.577350    -0.577350     0.000000     0.000000     0.000000
   22    -1.000000   180.000000     0.000000    -0.707107     0.707107     0.000000     0.000000     0.000000
   23    -1.000000   180.000000     0.707107    -0.707107     0.000000     0.000000     0.000000     0.000000
   24    -1.000000   180.000000     0.707107     0.000000    -0.707107     0.000000     0.000000     0.000000
   25    -1.000000     0.000001     1.000000     0.000000     0.000000     0.375000     0.375000    -0.375000
   26    -1.000000   120.000000    -0.577350    -0.577350    -0.577350     0.375000     0.375000    -0.375000
   27    -1.000000   120.000000     0.577350     0.577350     0.577350     0.375000     0.375000    -0.375000
   28     1.000000    90.000000     0.000000     0.000000    -1.000000     0.375000     0.375000    -0.375000
   29     1.000000   180.000000     0.000000     0.707107     0.707107     0.375000     0.375000    -0.375000
   30     1.000000    90.000000     0.000000     1.000000     0.000000     0.375000     0.375000    -0.375000
   31    -1.000000   180.000000     0.000000     0.000000     1.000000     0.375000     0.375000    -0.375000
   32    -1.000000   120.000000    -0.577350     0.577350     0.577350     0.375000     0.375000    -0.375000
   33    -1.000000   120.000000    -0.577350     0.577350    -0.577350     0.375000     0.375000    -0.375000
   34     1.000000    90.000000     0.000000     0.000000     1.000000     0.375000     0.375000    -0.375000
   35     1.000000    90.000000    -1.000000     0.000000     0.000000     0.375000     0.375000    -0.375000
   36     1.000000   180.000000     0.707107     0.000000     0.707107     0.375000     0.375000    -0.375000
   37    -1.000000   120.000000     0.577350    -0.577350     0.577350     0.375000     0.375000    -0.375000
   38    -1.000000   120.000000    -0.577350    -0.577350     0.577350     0.375000     0.375000    -0.375000
   39    -1.000000   180.000000     1.000000     0.000000     0.000000     0.375000     0.375000    -0.375000
   40     1.000000    90.000000     0.000000    -1.000000     0.000000     0.375000     0.375000    -0.375000
   41     1.000000   180.000000     0.707107     0.707107     0.000000     0.375000     0.375000    -0.375000
   42     1.000000    90.000000     1.000000     0.000000     0.000000     0.375000     0.375000    -0.375000
   43    -1.000000   120.000000     0.577350    -0.577350    -0.577350     0.375000     0.375000    -0.375000
   44    -1.000000   180.000000     0.000000     1.000000     0.000000     0.375000     0.375000    -0.375000
   45    -1.000000   120.000000     0.577350     0.577350    -0.577350     0.375000     0.375000    -0.375000
   46     1.000000   180.000000     0.000000    -0.707107     0.707107     0.375000     0.375000    -0.375000
   47     1.000000   180.000000     0.707107    -0.707107     0.000000     0.375000     0.375000    -0.375000
   48     1.000000   180.000000     0.707107     0.000000    -0.707107     0.375000     0.375000    -0.375000
 
 Subroutine IBZKPT returns following result:
 ===========================================
 
 Found     20 irreducible k-points:
 
 Following reciprocal coordinates:
            Coordinates               Weight
  0.000000  0.000000  0.000000      1.000000
  0.166667  0.000000  0.000000      6.000000
  0.333333  0.000000  0.000000      6.000000
  0.500000  0.000000  0.000000      3.000000
  0.166667  0.166667  0.000000     12.000000
  0.333333  0.166667  0.000000     24.000000
  0.500000  0.166667  0.000000     12.000000
  0.333333  0.333333  0.000000     12.000000
  0.500000  0.333333  0.000000     12.000000
  0.500000  0.500000  0.000000      3.000000
  0.166667  0.166667  0.166667      8.000000
  0.333333  0.166667  0.166667     24.000000
  0.500000  0.166667  0.166667     12.000000
  0.333333  0.333333  0.166667     24.000000
  0.500000  0.333333  0.166667     24.000000
  0.500000  0.500000  0.166667      6.000000
  0.333333  0.333333  0.333333      8.000000
  0.500000  0.333333  0.333333     12.000000
  0.500000  0.500000  0.333333      6.000000
  0.500000  0.500000  0.500000      1.000000
 
 Following cartesian coordinates:
            Coordinates               Weight
  0.000000  0.000000  0.000000      1.000000
  0.023691  0.000000  0.000000      6.000000
  0.047383  0.000000  0.000000      6.000000
  0.071074  0.000000  0.000000      3.000000
  0.023691  0.023691  0.000000     12.000000
  0.047383  0.023691  0.000000     24.000000
  0.071074  0.023691  0.000000     12.000000
  0.047383  0.047383  0.000000     12.000000
  0.071074  0.047383  0.000000     12.000000
  0.071074  0.071074  0.000000      3.000000
  0.023691  0.023691  0.023691      8.000000
  0.047383  0.023691  0.023691     24.000000
  0.071074  0.023691  0.023691     12.000000
  0.047383  0.047383  0.023691     24.000000
  0.071074  0.047383  0.023691     24.000000
  0.071074  0.071074  0.023691      6.000000
  0.047383  0.047383  0.047383      8.000000
  0.071074  0.047383  0.047383     12.000000
  0.071074  0.071074  0.047383      6.000000
  0.071074  0.071074  0.071074      1.000000
 
 
 Subroutine IBZKPT_HF returns following result:
 ==============================================
 
 Found    216 k-points in 1st BZ
 the following    216 k-points will be used (e.g. in the exchange kernel)
 Following reciprocal coordinates:   # in IRBZ
  0.000000  0.000000  0.000000    0.00462963   1 t-inv F
  0.166667  0.000000  0.000000    0.00462963   2 t-inv F
  0.333333  0.000000  0.000000    0.00462963   3 t-inv F
  0.500000  0.000000  0.000000    0.00462963   4 t-inv F
  0.166667  0.166667  0.000000    0.00462963   5 t-inv F
  0.333333  0.166667  0.000000    0.00462963   6 t-inv F
  0.500000  0.166667  0.000000    0.00462963   7 t-inv F
  0.333333  0.333333  0.000000    0.00462963   8 t-inv F
  0.500000  0.333333  0.000000    0.00462963   9 t-inv F
  0.500000  0.500000  0.000000    0.00462963  10 t-inv F
  0.166667  0.166667  0.166667    0.00462963  11 t-inv F
  0.333333  0.166667  0.166667    0.00462963  12 t-inv F
  0.500000  0.166667  0.166667    0.00462963  13 t-inv F
  0.333333  0.333333  0.166667    0.00462963  14 t-inv F
  0.500000  0.333333  0.166667    0.00462963  15 t-inv F
  0.500000  0.500000  0.166667    0.00462963  16 t-inv F
  0.333333  0.333333  0.333333    0.00462963  17 t-inv F
  0.500000  0.333333  0.333333    0.00462963  18 t-inv F
  0.500000  0.500000  0.333333    0.00462963  19 t-inv F
  0.500000  0.500000  0.500000    0.00462963  20 t-inv F
  0.000000  0.166667  0.000000    0.00462963   2 t-inv F
  0.000000  0.000000  0.166667    0.00462963   2 t-inv F
  0.000000 -0.166667  0.000000    0.00462963   2 t-inv F
  0.000000  0.000000 -0.166667    0.00462963   2 t-inv F
 -0.166667  0.000000  0.000000    0.00462963   2 t-inv F
  0.000000  0.333333  0.000000    0.00462963   3 t-inv F
  0.000000  0.000000  0.333333    0.00462963   3 t-inv F
  0.000000 -0.333333  0.000000    0.00462963   3 t-inv F
  0.000000  0.000000 -0.333333    0.00462963   3 t-inv F
 -0.333333  0.000000  0.000000    0.00462963   3 t-inv F
  0.000000  0.500000  0.000000    0.00462963   4 t-inv F
  0.000000  0.000000  0.500000    0.00462963   4 t-inv F
  0.000000  0.166667  0.166667    0.00462963   5 t-inv F
  0.166667  0.000000  0.166667    0.00462963   5 t-inv F
  0.166667 -0.166667  0.000000    0.00462963   5 t-inv F
  0.166667  0.000000 -0.166667    0.00462963   5 t-inv F
  0.000000 -0.166667 -0.166667    0.00462963   5 t-inv F
 -0.166667 -0.166667  0.000000    0.00462963   5 t-inv F
  0.000000 -0.166667  0.166667    0.00462963   5 t-inv F
 -0.166667  0.000000  0.166667    0.00462963   5 t-inv F
 -0.166667  0.166667  0.000000    0.00462963   5 t-inv F
 -0.166667  0.000000 -0.166667    0.00462963   5 t-inv F
  0.000000  0.166667 -0.166667    0.00462963   5 t-inv F
  0.000000  0.333333  0.166667    0.00462963   6 t-inv F
  0.166667  0.000000  0.333333    0.00462963   6 t-inv F
  0.166667 -0.333333  0.000000    0.00462963   6 t-inv F
  0.333333  0.000000 -0.166667    0.00462963   6 t-inv F
  0.000000 -0.166667 -0.333333    0.00462963   6 t-inv F
 -0.333333 -0.166667  0.000000    0.00462963   6 t-inv F
  0.000000 -0.333333  0.166667    0.00462963   6 t-inv F
 -0.166667  0.000000  0.333333    0.00462963   6 t-inv F
 -0.166667  0.333333  0.000000    0.00462963   6 t-inv F
 -0.333333  0.000000 -0.166667    0.00462963   6 t-inv F
  0.000000  0.166667 -0.333333    0.00462963   6 t-inv F
  0.000000 -0.333333 -0.166667    0.00462963   6 t-inv F
  0.166667  0.000000 -0.333333    0.00462963   6 t-inv F
  0.333333 -0.166667  0.000000    0.00462963   6 t-inv F
  0.000000 -0.166667  0.333333    0.00462963   6 t-inv F
 -0.166667 -0.333333  0.000000    0.00462963   6 t-inv F
 -0.333333  0.000000  0.166667    0.00462963   6 t-inv F
 -0.166667  0.000000 -0.333333    0.00462963   6 t-inv F
 -0.333333  0.166667  0.000000    0.00462963   6 t-inv F
  0.000000  0.333333 -0.166667    0.00462963   6 t-inv F
  0.333333  0.000000  0.166667    0.00462963   6 t-inv F
  0.166667  0.333333  0.000000    0.00462963   6 t-inv F
  0.000000  0.166667  0.333333    0.00462963   6 t-inv F
  0.000000  0.500000  0.166667    0.00462963   7 t-inv F
  0.166667  0.000000  0.500000    0.00462963   7 t-inv F
  0.166667 -0.500000  0.000000    0.00462963   7 t-inv F
  0.500000  0.000000 -0.166667    0.00462963   7 t-inv F
  0.000000 -0.166667 -0.500000    0.00462963   7 t-inv F
 -0.500000 -0.166667  0.000000    0.00462963   7 t-inv F
 -0.166667  0.000000  0.500000    0.00462963   7 t-inv F
 -0.166667  0.500000  0.000000    0.00462963   7 t-inv F
  0.000000  0.166667 -0.500000    0.00462963   7 t-inv F
  0.000000 -0.500000 -0.166667    0.00462963   7 t-inv F
 -0.500000  0.000000  0.166667    0.00462963   7 t-inv F
  0.000000  0.333333  0.333333    0.00462963   8 t-inv F
  0.333333  0.000000  0.333333    0.00462963   8 t-inv F
  0.333333 -0.333333  0.000000    0.00462963   8 t-inv F
  0.333333  0.000000 -0.333333    0.00462963   8 t-inv F
  0.000000 -0.333333 -0.333333    0.00462963   8 t-inv F
 -0.333333 -0.333333  0.000000    0.00462963   8 t-inv F
  0.000000 -0.333333  0.333333    0.00462963   8 t-inv F
 -0.333333  0.000000  0.333333    0.00462963   8 t-inv F
 -0.333333  0.333333  0.000000    0.00462963   8 t-inv F
 -0.333333  0.000000 -0.333333    0.00462963   8 t-inv F
  0.000000  0.333333 -0.333333    0.00462963   8 t-inv F
  0.000000  0.500000  0.333333    0.00462963   9 t-inv F
  0.333333  0.000000  0.500000    0.00462963   9 t-inv F
  0.333333 -0.500000  0.000000    0.00462963   9 t-inv F
  0.500000  0.000000 -0.333333    0.00462963   9 t-inv F
  0.000000 -0.333333 -0.500000    0.00462963   9 t-inv F
 -0.500000 -0.333333  0.000000    0.00462963   9 t-inv F
 -0.333333  0.000000  0.500000    0.00462963   9 t-inv F
 -0.333333  0.500000  0.000000    0.00462963   9 t-inv F
  0.000000  0.333333 -0.500000    0.00462963   9 t-inv F
  0.000000 -0.500000 -0.333333    0.00462963   9 t-inv F
 -0.500000  0.000000  0.333333    0.00462963   9 t-inv F
  0.000000  0.500000  0.500000    0.00462963  10 t-inv F
  0.500000  0.000000  0.500000    0.00462963  10 t-inv F
  0.166667 -0.166667 -0.166667    0.00462963  11 t-inv F
 -0.166667 -0.166667  0.166667    0.00462963  11 t-inv F
 -0.166667  0.166667 -0.166667    0.00462963  11 t-inv F
 -0.166667 -0.166667 -0.166667    0.00462963  11 t-inv F
 -0.166667  0.166667  0.166667    0.00462963  11 t-inv F
  0.166667  0.166667 -0.166667    0.00462963  11 t-inv F
  0.166667 -0.166667  0.166667    0.00462963  11 t-inv F
  0.166667  0.333333  0.166667    0.00462963  12 t-inv F
  0.166667  0.166667  0.333333    0.00462963  12 t-inv F
  0.166667 -0.333333 -0.166667    0.00462963  12 t-inv F
  0.333333 -0.166667 -0.166667    0.00462963  12 t-inv F
  0.166667 -0.166667 -0.333333    0.00462963  12 t-inv F
 -0.333333 -0.166667  0.166667    0.00462963  12 t-inv F
 -0.166667 -0.333333  0.166667    0.00462963  12 t-inv F
 -0.166667 -0.166667  0.333333    0.00462963  12 t-inv F
 -0.166667  0.333333 -0.166667    0.00462963  12 t-inv F
 -0.333333  0.166667 -0.166667    0.00462963  12 t-inv F
 -0.166667  0.166667 -0.333333    0.00462963  12 t-inv F
 -0.333333 -0.166667 -0.166667    0.00462963  12 t-inv F
 -0.166667 -0.333333 -0.166667    0.00462963  12 t-inv F
 -0.166667 -0.166667 -0.333333    0.00462963  12 t-inv F
 -0.166667  0.333333  0.166667    0.00462963  12 t-inv F
 -0.333333  0.166667  0.166667    0.00462963  12 t-inv F
 -0.166667  0.166667  0.333333    0.00462963  12 t-inv F
  0.333333  0.166667 -0.166667    0.00462963  12 t-inv F
  0.166667  0.333333 -0.166667    0.00462963  12 t-inv F
  0.166667  0.166667 -0.333333    0.00462963  12 t-inv F
  0.166667 -0.333333  0.166667    0.00462963  12 t-inv F
  0.333333 -0.166667  0.166667    0.00462963  12 t-inv F
  0.166667 -0.166667  0.333333    0.00462963  12 t-inv F
  0.166667  0.500000  0.166667    0.00462963  13 t-inv F
  0.166667  0.166667  0.500000    0.00462963  13 t-inv F
  0.166667 -0.500000 -0.166667    0.00462963  13 t-inv F
  0.500000 -0.166667 -0.166667    0.00462963  13 t-inv F
  0.166667 -0.166667 -0.500000    0.00462963  13 t-inv F
 -0.500000 -0.166667  0.166667    0.00462963  13 t-inv F
 -0.166667 -0.500000  0.166667    0.00462963  13 t-inv F
 -0.166667 -0.166667  0.500000    0.00462963  13 t-inv F
 -0.166667  0.500000 -0.166667    0.00462963  13 t-inv F
 -0.500000  0.166667 -0.166667    0.00462963  13 t-inv F
 -0.166667  0.166667 -0.500000    0.00462963  13 t-inv F
  0.166667  0.333333  0.333333    0.00462963  14 t-inv F
  0.333333  0.166667  0.333333    0.00462963  14 t-inv F
  0.333333 -0.333333 -0.166667    0.00462963  14 t-inv F
  0.333333 -0.166667 -0.333333    0.00462963  14 t-inv F
  0.166667 -0.333333 -0.333333    0.00462963  14 t-inv F
 -0.333333 -0.333333  0.166667    0.00462963  14 t-inv F
 -0.166667 -0.333333  0.333333    0.00462963  14 t-inv F
 -0.333333 -0.166667  0.333333    0.00462963  14 t-inv F
 -0.333333  0.333333 -0.166667    0.00462963  14 t-inv F
 -0.333333  0.166667 -0.333333    0.00462963  14 t-inv F
 -0.166667  0.333333 -0.333333    0.00462963  14 t-inv F
 -0.333333 -0.333333 -0.166667    0.00462963  14 t-inv F
 -0.166667 -0.333333 -0.333333    0.00462963  14 t-inv F
 -0.333333 -0.166667 -0.333333    0.00462963  14 t-inv F
 -0.333333  0.333333  0.166667    0.00462963  14 t-inv F
 -0.333333  0.166667  0.333333    0.00462963  14 t-inv F
 -0.166667  0.333333  0.333333    0.00462963  14 t-inv F
  0.333333  0.333333 -0.166667    0.00462963  14 t-inv F
  0.166667  0.333333 -0.333333    0.00462963  14 t-inv F
  0.333333  0.166667 -0.333333    0.00462963  14 t-inv F
  0.333333 -0.333333  0.166667    0.00462963  14 t-inv F
  0.333333 -0.166667  0.333333    0.00462963  14 t-inv F
  0.166667 -0.333333  0.333333    0.00462963  14 t-inv F
  0.166667  0.500000  0.333333    0.00462963  15 t-inv F
  0.333333  0.166667  0.500000    0.00462963  15 t-inv F
  0.333333 -0.500000 -0.166667    0.00462963  15 t-inv F
  0.500000 -0.166667 -0.333333    0.00462963  15 t-inv F
  0.166667 -0.333333 -0.500000    0.00462963  15 t-inv F
 -0.500000 -0.333333  0.166667    0.00462963  15 t-inv F
 -0.166667 -0.500000  0.333333    0.00462963  15 t-inv F
 -0.333333 -0.166667  0.500000    0.00462963  15 t-inv F
 -0.333333  0.500000 -0.166667    0.00462963  15 t-inv F
 -0.500000  0.166667 -0.333333    0.00462963  15 t-inv F
 -0.166667  0.333333 -0.500000    0.00462963  15 t-inv F
  0.166667 -0.500000 -0.333333    0.00462963  15 t-inv F
  0.333333 -0.166667 -0.500000    0.00462963  15 t-inv F
  0.500000 -0.333333 -0.166667    0.00462963  15 t-inv F
 -0.166667 -0.333333  0.500000    0.00462963  15 t-inv F
 -0.333333 -0.500000  0.166667    0.00462963  15 t-inv F
 -0.500000 -0.166667  0.333333    0.00462963  15 t-inv F
 -0.333333  0.166667 -0.500000    0.00462963  15 t-inv F
 -0.500000  0.333333 -0.166667    0.00462963  15 t-inv F
 -0.166667  0.500000 -0.333333    0.00462963  15 t-inv F
  0.500000  0.166667  0.333333    0.00462963  15 t-inv F
  0.333333  0.500000  0.166667    0.00462963  15 t-inv F
  0.166667  0.333333  0.500000    0.00462963  15 t-inv F
  0.166667  0.500000  0.500000    0.00462963  16 t-inv F
  0.500000  0.166667  0.500000    0.00462963  16 t-inv F
  0.500000 -0.500000 -0.166667    0.00462963  16 t-inv F
  0.500000 -0.166667 -0.500000    0.00462963  16 t-inv F
 -0.166667 -0.500000  0.500000    0.00462963  16 t-inv F
  0.333333 -0.333333 -0.333333    0.00462963  17 t-inv F
 -0.333333 -0.333333  0.333333    0.00462963  17 t-inv F
 -0.333333  0.333333 -0.333333    0.00462963  17 t-inv F
 -0.333333 -0.333333 -0.333333    0.00462963  17 t-inv F
 -0.333333  0.333333  0.333333    0.00462963  17 t-inv F
  0.333333  0.333333 -0.333333    0.00462963  17 t-inv F
  0.333333 -0.333333  0.333333    0.00462963  17 t-inv F
  0.333333  0.500000  0.333333    0.00462963  18 t-inv F
  0.333333  0.333333  0.500000    0.00462963  18 t-inv F
  0.333333 -0.500000 -0.333333    0.00462963  18 t-inv F
  0.500000 -0.333333 -0.333333    0.00462963  18 t-inv F
  0.333333 -0.333333 -0.500000    0.00462963  18 t-inv F
 -0.500000 -0.333333  0.333333    0.00462963  18 t-inv F
 -0.333333 -0.500000  0.333333    0.00462963  18 t-inv F
 -0.333333 -0.333333  0.500000    0.00462963  18 t-inv F
 -0.333333  0.500000 -0.333333    0.00462963  18 t-inv F
 -0.500000  0.333333 -0.333333    0.00462963  18 t-inv F
 -0.333333  0.333333 -0.500000    0.00462963  18 t-inv F
  0.333333  0.500000  0.500000    0.00462963  19 t-inv F
  0.500000  0.333333  0.500000    0.00462963  19 t-inv F
  0.500000 -0.500000 -0.333333    0.00462963  19 t-inv F
  0.500000 -0.333333 -0.500000    0.00462963  19 t-inv F
 -0.333333 -0.500000  0.500000    0.00462963  19 t-inv F


--------------------------------------------------------------------------------------------------------




 Dimension of arrays:
   k-points           NKPTS =     20   k-points in BZ     NKDIM =     20   number of bands    NBANDS=    192
   number of dos      NEDOS =    301   number of ions     NIONS =     64
   non local maximal  LDIM  =      4   non local SUM 2l+1 LMDIM =      8
   total plane-waves  NPLWV = 110592
   max r-space proj   IRMAX =      1   max aug-charges    IRDMAX=  30184
   dimension x,y,z NGX =    48 NGY =   48 NGZ =   48
   dimension x,y,z NGXF=    96 NGYF=   96 NGZF=   96
   support grid    NGXF=   192 NGYF=  192 NGZF=  192
   ions per type =              64
   NGX,Y,Z   is equivalent  to a cutoff of  11.34, 11.34, 11.34 a.u.
   NGXF,Y,Z  is equivalent  to a cutoff of  22.69, 22.69, 22.69 a.u.

 SYSTEM =  unknown system                          
 POSCAR =  generated by phonopy                    

 Startparameter for this run:
   NWRITE =      2    write-flag & timer
   PREC   = accura    normal or accurate (medium, high low for compatibility)
   ISTART =      0    job   : 0-new  1-cont  2-samecut
   ICHARG =      2    charge: 1-file 2-atom 10-const
   ISPIN  =      1    spin polarized calculation?
   LNONCOLLINEAR =      F non collinear calculations
   LSORBIT =      F    spin-orbit coupling
   INIWAV =      1    electr: 0-lowe 1-rand  2-diag
   LASPH  =      F    aspherical Exc in radial PAW
   METAGGA=      F    non-selfconsistent MetaGGA calc.

 Electronic Relaxation 1
   ENCUT  =  400.0 eV  29.40 Ry    5.42 a.u.  11.47 11.47 11.47*2*pi/ulx,y,z
   ENINI  =  400.0     initial cutoff
   ENAUG  =  644.9 eV  augmentation charge cutoff
   NELM   =     60;   NELMIN=  2; NELMDL= -5     # of ELM steps 
   EDIFF  = 0.1E-07   stopping-criterion for ELM
   LREAL  =      F    real-space projection
   NLSPLINE    = F    spline interpolate recip. space projectors
   LCOMPAT=      F    compatible to vasp.4.4
   GGA_COMPAT  = T    GGA compatible to vasp.4.4-vasp.4.6
   LMAXPAW     = -100 max onsite density
   LMAXMIX     =    2 max onsite mixed and CHGCAR
   VOSKOWN=      0    Vosko Wilk Nusair interpolation
   ROPT   =    0.00000
 Ionic relaxation
   EDIFFG = 0.1E-06   stopping-criterion for IOM
   NSW    =      1    number of steps for IOM
   NBLOCK =      1;   KBLOCK =      1    inner block; outer block 
   IBRION =      8    ionic relax: 0-MD 1-quasi-New 2-CG
   NFREE  =      0    steps in history (QN), initial steepest desc. (CG)
   ISIF   =      2    stress and relaxation
   IWAVPR =     11    prediction:  0-non 1-charg 2-wave 3-comb
   ISYM   =      2    0-nonsym 1-usesym 2-fastsym
   LCORR  =      T    Harris-Foulkes like correction to forces

   POTIM  = 0.5000    time-step for ionic-motion
   TEIN   =    0.0    initial temperature
   TEBEG  =    0.0;   TEEND  =   0.0 temperature during run
   SMASS  =  -3.00    Nose mass-parameter (am)
   estimated Nose-frequenzy (Omega)   =  0.10E-29 period in steps =****** mass=  -0.113E-26a.u.
   SCALEE = 1.0000    scale energy and forces
   NPACO  =    256;   APACO  = 16.0  distance and # of slots for P.C.
   PSTRESS=    0.0 pullay stress

  Mass of Ions in am
   POMASS =  12.01
  Ionic Valenz
   ZVAL   =   4.00
  Atomic Wigner-Seitz radii
   RWIGS  =  -1.00
  virtual crystal weights 
   VCA    =   1.00
   NELECT =     256.0000    total number of electrons
   NUPDOWN=      -1.0000    fix difference up-down

 DOS related values:
   EMIN   =  10.00;   EMAX   =-10.00  energy-range for DOS
   EFERMI =   0.00
   ISMEAR =     0;   SIGMA  =   0.06  broadening in eV -4-tet -1-fermi 0-gaus

 Electronic relaxation 2 (details)
   IALGO  =     38    algorithm
   LDIAG  =      T    sub-space diagonalisation (order eigenvalues)
   LSUBROT=      F    optimize rotation matrix (better conditioning)
   TURBO    =      0    0=normal 1=particle mesh
   IRESTART =      0    0=no restart 2=restart with 2 vectors
   NREBOOT  =      0    no. of reboots
   NMIN     =      0    reboot dimension
   EREF     =   0.00    reference energy to select bands
   IMIX   =      4    mixing-type and parameters
     AMIX     =   0.40;   BMIX     =  1.00
     AMIX_MAG =   1.60;   BMIX_MAG =  1.00
     AMIN     =   0.10
     WC   =   100.;   INIMIX=   1;  MIXPRE=   1;  MAXMIX= -45

 Intra band minimization:
   WEIMIN = 0.0010     energy-eigenvalue tresh-hold
   EBREAK =  0.13E-10  absolut break condition
   DEPER  =   0.30     relativ break condition  

   TIME   =   0.40     timestep for ELM

  volume/ion in A,a.u.               =       5.44        36.71
  Fermi-wavevector in a.u.,A,eV,Ry     =   1.477616  2.792289 29.706263  2.183349
  Thomas-Fermi vector in A             =   2.591998
 
 Write flags
   LWAVE        =      F    write WAVECAR
   LDOWNSAMPLE  =      F    k-point downsampling of WAVECAR
   LCHARG       =      F    write CHGCAR
   LVTOT        =      F    write LOCPOT, total local potential
   LVHAR        =      F    write LOCPOT, Hartree potential only
   LELF         =      F    write electronic localiz. function (ELF)
   LORBIT       =      0    0 simple, 1 ext, 2 COOP (PROOUT), +10 PAW based schemes


 Dipole corrections
   LMONO  =      F    monopole corrections only (constant potential shift)
   LDIPOL =      F    correct potential (dipole corrections)
   IDIPOL =      0    1-x, 2-y, 3-z, 4-all directions 
   EPSILON=  1.0000000 bulk dielectric constant

 Exchange correlation treatment:
   GGA     =    --    GGA type
   LEXCH   =     8    internal setting for exchange type
   VOSKOWN=      0    Vosko Wilk Nusair interpolation
   LHFCALC =     F    Hartree Fock is set to
   LHFONE  =     F    Hartree Fock one center treatment
   AEXX    =    0.0000 exact exchange contribution

 Linear response parameters
   LEPSILON=     F    determine dielectric tensor
   LRPA    =     F    only Hartree local field effects (RPA)
   LNABLA  =     F    use nabla operator in PAW spheres
   LVEL    =     F    velocity operator in full k-point grid
   LINTERFAST=   F  fast interpolation
   KINTER  =     0    interpolate to denser k-point grid
   CSHIFT  =0.1000    complex shift for real part using Kramers Kronig
   OMEGAMAX=  -1.0    maximum frequency
   DEG_THRESHOLD= 0.2000000E-02 threshold for treating states as degnerate
   RTIME   =   -0.100 relaxation time in fs
  (WPLASMAI=    0.000 imaginary part of plasma frequency in eV, 0.658/RTIME)
   DFIELD  = 0.0000000 0.0000000 0.0000000 field for delta impulse in time
 
 Orbital magnetization related:
   ORBITALMAG=     F  switch on orbital magnetization
   LCHIMAG   =     F  perturbation theory with respect to B field
   DQ        =  0.001000  dq finite difference perturbation B field
   LLRAUG    =     F  two centre corrections for induced B field



--------------------------------------------------------------------------------------------------------


 linear response using symmetry
 charge density and potential will be updated during run
 non-spin polarized calculation
 Variant of blocked Davidson
 Davidson routine will perform the subspace rotation
 perform sub-space diagonalisation
    after iterative eigenvector-optimisation
 modified Broyden-mixing scheme, WC =      100.0
 initial mixing is a Kerker type mixing with AMIX =  0.4000 and BMIX =      1.0000
 Hartree-type preconditioning will be used
 using additional bands           64
 reciprocal scheme for non local part
 calculate Harris-corrections to forces 
   (improved forces if not selfconsistent)
 use gradient corrections 
 use of overlap-Matrix (Vanderbilt PP)
 Gauss-broadening in eV      SIGMA  =   0.06


--------------------------------------------------------------------------------------------------------


  energy-cutoff  :      400.00
  volume of cell :      348.16
      direct lattice vectors                 reciprocal lattice vectors
     7.034932491  0.000000000  0.000000000     0.142147775  0.000000000  0.000000000
     0.000000000  7.034932491  0.000000000     0.000000000  0.142147775  0.000000000
     0.000000000  0.000000000  7.034932491     0.000000000  0.000000000  0.142147775

  length of vectors
     7.034932491  7.034932491  7.034932491     0.142147775  0.142147775  0.142147775


 
 k-points in units of 2pi/SCALE and weight: kpt_density=3000                        
   0.00000000  0.00000000  0.00000000       0.005
   0.02369130  0.00000000  0.00000000       0.028
   0.04738259  0.00000000  0.00000000       0.028
   0.07107389  0.00000000  0.00000000       0.014
   0.02369130  0.02369130  0.00000000       0.056
   0.04738259  0.02369130  0.00000000       0.111
   0.07107389  0.02369130  0.00000000       0.056
   0.04738259  0.04738259  0.00000000       0.056
   0.07107389  0.04738259  0.00000000       0.056
   0.07107389  0.07107389  0.00000000       0.014
   0.02369130  0.02369130  0.02369130       0.037
   0.04738259  0.02369130  0.02369130       0.111
   0.07107389  0.02369130  0.02369130       0.056
   0.04738259  0.04738259  0.02369130       0.111
   0.07107389  0.04738259  0.02369130       0.111
   0.07107389  0.07107389  0.02369130       0.028
   0.04738259  0.04738259  0.04738259       0.037
   0.07107389  0.04738259  0.04738259       0.056
   0.07107389  0.07107389  0.04738259       0.028
   0.07107389  0.07107389  0.07107389       0.005
 
 k-points in reciprocal lattice and weights: kpt_density=3000                        
   0.00000000  0.00000000  0.00000000       0.005
   0.16666667  0.00000000  0.00000000       0.028
   0.33333333  0.00000000  0.00000000       0.028
   0.50000000  0.00000000  0.00000000       0.014
   0.16666667  0.16666667  0.00000000       0.056
   0.33333333  0.16666667  0.00000000       0.111
   0.50000000  0.16666667  0.00000000       0.056
   0.33333333  0.33333333  0.00000000       0.056
   0.50000000  0.33333333  0.00000000       0.056
   0.50000000  0.50000000  0.00000000       0.014
   0.16666667  0.16666667  0.16666667       0.037
   0.33333333  0.16666667  0.16666667       0.111
   0.50000000  0.16666667  0.16666667       0.056
   0.33333333  0.33333333  0.16666667       0.111
   0.50000000  0.33333333  0.16666667       0.111
   0.50000000  0.50000000  0.16666667       0.028
   0.33333333  0.33333333  0.33333333       0.037
   0.50000000  0.33333333  0.33333333       0.056
   0.50000000  0.50000000  0.33333333       0.028
   0.50000000  0.50000000  0.50000000       0.005
 
 position of ions in fractional coordinates (direct lattice) 
   0.12500000  0.37500000  0.12500000
   0.62500000  0.37500000  0.12500000
   0.12500000  0.87500000  0.12500000
   0.62500000  0.87500000  0.12500000
   0.12500000  0.37500000  0.62500000
   0.62500000  0.37500000  0.62500000
   0.12500000  0.87500000  0.62500000
   0.62500000  0.87500000  0.62500000
   0.00000000  0.00000000  0.25000000
   0.50000000  0.00000000  0.25000000
   0.00000000  0.50000000  0.25000000
   0.50000000  0.50000000  0.25000000
   0.00000000  0.00000000  0.75000000
   0.50000000  0.00000000  0.75000000
   0.00000000  0.50000000  0.75000000
   0.50000000  0.50000000  0.75000000
   0.12500000  0.12500000  0.37500000
   0.62500000  0.12500000  0.37500000
   0.12500000  0.62500000  0.37500000
   0.62500000  0.62500000  0.37500000
   0.12500000  0.12500000  0.87500000
   0.62500000  0.12500000  0.87500000
   0.12500000  0.62500000  0.87500000
   0.62500000  0.62500000  0.87500000
   0.00000000  0.25000000  0.00000000
   0.50000000  0.25000000  0.00000000
   0.00000000  0.75000000  0.00000000
   0.50000000  0.75000000  0.00000000
   0.00000000  0.25000000  0.50000000
   0.50000000  0.25000000  0.50000000
   0.00000000  0.75000000  0.50000000
   0.50000000  0.75000000  0.50000000
   0.37500000  0.37500000  0.37500000
   0.87500000  0.37500000  0.37500000
   0.37500000  0.87500000  0.37500000
   0.87500000  0.87500000  0.37500000
   0.37500000  0.37500000  0.87500000
   0.87500000  0.37500000  0.87500000
   0.37500000  0.87500000  0.87500000
   0.87500000  0.87500000  0.87500000
   0.25000000  0.00000000  0.00000000
   0.75000000  0.00000000  0.00000000
   0.25000000  0.50000000  0.00000000
   0.75000000  0.50000000  0.00000000
   0.25000000  0.00000000  0.50000000
   0.75000000  0.00000000  0.50000000
   0.25000000  0.50000000  0.50000000
   0.75000000  0.50000000  0.50000000
   0.37500000  0.12500000  0.12500000
   0.87500000  0.12500000  0.12500000
   0.37500000  0.62500000  0.12500000
   0.87500000  0.62500000  0.12500000
   0.37500000  0.12500000  0.62500000
   0.87500000  0.12500000  0.62500000
   0.37500000  0.62500000  0.62500000
   0.87500000  0.62500000  0.62500000
   0.25000000  0.25000000  0.25000000
   0.75000000  0.25000000  0.25000000
   0.25000000  0.75000000  0.25000000
   0.75000000  0.75000000  0.25000000
   0.25000000  0.25000000  0.75000000
   0.75000000  0.25000000  0.75000000
   0.25000000  0.75000000  0.75000000
   0.75000000  0.75000000  0.75000000
 
 position of ions in cartesian coordinates  (Angst):
   0.87936656  2.63809968  0.87936656
   4.39683281  2.63809968  0.87936656
   0.87936656  6.15556593  0.87936656
   4.39683281  6.15556593  0.87936656
   0.87936656  2.63809968  4.39683281
   4.39683281  2.63809968  4.39683281
   0.87936656  6.15556593  4.39683281
   4.39683281  6.15556593  4.39683281
   0.00000000  0.00000000  1.75873312
   3.51746625  0.00000000  1.75873312
   0.00000000  3.51746625  1.75873312
   3.51746625  3.51746625  1.75873312
   0.00000000  0.00000000  5.27619937
   3.51746625  0.00000000  5.27619937
   0.00000000  3.51746625  5.27619937
   3.51746625  3.51746625  5.27619937
   0.87936656  0.87936656  2.63809968
   4.39683281  0.87936656  2.63809968
   0.87936656  4.39683281  2.63809968
   4.39683281  4.39683281  2.63809968
   0.87936656  0.87936656  6.15556593
   4.39683281  0.87936656  6.15556593
   0.87936656  4.39683281  6.15556593
   4.39683281  4.39683281  6.15556593
   0.00000000  1.75873312  0.00000000
   3.51746625  1.75873312  0.00000000
   0.00000000  5.27619937  0.00000000
   3.51746625  5.27619937  0.00000000
   0.00000000  1.75873312  3.51746625
   3.51746625  1.75873312  3.51746625
   0.00000000  5.27619937  3.51746625
   3.51746625  5.27619937  3.51746625
   2.63809968  2.63809968  2.63809968
   6.15556593  2.63809968  2.63809968
   2.63809968  6.15556593  2.63809968
   6.15556593  6.15556593  2.63809968
   2.63809968  2.63809968  6.15556593
   6.15556593  2.63809968  6.15556593
   2.63809968  6.15556593  6.15556593
   6.15556593  6.15556593  6.15556593
   1.75873312  0.00000000  0.00000000
   5.27619937  0.00000000  0.00000000
   1.75873312  3.51746625  0.00000000
   5.27619937  3.51746625  0.00000000
   1.75873312  0.00000000  3.51746625
   5.27619937  0.00000000  3.51746625
   1.75873312  3.51746625  3.51746625
   5.27619937  3.51746625  3.51746625
   2.63809968  0.87936656  0.87936656
   6.15556593  0.87936656  0.87936656
   2.63809968  4.39683281  0.87936656
   6.15556593  4.39683281  0.87936656
   2.63809968  0.87936656  4.39683281
   6.15556593  0.87936656  4.39683281
   2.63809968  4.39683281  4.39683281
   6.15556593  4.39683281  4.39683281
   1.75873312  1.75873312  1.75873312
   5.27619937  1.75873312  1.75873312
   1.75873312  5.27619937  1.75873312
   5.27619937  5.27619937  1.75873312
   1.75873312  1.75873312  5.27619937
   5.27619937  1.75873312  5.27619937
   1.75873312  5.27619937  5.27619937
   5.27619937  5.27619937  5.27619937
 


--------------------------------------------------------------------------------------------------------


 k-point  1 :   0.0000 0.0000 0.0000  plane waves:    6355
 k-point  2 :   0.1667 0.0000 0.0000  plane waves:    6335
 k-point  3 :   0.3333 0.0000 0.0000  plane waves:    6311
 k-point  4 :   0.5000 0.0000 0.0000  plane waves:    6382
 k-point  5 :   0.1667 0.1667 0.0000  plane waves:    6328
 k-point  6 :   0.3333 0.1667 0.0000  plane waves:    6328
 k-point  7 :   0.5000 0.1667 0.0000  plane waves:    6342
 k-point  8 :   0.3333 0.3333 0.0000  plane waves:    6326
 k-point  9 :   0.5000 0.3333 0.0000  plane waves:    6308
 k-point 10 :   0.5000 0.5000 0.0000  plane waves:    6304
 k-point 11 :   0.1667 0.1667 0.1667  plane waves:    6358
 k-point 12 :   0.3333 0.1667 0.1667  plane waves:    6332
 k-point 13 :   0.5000 0.1667 0.1667  plane waves:    6300
 k-point 14 :   0.3333 0.3333 0.1667  plane waves:    6325
 k-point 15 :   0.5000 0.3333 0.1667  plane waves:    6320
 k-point 16 :   0.5000 0.5000 0.1667  plane waves:    6312
 k-point 17 :   0.3333 0.3333 0.3333  plane waves:    6322
 k-point 18 :   0.5000 0.3333 0.3333  plane waves:    6314
 k-point 19 :   0.5000 0.5000 0.3333  plane waves:    6324
 k-point 20 :   0.5000 0.5000 0.5000  plane waves:    6272

 maximum and minimum number of plane-waves per node :      6382     6272

 maximum number of plane-waves:      6382
 maximum index in each direction: 
   IXMAX=   11   IYMAX=   11   IZMAX=   11
   IXMIN=  -11   IYMIN=  -11   IZMIN=  -11


 serial   3D FFT for wavefunctions
 parallel 3D FFT for charge:
    minimum data exchange during FFTs selected (reduces bandwidth)


 total amount of memory used by VASP MPI-rank0    68555. kBytes
=======================================================================

   base      :      30000. kBytes
   nonl-proj :      14745. kBytes
   fftplans  :       4537. kBytes
   grid      :       5806. kBytes
   one-center:        196. kBytes
   wavefun   :      13271. kBytes
 
     INWAV:  cpu time    0.0004: real time    0.0008
 Broyden mixing: mesh for mixing (old mesh)
   NGX = 23   NGY = 23   NGZ = 23
  (NGX  = 96   NGY  = 96   NGZ  = 96)
  gives a total of  12167 points

 initial charge density was supplied:
 charge density of overlapping atoms calculated
 number of electron     256.0000000 magnetization 
 keeping initial charge density in first step


--------------------------------------------------------------------------------------------------------


 Maximum index for augmentation-charges         1137 (set IRDMAX)


--------------------------------------------------------------------------------------------------------


 First call to EWALD:  gamma=   0.252
 Maximum number of real-space cells 3x 3x 3
 Maximum number of reciprocal cells 3x 3x 3

    FEWALD:  cpu time    0.0085: real time    0.0085


--------------------------------------- Iteration      1(   1)  ---------------------------------------


    POTLOK:  cpu time    0.0645: real time    0.1042
    SETDIJ:  cpu time    0.0441: real time    0.0443
     EDDAV:  cpu time   13.3657: real time   13.3760
       DOS:  cpu time    0.0062: real time    0.0062
    --------------------------------------------
      LOOP:  cpu time   13.4808: real time   13.5309

 eigenvalue-minimisations  :  7680
 total energy-change (2. order) : 0.5145596E+03  (-0.1144319E+05)
 number of electron     256.0000000 magnetization 
 augmentation part      256.0000000 magnetization 

 Free energy of the ion-electron system (eV)
  ---------------------------------------------------
  alpha Z        PSCENC =       958.58811461
  Ewald energy   TEWEN  =    -11290.85594836
  -Hartree energ DENC   =      -534.73912322
  -exchange      EXHF   =         0.00000000
  -V(xc)+E(xc)   XCENC  =       923.69559467
  PAW double counting   =      2421.21235816    -2494.84305711
  entropy T*S    EENTRO =        -0.01272202
  eigenvalues    EBANDS =      1115.37207859
  atomic energy  EATOM  =      9416.14232778
  Solvation  Ediel_sol  =         0.00000000
  ---------------------------------------------------
  free energy    TOTEN  =       514.55962310 eV

  energy without entropy =      514.57234512  energy(sigma->0) =      514.56598411


--------------------------------------------------------------------------------------------------------




--------------------------------------- Iteration      1(   2)  ---------------------------------------


     EDDAV:  cpu time   16.0974: real time   16.0994
       DOS:  cpu time    0.0028: real time    0.0028
    --------------------------------------------
      LOOP:  cpu time   16.1002: real time   16.1021

 eigenvalue-minimisations  : 10144
 total energy-change (2. order) :-0.1077711E+04  (-0.1028989E+04)
 number of electron     256.0000000 magnetization 
 augmentation part      256.0000000 magnetization 

 Free energy of the ion-electron system (eV)
  ---------------------------------------------------
  alpha Z        PSCENC =       958.58811461
  Ewald energy   TEWEN  =    -11290.85594836
  -Hartree energ DENC   =      -534.73912322
  -exchange      EXHF   =         0.00000000
  -V(xc)+E(xc)   XCENC  =       923.69559467
  PAW double counting   =      2421.21235816    -2494.84305711
  entropy T*S    EENTRO =        -0.00000000
  eigenvalues    EBANDS =        37.64804903
  atomic energy  EATOM  =      9416.14232778
  Solvation  Ediel_sol  =         0.00000000
  ---------------------------------------------------
  free energy    TOTEN  =      -563.15168445 eV

  energy without entropy =     -563.15168445  energy(sigma->0) =     -563.15168445


--------------------------------------------------------------------------------------------------------




--------------------------------------- Iteration      1(   3)  ---------------------------------------


     EDDAV:  cpu time   16.7357: real time   16.7374
       DOS:  cpu time    0.0027: real time    0.0027
    --------------------------------------------
      LOOP:  cpu time   16.7383: real time   16.7401

 eigenvalue-minimisations  : 10112
 total energy-change (2. order) :-0.4029426E+02  (-0.4006838E+02)
 number of electron     256.0000000 magnetization 
 augmentation part      256.0000000 magnetization 

 Free energy of the ion-electron system (eV)
  ---------------------------------------------------
  alpha Z        PSCENC =       958.58811461
  Ewald energy   TEWEN  =    -11290.85594836
  -Hartree energ DENC   =      -534.73912322
  -exchange      EXHF   =         0.00000000
  -V(xc)+E(xc)   XCENC  =       923.69559467
  PAW double counting   =      2421.21235816    -2494.84305711
  entropy T*S    EENTRO =        -0.00000000
  eigenvalues    EBANDS =        -2.64621034
  atomic energy  EATOM  =      9416.14232778
  Solvation  Ediel_sol  =         0.00000000
  ---------------------------------------------------
  free energy    TOTEN  =      -603.44594382 eV

  energy without entropy =     -603.44594382  energy(sigma->0) =     -603.44594382


--------------------------------------------------------------------------------------------------------




--------------------------------------- Iteration      1(   4)  ---------------------------------------


     EDDAV:  cpu time   16.3741: real time   16.3758
       DOS:  cpu time    0.0032: real time    0.0032
    --------------------------------------------
      LOOP:  cpu time   16.3774: real time   16.3790

 eigenvalue-minimisations  : 10048
 total energy-change (2. order) :-0.4021559E+00  (-0.4012915E+00)
 number of electron     256.0000000 magnetization 
 augmentation part      256.0000000 magnetization 

 Free energy of the ion-electron system (eV)
  ---------------------------------------------------
  alpha Z        PSCENC =       958.58811461
  Ewald energy   TEWEN  =    -11290.85594836
  -Hartree energ DENC   =      -534.73912322
  -exchange      EXHF   =         0.00000000
  -V(xc)+E(xc)   XCENC  =       923.69559467
  PAW double counting   =      2421.21235816    -2494.84305711
  entropy T*S    EENTRO =        -0.00000000
  eigenvalues    EBANDS =        -3.04836628
  atomic energy  EATOM  =      9416.14232778
  Solvation  Ediel_sol  =         0.00000000
  ---------------------------------------------------
  free energy    TOTEN  =      -603.84809975 eV

  energy without entropy =     -603.84809975  energy(sigma->0) =     -603.84809975


--------------------------------------------------------------------------------------------------------




--------------------------------------- Iteration      1(   5)  ---------------------------------------


     EDDAV:  cpu time   15.4241: real time   15.4258
       DOS:  cpu time    0.0028: real time    0.0028
    CHARGE:  cpu time    0.5206: real time    0.5209
    MIXING:  cpu time    0.0037: real time    0.0036
    --------------------------------------------
      LOOP:  cpu time   15.9512: real time   15.9531

 eigenvalue-minimisations  :  9568
 total energy-change (2. order) :-0.8609850E-02  (-0.8606194E-02)
 number of electron     256.0000003 magnetization 
 augmentation part        6.5883135 magnetization 

 Broyden mixing:
  rms(total) = 0.28273E+01    rms(broyden)= 0.28268E+01
  rms(prec ) = 0.41696E+01
  weight for this iteration     100.00

 Free energy of the ion-electron system (eV)
  ---------------------------------------------------
  alpha Z        PSCENC =       958.58811461
  Ewald energy   TEWEN  =    -11290.85594836
  -Hartree energ DENC   =      -534.73912322
  -exchange      EXHF   =         0.00000000
  -V(xc)+E(xc)   XCENC  =       923.69559467
  PAW double counting   =      2421.21235816    -2494.84305711
  entropy T*S    EENTRO =        -0.00000000
  eigenvalues    EBANDS =        -3.05697613
  atomic energy  EATOM  =      9416.14232778
  Solvation  Ediel_sol  =         0.00000000
  ---------------------------------------------------
  free energy    TOTEN  =      -603.85670960 eV

  energy without entropy =     -603.85670960  energy(sigma->0) =     -603.85670960


--------------------------------------------------------------------------------------------------------




--------------------------------------- Iteration      1(   6)  ---------------------------------------


    POTLOK:  cpu time    0.0587: real time    0.0589
    SETDIJ:  cpu time    0.0418: real time    0.0418
     EDDAV:  cpu time   15.5209: real time   15.5223
       DOS:  cpu time    0.0029: real time    0.0029
    CHARGE:  cpu time    0.5262: real time    0.5262
    MIXING:  cpu time    0.0090: real time    0.0090
    --------------------------------------------
      LOOP:  cpu time   16.1595: real time   16.1612

 eigenvalue-minimisations  :  8992
 total energy-change (2. order) : 0.1722348E+02  (-0.1127031E+01)
 number of electron     256.0000003 magnetization 
 augmentation part        6.4291213 magnetization 

 Broyden mixing:
  rms(total) = 0.15395E+01    rms(broyden)= 0.15394E+01
  rms(prec ) = 0.22524E+01
  weight for this iteration     100.00

 eigenvalues of (default mixing * dielectric matrix)
  average eigenvalue GAMMA=   2.1526
  2.1526

 Free energy of the ion-electron system (eV)
  ---------------------------------------------------
  alpha Z        PSCENC =       958.58811461
  Ewald energy   TEWEN  =    -11290.85594836
  -Hartree energ DENC   =      -660.61859346
  -exchange      EXHF   =         0.00000000
  -V(xc)+E(xc)   XCENC  =       935.53664351
  PAW double counting   =      3218.10357070    -3296.54050617
  entropy T*S    EENTRO =        -0.00000000
  eigenvalues    EBANDS =       133.01115951
  atomic energy  EATOM  =      9416.14232778
  Solvation  Ediel_sol  =         0.00000000
  ---------------------------------------------------
  free energy    TOTEN  =      -586.63323189 eV

  energy without entropy =     -586.63323189  energy(sigma->0) =     -586.63323189


--------------------------------------------------------------------------------------------------------




--------------------------------------- Iteration      1(   7)  ---------------------------------------


    POTLOK:  cpu time    0.0935: real time    0.0939
    SETDIJ:  cpu time    0.0526: real time    0.0526
     EDDAV:  cpu time   16.2021: real time   16.2035
       DOS:  cpu time    0.0030: real time    0.0030
    CHARGE:  cpu time    0.5166: real time    0.5166
    MIXING:  cpu time    0.0043: real time    0.0043
    --------------------------------------------
      LOOP:  cpu time   16.8721: real time   16.8739

 eigenvalue-minimisations  :  9408
 total energy-change (2. order) : 0.5807910E+01  (-0.1269570E+01)
 number of electron     256.0000003 magnetization 
 augmentation part        6.2618925 magnetization 

 Broyden mixing:
  rms(total) = 0.19949E+00    rms(broyden)= 0.19855E+00
  rms(prec ) = 0.24448E+00
  weight for this iteration     100.00

 eigenvalues of (default mixing * dielectric matrix)
  average eigenvalue GAMMA=   2.2750
  2.0130  2.5370

 Free energy of the ion-electron system (eV)
  ---------------------------------------------------
  alpha Z        PSCENC =       958.58811461
  Ewald energy   TEWEN  =    -11290.85594836
  -Hartree energ DENC   =      -821.64901127
  -exchange      EXHF   =         0.00000000
  -V(xc)+E(xc)   XCENC  =       950.82871321
  PAW double counting   =      4312.72318972    -4395.74804926
  entropy T*S    EENTRO =        -0.00000000
  eigenvalues    EBANDS =       289.14534174
  atomic energy  EATOM  =      9416.14232778
  Solvation  Ediel_sol  =         0.00000000
  ---------------------------------------------------
  free energy    TOTEN  =      -580.82532182 eV

  energy without entropy =     -580.82532182  energy(sigma->0) =     -580.82532182


--------------------------------------------------------------------------------------------------------




--------------------------------------- Iteration      1(   8)  ---------------------------------------


    POTLOK:  cpu time    0.0573: real time    0.0577
    SETDIJ:  cpu time    0.0417: real time    0.0417
     EDDAV:  cpu time   15.5075: real time   15.5089
       DOS:  cpu time    0.0028: real time    0.0028
    CHARGE:  cpu time    0.5163: real time    0.5163
    MIXING:  cpu time    0.0048: real time    0.0047
    --------------------------------------------
      LOOP:  cpu time   16.1304: real time   16.1322

 eigenvalue-minimisations  :  9536
 total energy-change (2. order) :-0.6544181E-01  (-0.2801244E-01)
 number of electron     256.0000003 magnetization 
 augmentation part        6.2684625 magnetization 

 Broyden mixing:
  rms(total) = 0.22366E-01    rms(broyden)= 0.22048E-01
  rms(prec ) = 0.27137E-01
  weight for this iteration     100.00

 eigenvalues of (default mixing * dielectric matrix)
  average eigenvalue GAMMA=   2.1052
  1.4630  2.6960  2.1565

 Free energy of the ion-electron system (eV)
  ---------------------------------------------------
  alpha Z        PSCENC =       958.58811461
  Ewald energy   TEWEN  =    -11290.85594836
  -Hartree energ DENC   =      -825.29988522
  -exchange      EXHF   =         0.00000000
  -V(xc)+E(xc)   XCENC  =       951.21069888
  PAW double counting   =      4402.93405951    -4484.88724440
  entropy T*S    EENTRO =        -0.00000000
  eigenvalues    EBANDS =       291.27711356
  atomic energy  EATOM  =      9416.14232778
  Solvation  Ediel_sol  =         0.00000000
  ---------------------------------------------------
  free energy    TOTEN  =      -580.89076364 eV

  energy without entropy =     -580.89076364  energy(sigma->0) =     -580.89076364


--------------------------------------------------------------------------------------------------------




--------------------------------------- Iteration      1(   9)  ---------------------------------------


    POTLOK:  cpu time    0.0578: real time    0.0582
    SETDIJ:  cpu time    0.0414: real time    0.0415
     EDDAV:  cpu time   16.0933: real time   16.0946
       DOS:  cpu time    0.0028: real time    0.0028
    CHARGE:  cpu time    0.5182: real time    0.5182
    MIXING:  cpu time    0.0042: real time    0.0042
    --------------------------------------------
      LOOP:  cpu time   16.7176: real time   16.7194

 eigenvalue-minimisations  :  9952
 total energy-change (2. order) :-0.2073025E-02  (-0.3580923E-03)
 number of electron     256.0000003 magnetization 
 augmentation part        6.2675979 magnetization 

 Broyden mixing:
  rms(total) = 0.82118E-02    rms(broyden)= 0.81873E-02
  rms(prec ) = 0.10392E-01
  weight for this iteration     100.00

 eigenvalues of (default mixing * dielectric matrix)
  average eigenvalue GAMMA=   2.0364
  0.9659  2.7456  2.4435  1.9906

 Free energy of the ion-electron system (eV)
  ---------------------------------------------------
  alpha Z        PSCENC =       958.58811461
  Ewald energy   TEWEN  =    -11290.85594836
  -Hartree energ DENC   =      -824.77040917
  -exchange      EXHF   =         0.00000000
  -V(xc)+E(xc)   XCENC  =       951.15970675
  PAW double counting   =      4399.21098782    -4481.05118443
  entropy T*S    EENTRO =        -0.00000000
  eigenvalues    EBANDS =       290.68356832
  atomic energy  EATOM  =      9416.14232778
  Solvation  Ediel_sol  =         0.00000000
  ---------------------------------------------------
  free energy    TOTEN  =      -580.89283666 eV

  energy without entropy =     -580.89283666  energy(sigma->0) =     -580.89283666


--------------------------------------------------------------------------------------------------------




--------------------------------------- Iteration      1(  10)  ---------------------------------------


    POTLOK:  cpu time    0.0633: real time    0.0636
    SETDIJ:  cpu time    0.0425: real time    0.0425
     EDDAV:  cpu time   14.9065: real time   14.9078
       DOS:  cpu time    0.0030: real time    0.0030
    CHARGE:  cpu time    0.5144: real time    0.5145
    MIXING:  cpu time    0.0051: real time    0.0051
    --------------------------------------------
      LOOP:  cpu time   15.5348: real time   15.5365

 eigenvalue-minimisations  :  9120
 total energy-change (2. order) :-0.4346304E-03  (-0.3686044E-04)
 number of electron     256.0000003 magnetization 
 augmentation part        6.2673063 magnetization 

 Broyden mixing:
  rms(total) = 0.80763E-03    rms(broyden)= 0.79100E-03
  rms(prec ) = 0.12037E-02
  weight for this iteration     100.00

 eigenvalues of (default mixing * dielectric matrix)
  average eigenvalue GAMMA=   1.9521
  2.9248  2.5501  2.0612  0.9898  1.2344

 Free energy of the ion-electron system (eV)
  ---------------------------------------------------
  alpha Z        PSCENC =       958.58811461
  Ewald energy   TEWEN  =    -11290.85594836
  -Hartree energ DENC   =      -825.15186251
  -exchange      EXHF   =         0.00000000
  -V(xc)+E(xc)   XCENC  =       951.19257771
  PAW double counting   =      4395.01959007    -4476.87361780
  entropy T*S    EENTRO =        -0.00000000
  eigenvalues    EBANDS =       291.04554721
  atomic energy  EATOM  =      9416.14232778
  Solvation  Ediel_sol  =         0.00000000
  ---------------------------------------------------
  free energy    TOTEN  =      -580.89327129 eV

  energy without entropy =     -580.89327129  energy(sigma->0) =     -580.89327129


--------------------------------------------------------------------------------------------------------




--------------------------------------- Iteration      1(  11)  ---------------------------------------


    POTLOK:  cpu time    0.0577: real time    0.0581
    SETDIJ:  cpu time    0.0414: real time    0.0414
     EDDAV:  cpu time   16.9075: real time   16.9090
       DOS:  cpu time    0.0059: real time    0.0059
    CHARGE:  cpu time    0.5348: real time    0.5348
    MIXING:  cpu time    0.0087: real time    0.0087
    --------------------------------------------
      LOOP:  cpu time   17.5561: real time   17.5578

 eigenvalue-minimisations  :  9920
 total energy-change (2. order) :-0.5980626E-05  (-0.1040860E-05)
 number of electron     256.0000003 magnetization 
 augmentation part        6.2671315 magnetization 

 Broyden mixing:
  rms(total) = 0.19706E-03    rms(broyden)= 0.19132E-03
  rms(prec ) = 0.25754E-03
  weight for this iteration     100.00

 eigenvalues of (default mixing * dielectric matrix)
  average eigenvalue GAMMA=   1.9970
  2.9611  2.5750  2.4268  2.0299  0.9947  0.9947

 Free energy of the ion-electron system (eV)
  ---------------------------------------------------
  alpha Z        PSCENC =       958.58811461
  Ewald energy   TEWEN  =    -11290.85594836
  -Hartree energ DENC   =      -825.26769881
  -exchange      EXHF   =         0.00000000
  -V(xc)+E(xc)   XCENC  =       951.20329499
  PAW double counting   =      4395.25303353    -4477.11158423
  entropy T*S    EENTRO =        -0.00000000
  eigenvalues    EBANDS =       291.15518321
  atomic energy  EATOM  =      9416.14232778
  Solvation  Ediel_sol  =         0.00000000
  ---------------------------------------------------
  free energy    TOTEN  =      -580.89327727 eV

  energy without entropy =     -580.89327727  energy(sigma->0) =     -580.89327727


--------------------------------------------------------------------------------------------------------




--------------------------------------- Iteration      1(  12)  ---------------------------------------


    POTLOK:  cpu time    0.0681: real time    0.0685
    SETDIJ:  cpu time    0.0417: real time    0.0417
     EDDAV:  cpu time   15.9705: real time   15.9719
       DOS:  cpu time    0.0048: real time    0.0048
    CHARGE:  cpu time    0.5277: real time    0.5278
    MIXING:  cpu time    0.0088: real time    0.0088
    --------------------------------------------
      LOOP:  cpu time   16.6215: real time   16.6234

 eigenvalue-minimisations  :  9856
 total energy-change (2. order) : 0.1797944E-06  (-0.2946476E-07)
 number of electron     256.0000003 magnetization 
 augmentation part        6.2671449 magnetization 

 Broyden mixing:
  rms(total) = 0.23243E-04    rms(broyden)= 0.21940E-04
  rms(prec ) = 0.33006E-04
  weight for this iteration     100.00

 eigenvalues of (default mixing * dielectric matrix)
  average eigenvalue GAMMA=   1.8968
  2.9115  2.6620  2.5123  2.0425  0.9882  1.0334  1.1275

 Free energy of the ion-electron system (eV)
  ---------------------------------------------------
  alpha Z        PSCENC =       958.58811461
  Ewald energy   TEWEN  =    -11290.85594836
  -Hartree energ DENC   =      -825.25368210
  -exchange      EXHF   =         0.00000000
  -V(xc)+E(xc)   XCENC  =       951.20201056
  PAW double counting   =      4395.34512683    -4477.20225869
  entropy T*S    EENTRO =        -0.00000000
  eigenvalues    EBANDS =       291.14103227
  atomic energy  EATOM  =      9416.14232778
  Solvation  Ediel_sol  =         0.00000000
  ---------------------------------------------------
  free energy    TOTEN  =      -580.89327709 eV

  energy without entropy =     -580.89327709  energy(sigma->0) =     -580.89327709


--------------------------------------------------------------------------------------------------------




--------------------------------------- Iteration      1(  13)  ---------------------------------------


    POTLOK:  cpu time    0.0904: real time    0.0908
    SETDIJ:  cpu time    0.0435: real time    0.0435
     EDDAV:  cpu time   14.0163: real time   14.0175
       DOS:  cpu time    0.0027: real time    0.0027
    CHARGE:  cpu time    0.5135: real time    0.5136
    MIXING:  cpu time    0.0050: real time    0.0050
    --------------------------------------------
      LOOP:  cpu time   14.6714: real time   14.6731

 eigenvalue-minimisations  :  7392
 total energy-change (2. order) :-0.4549838E-07  (-0.4898829E-09)
 number of electron     256.0000003 magnetization 
 augmentation part        6.2671443 magnetization 

 Broyden mixing:
  rms(total) = 0.37628E-05    rms(broyden)= 0.34949E-05
  rms(prec ) = 0.41542E-05
  weight for this iteration     100.00

 eigenvalues of (default mixing * dielectric matrix)
  average eigenvalue GAMMA=   1.9773
  2.0397  2.8601  2.8601  2.5764  2.5042  1.0052  1.0052  0.9676

 Free energy of the ion-electron system (eV)
  ---------------------------------------------------
  alpha Z        PSCENC =       958.58811461
  Ewald energy   TEWEN  =    -11290.85594836
  -Hartree energ DENC   =      -825.25099266
  -exchange      EXHF   =         0.00000000
  -V(xc)+E(xc)   XCENC  =       951.20175667
  PAW double counting   =      4395.33814066    -4477.19515948
  entropy T*S    EENTRO =        -0.00000000
  eigenvalues    EBANDS =       291.13848364
  atomic energy  EATOM  =      9416.14232778
  Solvation  Ediel_sol  =         0.00000000
  ---------------------------------------------------
  free energy    TOTEN  =      -580.89327714 eV

  energy without entropy =     -580.89327714  energy(sigma->0) =     -580.89327714


--------------------------------------------------------------------------------------------------------




--------------------------------------- Iteration      1(  14)  ---------------------------------------


    POTLOK:  cpu time    0.0595: real time    0.0599
    SETDIJ:  cpu time    0.0418: real time    0.0418
     EDDAV:  cpu time   11.9948: real time   11.9958
       DOS:  cpu time    0.0033: real time    0.0033
    CHARGE:  cpu time    0.5124: real time    0.5125
    MIXING:  cpu time    0.0055: real time    0.0055
    --------------------------------------------
      LOOP:  cpu time   12.6176: real time   12.6190

 eigenvalue-minimisations  :  6304
 total energy-change (2. order) :-0.2567504E-07  (-0.6151212E-10)
 number of electron     256.0000003 magnetization 
 augmentation part        6.2671447 magnetization 

 Broyden mixing:
  rms(total) = 0.21187E-05    rms(broyden)= 0.21079E-05
  rms(prec ) = 0.28160E-05
  weight for this iteration     100.00

 eigenvalues of (default mixing * dielectric matrix)
  average eigenvalue GAMMA=   1.8691
  2.8446  2.8446  2.5291  2.5291  2.0433  0.9701  0.9701  1.0453  1.0453

 Free energy of the ion-electron system (eV)
  ---------------------------------------------------
  alpha Z        PSCENC =       958.58811461
  Ewald energy   TEWEN  =    -11290.85594836
  -Hartree energ DENC   =      -825.25067784
  -exchange      EXHF   =         0.00000000
  -V(xc)+E(xc)   XCENC  =       951.20172768
  PAW double counting   =      4395.33230530    -4477.18931041
  entropy T*S    EENTRO =        -0.00000000
  eigenvalues    EBANDS =       291.13818407
  atomic energy  EATOM  =      9416.14232778
  Solvation  Ediel_sol  =         0.00000000
  ---------------------------------------------------
  free energy    TOTEN  =      -580.89327717 eV

  energy without entropy =     -580.89327717  energy(sigma->0) =     -580.89327717


--------------------------------------------------------------------------------------------------------




--------------------------------------- Iteration      1(  15)  ---------------------------------------


    POTLOK:  cpu time    0.0577: real time    0.0582
    SETDIJ:  cpu time    0.0423: real time    0.0423
     EDDAV:  cpu time   11.3511: real time   11.3522
       DOS:  cpu time    0.0028: real time    0.0028
    --------------------------------------------
      LOOP:  cpu time   11.4537: real time   11.4552

 eigenvalue-minimisations  :  5792
 total energy-change (2. order) :-0.2910383E-09  (-0.1134211E-10)
 number of electron     256.0000003 magnetization 
 augmentation part        6.2671447 magnetization 

 Free energy of the ion-electron system (eV)
  ---------------------------------------------------
  alpha Z        PSCENC =       958.58811461
  Ewald energy   TEWEN  =    -11290.85594836
  -Hartree energ DENC   =      -825.25083403
  -exchange      EXHF   =         0.00000000
  -V(xc)+E(xc)   XCENC  =       951.20174222
  PAW double counting   =      4395.33331629    -4477.19033598
  entropy T*S    EENTRO =        -0.00000000
  eigenvalues    EBANDS =       291.13834031
  atomic energy  EATOM  =      9416.14232778
  Solvation  Ediel_sol  =         0.00000000
  ---------------------------------------------------
  free energy    TOTEN  =      -580.89327717 eV

  energy without entropy =     -580.89327717  energy(sigma->0) =     -580.89327717


--------------------------------------------------------------------------------------------------------




 average (electrostatic) potential at core
  the test charge radii are     0.6991
  (the norm of the test charge is              1.0000)
       1 -44.7644       2 -44.7644       3 -44.7644       4 -44.7644       5 -44.7644
       6 -44.7644       7 -44.7644       8 -44.7644       9 -44.7644      10 -44.7644
      11 -44.7644      12 -44.7644      13 -44.7644      14 -44.7644      15 -44.7644
      16 -44.7644      17 -44.7644      18 -44.7644      19 -44.7644      20 -44.7644
      21 -44.7644      22 -44.7644      23 -44.7644      24 -44.7644      25 -44.7644
      26 -44.7644      27 -44.7644      28 -44.7644      29 -44.7644      30 -44.7644
      31 -44.7644      32 -44.7644      33 -44.7644      34 -44.7644      35 -44.7644
      36 -44.7644      37 -44.7644      38 -44.7644      39 -44.7644      40 -44.7644
      41 -44.7644      42 -44.7644      43 -44.7644      44 -44.7644      45 -44.7644
      46 -44.7644      47 -44.7644      48 -44.7644      49 -44.7644      50 -44.7644
      51 -44.7644      52 -44.7644      53 -44.7644      54 -44.7644      55 -44.7644
      56 -44.7644      57 -44.7644      58 -44.7644      59 -44.7644      60 -44.7644
      61 -44.7644      62 -44.7644      63 -44.7644      64 -44.7644
 
 
 
 E-fermi :  10.6526     XC(G=0): -13.4332     alpha+bet :-18.4540


 k-point     1 :       0.0000    0.0000    0.0000
  band No.  band energies     occupation 
      1     -11.6762      2.00000
      2      -9.3248      2.00000
      3      -9.3248      2.00000
      4      -9.3248      2.00000
      5      -9.3248      2.00000
      6      -9.3248      2.00000
      7      -9.3248      2.00000
      8      -7.0693      2.00000
      9      -7.0693      2.00000
     10      -7.0693      2.00000
     11      -7.0693      2.00000
     12      -7.0693      2.00000
     13      -7.0693      2.00000
     14      -7.0693      2.00000
     15      -7.0693      2.00000
     16      -7.0693      2.00000
     17      -7.0693      2.00000
     18      -7.0693      2.00000
     19      -7.0693      2.00000
     20      -5.6583      2.00000
     21      -5.6583      2.00000
     22      -5.6583      2.00000
     23      -5.6583      2.00000
     24      -3.4733      2.00000
     25      -3.4733      2.00000
     26      -3.4733      2.00000
     27      -3.4733      2.00000
     28      -2.6948      2.00000
     29      -2.6948      2.00000
     30      -2.6948      2.00000
     31      -2.6948      2.00000
     32      -2.6948      2.00000
     33      -2.6948      2.00000
     34      -1.8350      2.00000
     35      -1.8350      2.00000
     36      -1.8350      2.00000
     37      -1.8350      2.00000
     38      -1.8350      2.00000
     39      -1.8350      2.00000
     40      -1.8350      2.00000
     41      -1.8350      2.00000
     42      -1.8350      2.00000
     43      -1.8350      2.00000
     44      -1.8350      2.00000
     45      -1.8350      2.00000
     46       1.4581      2.00000
     47       1.4581      2.00000
     48       1.4581      2.00000
     49       1.4581      2.00000
     50       1.4581      2.00000
     51       1.4581      2.00000
     52       1.4581      2.00000
     53       1.4581      2.00000
     54       1.4581      2.00000
[...]
      4.396833  0.879367  6.155566     0.030351   -0.019587   -0.000424  
      0.879367  4.396833  6.155566    -0.022848    0.028127    0.000424  
      4.396833  4.396833  6.155566    -0.022848   -0.019587    0.180202  
      0.000000  1.758733  0.000000     0.003967    0.001068   -0.131118  
      3.517466  1.758733  0.000000     0.003967    0.004974   -0.118258  
      0.000000  5.276199  0.000000    -0.005689    0.001068    0.118258  
      3.517466  5.276199  0.000000    -0.005689    0.004974    0.131118  
      0.000000  1.758733  3.517466     0.005689   -0.004974   -0.131118  
      3.517466  1.758733  3.517466     0.005689   -0.001068   -0.118258  
      0.000000  5.276199  3.517466    -0.003967   -0.004974    0.118258  
      3.517466  5.276199  3.517466    -0.003967   -0.001068    0.131118  
      2.638100  2.638100  2.638100    -0.026537   -0.026903   -0.159030  
      6.155566  2.638100  2.638100    -0.026537    0.018363    0.001098  
      2.638100  6.155566  2.638100     0.019034   -0.026903   -0.001098  
      6.155566  6.155566  2.638100     0.019034    0.018363    0.159030  
      2.638100  2.638100  6.155566    -0.019034   -0.018363   -0.159030  
      6.155566  2.638100  6.155566    -0.019034    0.026903    0.001098  
      2.638100  6.155566  6.155566     0.026537   -0.018363   -0.001098  
      6.155566  6.155566  6.155566     0.026537    0.026903    0.159030  
      1.758733  0.000000  0.000000    -0.000716    0.005790   -0.131528  
      5.276199  0.000000  0.000000    -0.000716    0.000252    0.117622  
      1.758733  3.517466  0.000000    -0.001007    0.005790   -0.117622  
      5.276199  3.517466  0.000000    -0.001007    0.000252    0.131528  
      1.758733  0.000000  3.517466     0.001007   -0.000252   -0.131528  
      5.276199  0.000000  3.517466     0.001007   -0.005790    0.117622  
      1.758733  3.517466  3.517466     0.000716   -0.000252   -0.117622  
      5.276199  3.517466  3.517466     0.000716   -0.005790    0.131528  
      2.638100  0.879367  0.879367     0.022069   -0.020049   -0.170377  
      6.155566  0.879367  0.879367     0.022069    0.025217   -0.010248  
      2.638100  4.396833  0.879367    -0.031130   -0.020049    0.010248  
      6.155566  4.396833  0.879367    -0.031130    0.025217    0.170377  
      2.638100  0.879367  4.396833     0.031130   -0.025217   -0.170377  
      6.155566  0.879367  4.396833     0.031130    0.020049   -0.010248  
      2.638100  4.396833  4.396833    -0.022069   -0.025217    0.010248  
      6.155566  4.396833  4.396833    -0.022069    0.020049    0.170377  
      1.758733  1.758733  1.758733    -0.002148    0.001778   -0.249263  
      5.276199  1.758733  1.758733    -0.002148   -0.003760   -0.000113  
      1.758733  5.276199  1.758733    -0.011804    0.001778    0.000113  
      5.276199  5.276199  1.758733    -0.011804   -0.003760    0.249263  
      1.758733  1.758733  5.276199     0.011804    0.003760   -0.249263  
      5.276199  1.758733  5.276199     0.011804   -0.001778   -0.000113  
      1.758733  5.276199  5.276199     0.002148    0.003760    0.000113  
      5.276199  5.276199  5.276199     0.002148   -0.001778    0.249263  
 
 190 f  =    0.000006 THz     0.000037 2PiTHz    0.000196 cm-1     0.000024 meV
             X         Y         Z           dx          dy          dz
      0.879367  2.638100  0.879367    -0.116395   -0.045576    0.000022  
      4.396833  2.638100  0.879367    -0.116395   -0.045576    0.000022  
      0.879367  6.155566  0.879367    -0.116395   -0.045576    0.000022  
      4.396833  6.155566  0.879367    -0.116395   -0.045576    0.000022  
      0.879367  2.638100  4.396833    -0.116395   -0.045576    0.000022  
      4.396833  2.638100  4.396833    -0.116395   -0.045576    0.000022  
      0.879367  6.155566  4.396833    -0.116395   -0.045576    0.000022  
      4.396833  6.155566  4.396833    -0.116395   -0.045576    0.000022  
      0.000000  0.000000  1.758733    -0.116395   -0.045576    0.000022  
      3.517466  0.000000  1.758733    -0.116395   -0.045576    0.000022  
      0.000000  3.517466  1.758733    -0.116395   -0.045576    0.000022  
      3.517466  3.517466  1.758733    -0.116395   -0.045576    0.000022  
      0.000000  0.000000  5.276199    -0.116395   -0.045576    0.000022  
      3.517466  0.000000  5.276199    -0.116395   -0.045576    0.000022  
      0.000000  3.517466  5.276199    -0.116395   -0.045576    0.000022  
      3.517466  3.517466  5.276199    -0.116395   -0.045576    0.000022  
      0.879367  0.879367  2.638100    -0.116395   -0.045576    0.000022  
      4.396833  0.879367  2.638100    -0.116395   -0.045576    0.000022  
      0.879367  4.396833  2.638100    -0.116395   -0.045576    0.000022  
      4.396833  4.396833  2.638100    -0.116395   -0.045576    0.000022  
      0.879367  0.879367  6.155566    -0.116395   -0.045576    0.000022  
      4.396833  0.879367  6.155566    -0.116395   -0.045576    0.000022  
      0.879367  4.396833  6.155566    -0.116395   -0.045576    0.000022  
      4.396833  4.396833  6.155566    -0.116395   -0.045576    0.000022  
      0.000000  1.758733  0.000000    -0.116395   -0.045576    0.000022  
      3.517466  1.758733  0.000000    -0.116395   -0.045576    0.000022  
      0.000000  5.276199  0.000000    -0.116395   -0.045576    0.000022  
      3.517466  5.276199  0.000000    -0.116395   -0.045576    0.000022  
      0.000000  1.758733  3.517466    -0.116395   -0.045576    0.000022  
      3.517466  1.758733  3.517466    -0.116395   -0.045576    0.000022  
      0.000000  5.276199  3.517466    -0.116395   -0.045576    0.000022  
      3.517466  5.276199  3.517466    -0.116395   -0.045576    0.000022  
      2.638100  2.638100  2.638100    -0.116395   -0.045576    0.000022  
      6.155566  2.638100  2.638100    -0.116395   -0.045576    0.000022  
      2.638100  6.155566  2.638100    -0.116395   -0.045576    0.000022  
      6.155566  6.155566  2.638100    -0.116395   -0.045576    0.000022  
      2.638100  2.638100  6.155566    -0.116395   -0.045576    0.000022  
      6.155566  2.638100  6.155566    -0.116395   -0.045576    0.000022  
      2.638100  6.155566  6.155566    -0.116395   -0.045576    0.000022  
      6.155566  6.155566  6.155566    -0.116395   -0.045576    0.000022  
      1.758733  0.000000  0.000000    -0.116395   -0.045576    0.000022  
      5.276199  0.000000  0.000000    -0.116395   -0.045576    0.000022  
      1.758733  3.517466  0.000000    -0.116395   -0.045576    0.000022  
      5.276199  3.517466  0.000000    -0.116395   -0.045576    0.000022  
      1.758733  0.000000  3.517466    -0.116395   -0.045576    0.000022  
      5.276199  0.000000  3.517466    -0.116395   -0.045576    0.000022  
      1.758733  3.517466  3.517466    -0.116395   -0.045576    0.000022  
      5.276199  3.517466  3.517466    -0.116395   -0.045576    0.000022  
      2.638100  0.879367  0.879367    -0.116395   -0.045576    0.000022  
      6.155566  0.879367  0.879367    -0.116395   -0.045576    0.000022  
      2.638100  4.396833  0.879367    -0.116395   -0.045576    0.000022  
      6.155566  4.396833  0.879367    -0.116395   -0.045576    0.000022  
      2.638100  0.879367  4.396833    -0.116395   -0.045576    0.000022  
      6.155566  0.879367  4.396833    -0.116395   -0.045576    0.000022  
      2.638100  4.396833  4.396833    -0.116395   -0.045576    0.000022  
      6.155566  4.396833  4.396833    -0.116395   -0.045576    0.000022  
      1.758733  1.758733  1.758733    -0.116395   -0.045576    0.000022  
      5.276199  1.758733  1.758733    -0.116395   -0.045576    0.000022  
      1.758733  5.276199  1.758733    -0.116395   -0.045576    0.000022  
      5.276199  5.276199  1.758733    -0.116395   -0.045576    0.000022  
      1.758733  1.758733  5.276199    -0.116395   -0.045576    0.000022  
      5.276199  1.758733  5.276199    -0.116395   -0.045576    0.000022  
      1.758733  5.276199  5.276199    -0.116395   -0.045576    0.000022  
      5.276199  5.276199  5.276199    -0.116395   -0.045576    0.000022  
 
 191 f  =    0.000006 THz     0.000036 2PiTHz    0.000192 cm-1     0.000024 meV
             X         Y         Z           dx          dy          dz
      0.879367  2.638100  0.879367     0.000548   -0.001459   -0.124990  
      4.396833  2.638100  0.879367     0.000548   -0.001459   -0.124990  
      0.879367  6.155566  0.879367     0.000548   -0.001459   -0.124990  
      4.396833  6.155566  0.879367     0.000548   -0.001459   -0.124990  
      0.879367  2.638100  4.396833     0.000548   -0.001459   -0.124990  
      4.396833  2.638100  4.396833     0.000548   -0.001459   -0.124990  
      0.879367  6.155566  4.396833     0.000548   -0.001459   -0.124990  
      4.396833  6.155566  4.396833     0.000548   -0.001459   -0.124990  
      0.000000  0.000000  1.758733     0.000548   -0.001459   -0.124990  
      3.517466  0.000000  1.758733     0.000548   -0.001459   -0.124990  
      0.000000  3.517466  1.758733     0.000548   -0.001459   -0.124990  
      3.517466  3.517466  1.758733     0.000548   -0.001459   -0.124990  
      0.000000  0.000000  5.276199     0.000548   -0.001459   -0.124990  
      3.517466  0.000000  5.276199     0.000548   -0.001459   -0.124990  
      0.000000  3.517466  5.276199     0.000548   -0.001459   -0.124990  
      3.517466  3.517466  5.276199     0.000548   -0.001459   -0.124990  
      0.879367  0.879367  2.638100     0.000548   -0.001459   -0.124990  
      4.396833  0.879367  2.638100     0.000548   -0.001459   -0.124990  
      0.879367  4.396833  2.638100     0.000548   -0.001459   -0.124990  
      4.396833  4.396833  2.638100     0.000548   -0.001459   -0.124990  
      0.879367  0.879367  6.155566     0.000548   -0.001459   -0.124990  
      4.396833  0.879367  6.155566     0.000548   -0.001459   -0.124990  
      0.879367  4.396833  6.155566     0.000548   -0.001459   -0.124990  
      4.396833  4.396833  6.155566     0.000548   -0.001459   -0.124990  
      0.000000  1.758733  0.000000     0.000548   -0.001459   -0.124990  
      3.517466  1.758733  0.000000     0.000548   -0.001459   -0.124990  
      0.000000  5.276199  0.000000     0.000548   -0.001459   -0.124990  
      3.517466  5.276199  0.000000     0.000548   -0.001459   -0.124990  
      0.000000  1.758733  3.517466     0.000548   -0.001459   -0.124990  
      3.517466  1.758733  3.517466     0.000548   -0.001459   -0.124990  
      0.000000  5.276199  3.517466     0.000548   -0.001459   -0.124990  
      3.517466  5.276199  3.517466     0.000548   -0.001459   -0.124990  
      2.638100  2.638100  2.638100     0.000548   -0.001459   -0.124990  
      6.155566  2.638100  2.638100     0.000548   -0.001459   -0.124990  
      2.638100  6.155566  2.638100     0.000548   -0.001459   -0.124990  
      6.155566  6.155566  2.638100     0.000548   -0.001459   -0.124990  
      2.638100  2.638100  6.155566     0.000548   -0.001459   -0.124990  
      6.155566  2.638100  6.155566     0.000548   -0.001459   -0.124990  
      2.638100  6.155566  6.155566     0.000548   -0.001459   -0.124990  
      6.155566  6.155566  6.155566     0.000548   -0.001459   -0.124990  
      1.758733  0.000000  0.000000     0.000548   -0.001459   -0.124990  
      5.276199  0.000000  0.000000     0.000548   -0.001459   -0.124990  
      1.758733  3.517466  0.000000     0.000548   -0.001459   -0.124990  
      5.276199  3.517466  0.000000     0.000548   -0.001459   -0.124990  
      1.758733  0.000000  3.517466     0.000548   -0.001459   -0.124990  
      5.276199  0.000000  3.517466     0.000548   -0.001459   -0.124990  
      1.758733  3.517466  3.517466     0.000548   -0.001459   -0.124990  
      5.276199  3.517466  3.517466     0.000548   -0.001459   -0.124990  
      2.638100  0.879367  0.879367     0.000548   -0.001459   -0.124990  
      6.155566  0.879367  0.879367     0.000548   -0.001459   -0.124990  
      2.638100  4.396833  0.879367     0.000548   -0.001459   -0.124990  
      6.155566  4.396833  0.879367     0.000548   -0.001459   -0.124990  
      2.638100  0.879367  4.396833     0.000548   -0.001459   -0.124990  
      6.155566  0.879367  4.396833     0.000548   -0.001459   -0.124990  
      2.638100  4.396833  4.396833     0.000548   -0.001459   -0.124990  
      6.155566  4.396833  4.396833     0.000548   -0.001459   -0.124990  
      1.758733  1.758733  1.758733     0.000548   -0.001459   -0.124990  
      5.276199  1.758733  1.758733     0.000548   -0.001459   -0.124990  
      1.758733  5.276199  1.758733     0.000548   -0.001459   -0.124990  
      5.276199  5.276199  1.758733     0.000548   -0.001459   -0.124990  
      1.758733  1.758733  5.276199     0.000548   -0.001459   -0.124990  
      5.276199  1.758733  5.276199     0.000548   -0.001459   -0.124990  
      1.758733  5.276199  5.276199     0.000548   -0.001459   -0.124990  
      5.276199  5.276199  5.276199     0.000548   -0.001459   -0.124990  
 
 192 f  =    0.000006 THz     0.000036 2PiTHz    0.000189 cm-1     0.000023 meV
             X         Y         Z           dx          dy          dz
      0.879367  2.638100  0.879367     0.045573   -0.116386    0.001558  
      4.396833  2.638100  0.879367     0.045573   -0.116386    0.001558  
      0.879367  6.155566  0.879367     0.045573   -0.116386    0.001558  
      4.396833  6.155566  0.879367     0.045573   -0.116386    0.001558  
      0.879367  2.638100  4.396833     0.045573   -0.116386    0.001558  
      4.396833  2.638100  4.396833     0.045573   -0.116386    0.001558  
      0.879367  6.155566  4.396833     0.045573   -0.116386    0.001558  
      4.396833  6.155566  4.396833     0.045573   -0.116386    0.001558  
      0.000000  0.000000  1.758733     0.045573   -0.116386    0.001558  
      3.517466  0.000000  1.758733     0.045573   -0.116386    0.001558  
      0.000000  3.517466  1.758733     0.045573   -0.116386    0.001558  
      3.517466  3.517466  1.758733     0.045573   -0.116386    0.001558  
      0.000000  0.000000  5.276199     0.045573   -0.116386    0.001558  
      3.517466  0.000000  5.276199     0.045573   -0.116386    0.001558  
      0.000000  3.517466  5.276199     0.045573   -0.116386    0.001558  
      3.517466  3.517466  5.276199     0.045573   -0.116386    0.001558  
      0.879367  0.879367  2.638100     0.045573   -0.116386    0.001558  
      4.396833  0.879367  2.638100     0.045573   -0.116386    0.001558  
      0.879367  4.396833  2.638100     0.045573   -0.116386    0.001558  
      4.396833  4.396833  2.638100     0.045573   -0.116386    0.001558  
      0.879367  0.879367  6.155566     0.045573   -0.116386    0.001558  
      4.396833  0.879367  6.155566     0.045573   -0.116386    0.001558  
      0.879367  4.396833  6.155566     0.045573   -0.116386    0.001558  
      4.396833  4.396833  6.155566     0.045573   -0.116386    0.001558  
      0.000000  1.758733  0.000000     0.045573   -0.116386    0.001558  
      3.517466  1.758733  0.000000     0.045573   -0.116386    0.001558  
      0.000000  5.276199  0.000000     0.045573   -0.116386    0.001558  
      3.517466  5.276199  0.000000     0.045573   -0.116386    0.001558  
      0.000000  1.758733  3.517466     0.045573   -0.116386    0.001558  
      3.517466  1.758733  3.517466     0.045573   -0.116386    0.001558  
      0.000000  5.276199  3.517466     0.045573   -0.116386    0.001558  
      3.517466  5.276199  3.517466     0.045573   -0.116386    0.001558  
      2.638100  2.638100  2.638100     0.045573   -0.116386    0.001558  
      6.155566  2.638100  2.638100     0.045573   -0.116386    0.001558  
      2.638100  6.155566  2.638100     0.045573   -0.116386    0.001558  
      6.155566  6.155566  2.638100     0.045573   -0.116386    0.001558  
      2.638100  2.638100  6.155566     0.045573   -0.116386    0.001558  
      6.155566  2.638100  6.155566     0.045573   -0.116386    0.001558  
      2.638100  6.155566  6.155566     0.045573   -0.116386    0.001558  
      6.155566  6.155566  6.155566     0.045573   -0.116386    0.001558  
      1.758733  0.000000  0.000000     0.045573   -0.116386    0.001558  
      5.276199  0.000000  0.000000     0.045573   -0.116386    0.001558  
      1.758733  3.517466  0.000000     0.045573   -0.116386    0.001558  
      5.276199  3.517466  0.000000     0.045573   -0.116386    0.001558  
      1.758733  0.000000  3.517466     0.045573   -0.116386    0.001558  
      5.276199  0.000000  3.517466     0.045573   -0.116386    0.001558  
      1.758733  3.517466  3.517466     0.045573   -0.116386    0.001558  
      5.276199  3.517466  3.517466     0.045573   -0.116386    0.001558  
      2.638100  0.879367  0.879367     0.045573   -0.116386    0.001558  
      6.155566  0.879367  0.879367     0.045573   -0.116386    0.001558  
      2.638100  4.396833  0.879367     0.045573   -0.116386    0.001558  
      6.155566  4.396833  0.879367     0.045573   -0.116386    0.001558  
      2.638100  0.879367  4.396833     0.045573   -0.116386    0.001558  
      6.155566  0.879367  4.396833     0.045573   -0.116386    0.001558  
      2.638100  4.396833  4.396833     0.045573   -0.116386    0.001558  
      6.155566  4.396833  4.396833     0.045573   -0.116386    0.001558  
      1.758733  1.758733  1.758733     0.045573   -0.116386    0.001558  
      5.276199  1.758733  1.758733     0.045573   -0.116386    0.001558  
      1.758733  5.276199  1.758733     0.045573   -0.116386    0.001558  
      5.276199  5.276199  1.758733     0.045573   -0.116386    0.001558  
      1.758733  1.758733  5.276199     0.045573   -0.116386    0.001558  
      5.276199  1.758733  5.276199     0.045573   -0.116386    0.001558  
      1.758733  5.276199  5.276199     0.045573   -0.116386    0.001558  
      5.276199  5.276199  5.276199     0.045573   -0.116386    0.001558  
 


--------------------------------------------------------------------------------------------------------



 ELASTIC MODULI CONTR FROM IONIC RELAXATION (kBar)
 Direction    XX          YY          ZZ          XY          YZ          ZX
 --------------------------------------------------------------------------------
 XX          -0.0000     -0.0000     -0.0000      0.0000      0.0000     -0.0000
 YY          -0.0000     -0.0000     -0.0000      0.0000      0.0000      0.0000
 ZZ          -0.0000     -0.0000     -0.0000      0.0000      0.0000     -0.0000
 XY           0.0000      0.0000      0.0000   -130.3341      0.0000      0.0000
 YZ           0.0000      0.0000      0.0000      0.0000   -130.3341     -0.0000
 ZX          -0.0000      0.0000     -0.0000      0.0000     -0.0000   -130.3341
 --------------------------------------------------------------------------------



--------------------------------------------------------------------------------------------------------


     LOOP+:  cpu time  830.4207: real time  830.7098
    4ORBIT:  cpu time    0.0000: real time    0.0000

 total amount of memory used by VASP MPI-rank0    68555. kBytes
=======================================================================

   base      :      30000. kBytes
   nonl-proj :      14745. kBytes
   fftplans  :       4537. kBytes
   grid      :       5806. kBytes
   one-center:        196. kBytes
   wavefun   :      13271. kBytes
 
  
  
 General timing and accounting informations for this job:
 ========================================================
  
                  Total CPU time used (sec):      838.833
                            User time (sec):      834.026
                          System time (sec):        4.807
                         Elapsed time (sec):      839.284
  
                   Maximum memory used (kb):      381148.
                   Average memory used (kb):           0.
  
                          Minor page faults:        39308
                          Major page faults:           35
                 Voluntary context switches:          846
