# Thermal properties / unit cell (natom)

unit:
  temperature:   K
  free_energy:   kJ/mol
  entropy:       J/K/mol
  heat_capacity: J/K/mol

natom: 8    
cutoff_frequency:    0.000
num_modes: 2654208
num_integrated_modes: 2654208

zero_point_energy:     144.8092274
high_T_entropy:        424.9723134

thermal_properties:
- temperature:         0.0000000
  free_energy:       144.8092274
  entropy:             0.0000000
  heat_capacity:       0.0000000
  energy:            144.8092274

- temperature:         2.0000000
  free_energy:       144.8092274
  entropy:             0.0000000
  heat_capacity:       0.0000000
  energy:            144.8092274

- temperature:         4.0000000
  free_energy:       144.8092274
  entropy:             0.0000069
  heat_capacity:       0.0000447
  energy:            144.8092275

- temperature:         6.0000000
  free_energy:       144.8092274
  entropy:             0.0000600
  heat_capacity:       0.0002643
  energy:            144.8092277

- temperature:         8.0000000
  free_energy:       144.8092271
  entropy:             0.0001886
  heat_capacity:       0.0006870
  energy:            144.8092286

- temperature:        10.0000000
  free_energy:       144.8092266
  entropy:             0.0004093
  heat_capacity:       0.0013642
  energy:            144.8092306

- temperature:        12.0000000
  free_energy:       144.8092254
  entropy:             0.0007412
  heat_capacity:       0.0023668
  energy:            144.8092343

- temperature:        14.0000000
  free_energy:       144.8092235
  entropy:             0.0012055
  heat_capacity:       0.0037651
  energy:            144.8092404

- temperature:        16.0000000
  free_energy:       144.8092205
  entropy:             0.0018243
  heat_capacity:       0.0056285
  energy:            144.8092497

- temperature:        18.0000000
  free_energy:       144.8092161
  entropy:             0.0026201
  heat_capacity:       0.0080262
  energy:            144.8092632

- temperature:        20.0000000
  free_energy:       144.8092099
  entropy:             0.0036155
  heat_capacity:       0.0110285
  energy:            144.8092822

- temperature:        22.0000000
  free_energy:       144.8092015
  entropy:             0.0048335
  heat_capacity:       0.0147065
  energy:            144.8093078

- temperature:        24.0000000
  free_energy:       144.8091904
  entropy:             0.0062972
  heat_capacity:       0.0191325
  energy:            144.8093415

- temperature:        26.0000000
  free_energy:       144.8091761
  entropy:             0.0080301
  heat_capacity:       0.0243805
  energy:            144.8093849

- temperature:        28.0000000
  free_energy:       144.8091581
  entropy:             0.0100561
  heat_capacity:       0.0305261
  energy:            144.8094396

- temperature:        30.0000000
  free_energy:       144.8091357
  entropy:             0.0123991
  heat_capacity:       0.0376466
  energy:            144.8095076

- temperature:        32.0000000
  free_energy:       144.8091082
  entropy:             0.0150839
  heat_capacity:       0.0458220
  energy:            144.8095909

- temperature:        34.0000000
  free_energy:       144.8090751
  entropy:             0.0181353
  heat_capacity:       0.0551344
  energy:            144.8096917

- temperature:        36.0000000
  free_energy:       144.8090354
  entropy:             0.0215788
  heat_capacity:       0.0656688
  energy:            144.8098123

- temperature:        38.0000000
  free_energy:       144.8089885
  entropy:             0.0254406
  heat_capacity:       0.0775137
  energy:            144.8099552

- temperature:        40.0000000
  free_energy:       144.8089334
  entropy:             0.0297472
  heat_capacity:       0.0907614
  energy:            144.8101233

- temperature:        42.0000000
  free_energy:       144.8088692
  entropy:             0.0345260
  heat_capacity:       0.1055084
  energy:            144.8103193

- temperature:        44.0000000
  free_energy:       144.8087949
  entropy:             0.0398051
  heat_capacity:       0.1218565
  energy:            144.8105464

- temperature:        46.0000000
  free_energy:       144.8087096
  entropy:             0.0456137
  heat_capacity:       0.1399134
  energy:            144.8108079

- temperature:        48.0000000
  free_energy:       144.8086121
  entropy:             0.0519817
  heat_capacity:       0.1597933
  energy:            144.8111072

- temperature:        50.0000000
  free_energy:       144.8085013
  entropy:             0.0589404
  heat_capacity:       0.1816177
  energy:            144.8114483

- temperature:        52.0000000
  free_energy:       144.8083759
  entropy:             0.0665222
  heat_capacity:       0.2055164
  energy:            144.8118351

- temperature:        54.0000000
  free_energy:       144.8082348
  entropy:             0.0747608
  heat_capacity:       0.2316277
  energy:            144.8122719

- temperature:        56.0000000
  free_energy:       144.8080764
  entropy:             0.0836918
  heat_capacity:       0.2600992
  energy:            144.8127632

- temperature:        58.0000000
  free_energy:       144.8078995
  entropy:             0.0933520
  heat_capacity:       0.2910878
  energy:            144.8133139

- temperature:        60.0000000
  free_energy:       144.8077025
  entropy:             0.1037800
  heat_capacity:       0.3247599
  energy:            144.8139293

- temperature:        62.0000000
  free_energy:       144.8074839
  entropy:             0.1150164
  heat_capacity:       0.3612915
  energy:            144.8146149

- temperature:        64.0000000
  free_energy:       144.8072419
  entropy:             0.1271036
  heat_capacity:       0.4008674
  energy:            144.8153765

- temperature:        66.0000000
  free_energy:       144.8069749
  entropy:             0.1400857
  heat_capacity:       0.4436810
  energy:            144.8162205

- temperature:        68.0000000
  free_energy:       144.8066809
  entropy:             0.1540090
  heat_capacity:       0.4899333
  energy:            144.8171535

- temperature:        70.0000000
  free_energy:       144.8063582
  entropy:             0.1689217
  heat_capacity:       0.5398318
  energy:            144.8181827

- temperature:        72.0000000
  free_energy:       144.8060045
  entropy:             0.1848735
  heat_capacity:       0.5935898
  energy:            144.8193154

- temperature:        74.0000000
  free_energy:       144.8056179
  entropy:             0.2019164
  heat_capacity:       0.6514248
  energy:            144.8205597

- temperature:        76.0000000
  free_energy:       144.8051961
  entropy:             0.2201038
  heat_capacity:       0.7135573
  energy:            144.8219240

- temperature:        78.0000000
  free_energy:       144.8047367
  entropy:             0.2394907
  heat_capacity:       0.7802095
  energy:            144.8234170

- temperature:        80.0000000
  free_energy:       144.8042373
  entropy:             0.2601336
  heat_capacity:       0.8516035
  energy:            144.8250480

- temperature:        82.0000000
  free_energy:       144.8036953
  entropy:             0.2820903
  heat_capacity:       0.9279605
  energy:            144.8268267

- temperature:        84.0000000
  free_energy:       144.8031080
  entropy:             0.3054198
  heat_capacity:       1.0094990
  energy:            144.8287633

- temperature:        86.0000000
  free_energy:       144.8024727
  entropy:             0.3301818
  heat_capacity:       1.0964335
  energy:            144.8308683

- temperature:        88.0000000
  free_energy:       144.8017863
  entropy:             0.3564370
  heat_capacity:       1.1889737
  energy:            144.8331528

- temperature:        90.0000000
  free_energy:       144.8010459
  entropy:             0.3842465
  heat_capacity:       1.2873227
  energy:            144.8356281

- temperature:        92.0000000
  free_energy:       144.8002482
  entropy:             0.4136719
  heat_capacity:       1.3916769
  energy:            144.8383061

- temperature:        94.0000000
  free_energy:       144.7993901
  entropy:             0.4447748
  heat_capacity:       1.5022242
  energy:            144.8411989

- temperature:        96.0000000
  free_energy:       144.7984680
  entropy:             0.4776168
  heat_capacity:       1.6191437
  energy:            144.8443192

- temperature:        98.0000000
  free_energy:       144.7974784
  entropy:             0.5122595
  heat_capacity:       1.7426053
  energy:            144.8476798

- temperature:       100.0000000
  free_energy:       144.7964177
  entropy:             0.5487638
  heat_capacity:       1.8727685
  energy:            144.8512941

- temperature:       102.0000000
  free_energy:       144.7952821
  entropy:             0.5871903
  heat_capacity:       2.0097826
  energy:            144.8551755

- temperature:       104.0000000
  free_energy:       144.7940676
  entropy:             0.6275986
  heat_capacity:       2.1537863
  energy:            144.8593379

- temperature:       106.0000000
  free_energy:       144.7927703
  entropy:             0.6700477
  heat_capacity:       2.3049074
  energy:            144.8637954

- temperature:       108.0000000
  free_energy:       144.7913860
  entropy:             0.7145954
  heat_capacity:       2.4632628
  energy:            144.8685623

- temperature:       110.0000000
  free_energy:       144.7899105
  entropy:             0.7612983
  heat_capacity:       2.6289584
  energy:            144.8736533

- temperature:       112.0000000
  free_energy:       144.7883394
  entropy:             0.8102121
  heat_capacity:       2.8020896
  energy:            144.8790831

- temperature:       114.0000000
  free_energy:       144.7866681
  entropy:             0.8613908
  heat_capacity:       2.9827409
  energy:            144.8848667

- temperature:       116.0000000
  free_energy:       144.7848923
  entropy:             0.9148870
  heat_capacity:       3.1709868
  energy:            144.8910192

- temperature:       118.0000000
  free_energy:       144.7830070
  entropy:             0.9707519
  heat_capacity:       3.3668915
  energy:            144.8975558

- temperature:       120.0000000
  free_energy:       144.7810076
  entropy:             1.0290352
  heat_capacity:       3.5705094
  energy:            144.9044919

- temperature:       122.0000000
  free_energy:       144.7788892
  entropy:             1.0897846
  heat_capacity:       3.7818859
  energy:            144.9118430

- temperature:       124.0000000
  free_energy:       144.7766468
  entropy:             1.1530466
  heat_capacity:       4.0010571
  energy:            144.9196246

- temperature:       126.0000000
  free_energy:       144.7742753
  entropy:             1.2188655
  heat_capacity:       4.2280506
  energy:            144.9278524

- temperature:       128.0000000
  free_energy:       144.7717696
  entropy:             1.2872844
  heat_capacity:       4.4628860
  energy:            144.9365420

- temperature:       130.0000000
  free_energy:       144.7691244
  entropy:             1.3583441
  heat_capacity:       4.7055751
  energy:            144.9457092

- temperature:       132.0000000
  free_energy:       144.7663345
  entropy:             1.4320841
  heat_capacity:       4.9561224
  energy:            144.9553696

- temperature:       134.0000000
  free_energy:       144.7633943
  entropy:             1.5085419
  heat_capacity:       5.2145255
  energy:            144.9655389

- temperature:       136.0000000
  free_energy:       144.7602985
  entropy:             1.5877532
  heat_capacity:       5.4807757
  energy:            144.9762329

- temperature:       138.0000000
  free_energy:       144.7570414
  entropy:             1.6697522
  heat_capacity:       5.7548580
  energy:            144.9874672

- temperature:       140.0000000
  free_energy:       144.7536176
  entropy:             1.7545712
  heat_capacity:       6.0367519
  energy:            144.9992575

- temperature:       142.0000000
  free_energy:       144.7500212
  entropy:             1.8422408
  heat_capacity:       6.3264314
  energy:            145.0116194

- temperature:       144.0000000
  free_energy:       144.7462467
  entropy:             1.9327899
  heat_capacity:       6.6238658
  energy:            145.0245684

- temperature:       146.0000000
  free_energy:       144.7422881
  entropy:             2.0262459
  heat_capacity:       6.9290194
  energy:            145.0381200

- temperature:       148.0000000
  free_energy:       144.7381398
  entropy:             2.1226343
  heat_capacity:       7.2418523
  energy:            145.0522896

- temperature:       150.0000000
  free_energy:       144.7337956
  entropy:             2.2219794
  heat_capacity:       7.5623207
  energy:            145.0670925

- temperature:       152.0000000
  free_energy:       144.7292499
  entropy:             2.3243035
  heat_capacity:       7.8903768
  energy:            145.0825440

- temperature:       154.0000000
  free_energy:       144.7244964
  entropy:             2.4296276
  heat_capacity:       8.2259692
  energy:            145.0986591

- temperature:       156.0000000
  free_energy:       144.7195293
  entropy:             2.5379713
  heat_capacity:       8.5690432
  energy:            145.1154528

- temperature:       158.0000000
  free_energy:       144.7143425
  entropy:             2.6493524
  heat_capacity:       8.9195413
  energy:            145.1329402

- temperature:       160.0000000
  free_energy:       144.7089299
  entropy:             2.7637877
  heat_capacity:       9.2774025
  energy:            145.1511359

- temperature:       162.0000000
  free_energy:       144.7032853
  entropy:             2.8812923
  heat_capacity:       9.6425634
  energy:            145.1700547

- temperature:       164.0000000
  free_energy:       144.6974027
  entropy:             3.0018801
  heat_capacity:      10.0149579
  energy:            145.1897110

- temperature:       166.0000000
  free_energy:       144.6912757
  entropy:             3.1255636
  heat_capacity:      10.3945174
  energy:            145.2101193

- temperature:       168.0000000
  free_energy:       144.6848983
  entropy:             3.2523539
  heat_capacity:      10.7811710
  energy:            145.2312938

- temperature:       170.0000000
  free_energy:       144.6782642
  entropy:             3.3822612
  heat_capacity:      11.1748456
  energy:            145.2532486

- temperature:       172.0000000
  free_energy:       144.6713672
  entropy:             3.5152942
  heat_capacity:      11.5754658
  energy:            145.2759978

- temperature:       174.0000000
  free_energy:       144.6642010
  entropy:             3.6514604
  heat_capacity:      11.9829543
  energy:            145.2995551

- temperature:       176.0000000
  free_energy:       144.6567593
  entropy:             3.7907664
  heat_capacity:      12.3972319
  energy:            145.3239341

- temperature:       178.0000000
  free_energy:       144.6490358
  entropy:             3.9332173
  heat_capacity:      12.8182175
  energy:            145.3491485

- temperature:       180.0000000
  free_energy:       144.6410243
  entropy:             4.0788174
  heat_capacity:      13.2458283
  energy:            145.3752114

- temperature:       182.0000000
  free_energy:       144.6327184
  entropy:             4.2275699
  heat_capacity:      13.6799795
  energy:            145.4021362

- temperature:       184.0000000
  free_energy:       144.6241119
  entropy:             4.3794768
  heat_capacity:      14.1205850
  energy:            145.4299357

- temperature:       186.0000000
  free_energy:       144.6151984
  entropy:             4.5345393
  heat_capacity:      14.5675569
  energy:            145.4586227

- temperature:       188.0000000
  free_energy:       144.6059717
  entropy:             4.6927575
  heat_capacity:      15.0208058
  energy:            145.4882101

- temperature:       190.0000000
  free_energy:       144.5964253
  entropy:             4.8541305
  heat_capacity:      15.4802409
  energy:            145.5187101

- temperature:       192.0000000
  free_energy:       144.5865530
  entropy:             5.0186566
  heat_capacity:      15.9457699
  energy:            145.5501351

- temperature:       194.0000000
  free_energy:       144.5763486
  entropy:             5.1863330
  heat_capacity:      16.4172991
  energy:            145.5824972

- temperature:       196.0000000
  free_energy:       144.5658056
  entropy:             5.3571563
  heat_capacity:      16.8947337
  energy:            145.6158082

- temperature:       198.0000000
  free_energy:       144.5549178
  entropy:             5.5311219
  heat_capacity:      17.3779773
  energy:            145.6500800

- temperature:       200.0000000
  free_energy:       144.5436790
  entropy:             5.7082246
  heat_capacity:      17.8669325
  energy:            145.6853239

- temperature:       202.0000000
  free_energy:       144.5320829
  entropy:             5.8884584
  heat_capacity:      18.3615006
  energy:            145.7215515

- temperature:       204.0000000
  free_energy:       144.5201231
  entropy:             6.0718163
  heat_capacity:      18.8615820
  energy:            145.7587736

- temperature:       206.0000000
  free_energy:       144.5077935
  entropy:             6.2582906
  heat_capacity:      19.3670759
  energy:            145.7970014

- temperature:       208.0000000
  free_energy:       144.4950879
  entropy:             6.4478731
  heat_capacity:      19.8778804
  energy:            145.8362455

- temperature:       210.0000000
  free_energy:       144.4820000
  entropy:             6.6405544
  heat_capacity:      20.3938928
  energy:            145.8765164

- temperature:       212.0000000
  free_energy:       144.4685236
  entropy:             6.8363247
  heat_capacity:      20.9150094
  energy:            145.9178244

- temperature:       214.0000000
  free_energy:       144.4546526
  entropy:             7.0351736
  heat_capacity:      21.4411258
  energy:            145.9601798

- temperature:       216.0000000
  free_energy:       144.4403809
  entropy:             7.2370896
  heat_capacity:      21.9721367
  energy:            146.0035922

- temperature:       218.0000000
  free_energy:       144.4257022
  entropy:             7.4420609
  heat_capacity:      22.5079361
  energy:            146.0480715

- temperature:       220.0000000
  free_energy:       144.4106106
  entropy:             7.6500750
  heat_capacity:      23.0484173
  energy:            146.0936271

- temperature:       222.0000000
  free_energy:       144.3950999
  entropy:             7.8611185
  heat_capacity:      23.5934730
  energy:            146.1402682

- temperature:       224.0000000
  free_energy:       144.3791641
  entropy:             8.0751779
  heat_capacity:      24.1429954
  energy:            146.1880039

- temperature:       226.0000000
  free_energy:       144.3627972
  entropy:             8.2922386
  heat_capacity:      24.6968763
  energy:            146.2368431

- temperature:       228.0000000
  free_energy:       144.3459932
  entropy:             8.5122856
  heat_capacity:      25.2550069
  energy:            146.2867943

- temperature:       230.0000000
  free_energy:       144.3287461
  entropy:             8.7353036
  heat_capacity:      25.8172781
  energy:            146.3378659

- temperature:       232.0000000
  free_energy:       144.3110500
  entropy:             8.9612763
  heat_capacity:      26.3835806
  energy:            146.3900661

- temperature:       234.0000000
  free_energy:       144.2928990
  entropy:             9.1901873
  heat_capacity:      26.9538047
  energy:            146.4434028

- temperature:       236.0000000
  free_energy:       144.2742873
  entropy:             9.4220194
  heat_capacity:      27.5278407
  energy:            146.4978838

- temperature:       238.0000000
  free_energy:       144.2552090
  entropy:             9.6567549
  heat_capacity:      28.1055786
  energy:            146.5535167

- temperature:       240.0000000
  free_energy:       144.2356583
  entropy:             9.8943759
  heat_capacity:      28.6869085
  energy:            146.6103086

- temperature:       242.0000000
  free_energy:       144.2156296
  entropy:            10.1348638
  heat_capacity:      29.2717205
  energy:            146.6682666

- temperature:       244.0000000
  free_energy:       144.1951170
  entropy:            10.3781996
  heat_capacity:      29.8599048
  energy:            146.7273977

- temperature:       246.0000000
  free_energy:       144.1741149
  entropy:            10.6243639
  heat_capacity:      30.4513517
  energy:            146.7877084

- temperature:       248.0000000
  free_energy:       144.1526176
  entropy:            10.8733369
  heat_capacity:      31.0459515
  energy:            146.8492052

- temperature:       250.0000000
  free_energy:       144.1306197
  entropy:            11.1250982
  heat_capacity:      31.6435952
  energy:            146.9118942

- temperature:       252.0000000
  free_energy:       144.1081154
  entropy:            11.3796274
  heat_capacity:      32.2441738
  energy:            146.9757815

- temperature:       254.0000000
  free_energy:       144.0850993
  entropy:            11.6369035
  heat_capacity:      32.8475787
  energy:            147.0408728

- temperature:       256.0000000
  free_energy:       144.0615660
  entropy:            11.8969050
  heat_capacity:      33.4537018
  energy:            147.1071737

- temperature:       258.0000000
  free_energy:       144.0375099
  entropy:            12.1596103
  heat_capacity:      34.0624355
  energy:            147.1746894

- temperature:       260.0000000
  free_energy:       144.0129258
  entropy:            12.4249974
  heat_capacity:      34.6736726
  energy:            147.2434251

- temperature:       262.0000000
  free_energy:       143.9878082
  entropy:            12.6930439
  heat_capacity:      35.2873068
  energy:            147.3133857

- temperature:       264.0000000
  free_energy:       143.9621518
  entropy:            12.9637273
  heat_capacity:      35.9032320
  energy:            147.3845758

- temperature:       266.0000000
  free_energy:       143.9359515
  entropy:            13.2370246
  heat_capacity:      36.5213432
  energy:            147.4570000

- temperature:       268.0000000
  free_energy:       143.9092020
  entropy:            13.5129126
  heat_capacity:      37.1415359
  energy:            147.5306626

- temperature:       270.0000000
  free_energy:       143.8818981
  entropy:            13.7913680
  heat_capacity:      37.7637066
  energy:            147.6055675

- temperature:       272.0000000
  free_energy:       143.8540348
  entropy:            14.0723670
  heat_capacity:      38.3877523
  energy:            147.6817187

- temperature:       274.0000000
  free_energy:       143.8256070
  entropy:            14.3558858
  heat_capacity:      39.0135712
  energy:            147.7591197

- temperature:       276.0000000
  free_energy:       143.7966096
  entropy:            14.6419001
  heat_capacity:      39.6410622
  energy:            147.8377741

- temperature:       278.0000000
  free_energy:       143.7670377
  entropy:            14.9303858
  heat_capacity:      40.2701254
  energy:            147.9176850

- temperature:       280.0000000
  free_energy:       143.7368864
  entropy:            15.2213182
  heat_capacity:      40.9006616
  energy:            147.9988555

- temperature:       282.0000000
  free_energy:       143.7061509
  entropy:            15.5146727
  heat_capacity:      41.5325728
  energy:            148.0812886

- temperature:       284.0000000
  free_energy:       143.6748262
  entropy:            15.8104244
  heat_capacity:      42.1657620
  energy:            148.1649867

- temperature:       286.0000000
  free_energy:       143.6429076
  entropy:            16.1085483
  heat_capacity:      42.8001334
  energy:            148.2499524

- temperature:       288.0000000
  free_energy:       143.6103904
  entropy:            16.4090193
  heat_capacity:      43.4355922
  energy:            148.3361879

- temperature:       290.0000000
  free_energy:       143.5772699
  entropy:            16.7118120
  heat_capacity:      44.0720448
  energy:            148.4236954

- temperature:       292.0000000
  free_energy:       143.5435416
  entropy:            17.0169010
  heat_capacity:      44.7093988
  energy:            148.5124767

- temperature:       294.0000000
  free_energy:       143.5092008
  entropy:            17.3242610
  heat_capacity:      45.3475629
  energy:            148.6025336

- temperature:       296.0000000
  free_energy:       143.4742431
  entropy:            17.6338661
  heat_capacity:      45.9864473
  energy:            148.6938675

- temperature:       298.0000000
  free_energy:       143.4386639
  entropy:            17.9456909
  heat_capacity:      46.6259632
  energy:            148.7864798

- temperature:       300.0000000
  free_energy:       143.4024589
  entropy:            18.2597094
  heat_capacity:      47.2660231
  energy:            148.8803717

- temperature:       302.0000000
  free_energy:       143.3656236
  entropy:            18.5758959
  heat_capacity:      47.9065408
  energy:            148.9755442

- temperature:       304.0000000
  free_energy:       143.3281538
  entropy:            18.8942245
  heat_capacity:      48.5474316
  energy:            149.0719981

- temperature:       306.0000000
  free_energy:       143.2900453
  entropy:            19.2146692
  heat_capacity:      49.1886118
  energy:            149.1697341

- temperature:       308.0000000
  free_energy:       143.2512938
  entropy:            19.5372042
  heat_capacity:      49.8299993
  energy:            149.2687527

- temperature:       310.0000000
  free_energy:       143.2118951
  entropy:            19.8618034
  heat_capacity:      50.4715132
  energy:            149.3690542

- temperature:       312.0000000
  free_energy:       143.1718452
  entropy:            20.1884409
  heat_capacity:      51.1130740
  energy:            149.4706387

- temperature:       314.0000000
  free_energy:       143.1311400
  entropy:            20.5170906
  heat_capacity:      51.7546036
  energy:            149.5735064

- temperature:       316.0000000
  free_energy:       143.0897755
  entropy:            20.8477265
  heat_capacity:      52.3960253
  energy:            149.6776571

- temperature:       318.0000000
  free_energy:       143.0477478
  entropy:            21.1803227
  heat_capacity:      53.0372636
  energy:            149.7830904

- temperature:       320.0000000
  free_energy:       143.0050529
  entropy:            21.5148533
  heat_capacity:      53.6782447
  energy:            149.8898060

- temperature:       322.0000000
  free_energy:       142.9616871
  entropy:            21.8512922
  heat_capacity:      54.3188959
  energy:            149.9978032

- temperature:       324.0000000
  free_energy:       142.9176465
  entropy:            22.1896135
  heat_capacity:      54.9591459
  energy:            150.1070813

- temperature:       326.0000000
  free_energy:       142.8729274
  entropy:            22.5297915
  heat_capacity:      55.5989251
  energy:            150.2176394

- temperature:       328.0000000
  free_energy:       142.8275261
  entropy:            22.8718003
  heat_capacity:      56.2381650
  energy:            150.3294766

- temperature:       330.0000000
  free_energy:       142.7814390
  entropy:            23.2156142
  heat_capacity:      56.8767985
  energy:            150.4425917

- temperature:       332.0000000
  free_energy:       142.7346625
  entropy:            23.5612075
  heat_capacity:      57.5147602
  energy:            150.5569834

- temperature:       334.0000000
  free_energy:       142.6871930
  entropy:            23.9085546
  heat_capacity:      58.1519856
  energy:            150.6726503

- temperature:       336.0000000
  free_energy:       142.6390271
  entropy:            24.2576300
  heat_capacity:      58.7884120
  energy:            150.7895908

- temperature:       338.0000000
  free_energy:       142.5901613
  entropy:            24.6084082
  heat_capacity:      59.4239779
  energy:            150.9078033

- temperature:       340.0000000
  free_energy:       142.5405924
  entropy:            24.9608639
  heat_capacity:      60.0586233
  energy:            151.0272861

- temperature:       342.0000000
  free_energy:       142.4903168
  entropy:            25.3149719
  heat_capacity:      60.6922893
  energy:            151.1480372

- temperature:       344.0000000
  free_energy:       142.4393314
  entropy:            25.6707069
  heat_capacity:      61.3249186
  energy:            151.2700546

- temperature:       346.0000000
  free_energy:       142.3876329
  entropy:            26.0280440
  heat_capacity:      61.9564553
  energy:            151.3933361

- temperature:       348.0000000
  free_energy:       142.3352182
  entropy:            26.3869582
  heat_capacity:      62.5868445
  energy:            151.5178796

- temperature:       350.0000000
  free_energy:       142.2820840
  entropy:            26.7474248
  heat_capacity:      63.2160331
  energy:            151.6436827

- temperature:       352.0000000
  free_energy:       142.2282274
  entropy:            27.1094189
  heat_capacity:      63.8439689
  energy:            151.7707429

- temperature:       354.0000000
  free_energy:       142.1736453
  entropy:            27.4729162
  heat_capacity:      64.4706013
  energy:            151.8990577

- temperature:       356.0000000
  free_energy:       142.1183348
  entropy:            27.8378922