<?xml version="1.0" encoding="ISO-8859-1"?>
<modeling>
 <generator>
  <i name="program" type="string">vasp </i>
  <i name="version" type="string">5.4.4.18Apr17-6-g9f103f2a35  </i>
  <i name="subversion" type="string">(build Mar 12 2022 03:36:41) complex            parallel </i>
  <i name="platform" type="string">IFC19.0.3.199_CrayMPICH7.7.19 </i>
  <i name="date" type="string">2022 12 02 </i>
  <i name="time" type="string">01:26:26 </i>
 </generator>
 <incar>
  <i type="string" name="PREC">accurate</i>
  <i type="int" name="IALGO">    38</i>
  <i type="logical" name="ADDGRID"> T  </i>
  <i type="int" name="IBRION">     8</i>
  <i name="EDIFF">      0.00000001</i>
  <i type="logical" name="LREAL"> F  </i>
  <i type="int" name="ISMEAR">     0</i>
  <i name="SIGMA">      0.06000000</i>
  <i type="logical" name="LWAVE"> F  </i>
  <i type="logical" name="LCHARG"> F  </i>
  <v type="int" name="KPOINT_BSE">    -1     0     0     0</v>
 </incar>
 <structure name="primitive_cell" >
  <crystal>
   <varray name="basis" >
    <v>       1.75873312       1.75873312      -0.00000000 </v>
    <v>       1.75873312       0.00000000      -1.75873312 </v>
    <v>       0.00000000       1.75873312      -1.75873312 </v>
   </varray>
   <i name="volume">     10.88002327 </i>
   <varray name="rec_basis" >
    <v>       0.28429555       0.28429555       0.28429555 </v>
    <v>       0.28429555      -0.28429555      -0.28429555 </v>
    <v>      -0.28429555       0.28429555      -0.28429555 </v>
   </varray>
  </crystal>
  <varray name="positions" >
   <v>       0.25000000       0.25000000       0.25000000 </v>
   <v>      -0.50000000      -0.50000000      -0.50000000 </v>
  </varray>
 </structure>
 <varray name="primitive_index" >
  <v type="int" >        1 </v>
  <v type="int" >       11 </v>
 </varray>
 <kpoints>
  <generation param="Gamma">
   <v type="int" name="divisions">       6        6        6 </v>
   <v name="usershift">      0.00000000       0.00000000       0.00000000 </v>
   <v name="genvec1">      0.16666667       0.00000000       0.00000000 </v>
   <v name="genvec2">      0.00000000       0.16666667       0.00000000 </v>
   <v name="genvec3">      0.00000000       0.00000000       0.16666667 </v>
   <v name="shift">      0.00000000       0.00000000       0.00000000 </v>
  </generation>
  <varray name="kpointlist" >
   <v>       0.00000000       0.00000000       0.00000000 </v>
   <v>       0.16666667       0.00000000       0.00000000 </v>
   <v>       0.33333333       0.00000000       0.00000000 </v>
   <v>       0.50000000       0.00000000       0.00000000 </v>
   <v>       0.16666667       0.16666667       0.00000000 </v>
   <v>       0.33333333       0.16666667       0.00000000 </v>
   <v>       0.50000000       0.16666667       0.00000000 </v>
   <v>       0.33333333       0.33333333       0.00000000 </v>
   <v>       0.50000000       0.33333333       0.00000000 </v>
   <v>       0.50000000       0.50000000       0.00000000 </v>
   <v>       0.16666667       0.16666667       0.16666667 </v>
   <v>       0.33333333       0.16666667       0.16666667 </v>
   <v>       0.50000000       0.16666667       0.16666667 </v>
   <v>       0.33333333       0.33333333       0.16666667 </v>
   <v>       0.50000000       0.33333333       0.16666667 </v>
   <v>       0.50000000       0.50000000       0.16666667 </v>
   <v>       0.33333333       0.33333333       0.33333333 </v>
   <v>       0.50000000       0.33333333       0.33333333 </v>
   <v>       0.50000000       0.50000000       0.33333333 </v>
   <v>       0.50000000       0.50000000       0.50000000 </v>
  </varray>
  <varray name="weights" >
   <v>       0.00462963 </v>
   <v>       0.02777778 </v>
   <v>       0.02777778 </v>
   <v>       0.01388889 </v>
   <v>       0.05555556 </v>
   <v>       0.11111111 </v>
   <v>       0.05555556 </v>
   <v>       0.05555556 </v>
   <v>       0.05555556 </v>
   <v>       0.01388889 </v>
   <v>       0.03703704 </v>
   <v>       0.11111111 </v>
   <v>       0.05555556 </v>
   <v>       0.11111111 </v>
   <v>       0.11111111 </v>
   <v>       0.02777778 </v>
   <v>       0.03703704 </v>
   <v>       0.05555556 </v>
   <v>       0.02777778 </v>
   <v>       0.00462963 </v>
  </varray>
 </kpoints>
 <parameters>
  <separator name="general" >
   <i type="string" name="SYSTEM">unknown system</i>
   <i type="logical" name="LCOMPAT"> F  </i>
  </separator>
  <separator name="electronic" >
   <i type="string" name="PREC">accura</i>
   <i name="ENMAX">    400.00000000</i>
   <i name="ENAUG">    644.87300000</i>
   <i name="EDIFF">      0.00000001</i>
   <i type="int" name="IALGO">    38</i>
   <i type="int" name="IWAVPR">    11</i>
   <i type="int" name="NBANDS">   192</i>
   <i name="NELECT">    256.00000000</i>
   <i type="int" name="TURBO">     0</i>
   <i type="int" name="IRESTART">     0</i>
   <i type="int" name="NREBOOT">     0</i>
   <i type="int" name="NMIN">     0</i>
   <i name="EREF">      0.00000000</i>
   <separator name="electronic smearing" >
    <i type="int" name="ISMEAR">     0</i>
    <i name="SIGMA">      0.06000000</i>
    <i name="KSPACING">      0.50000000</i>
    <i type="logical" name="KGAMMA"> T  </i>
   </separator>
   <separator name="electronic projectors" >
    <i type="logical" name="LREAL"> F  </i>
    <v name="ROPT">      0.00000000</v>
    <i type="int" name="LMAXPAW">  -100</i>
    <i type="int" name="LMAXMIX">     2</i>
    <i type="logical" name="NLSPLINE"> F  </i>
   </separator>
   <separator name="electronic startup" >
    <i type="int" name="ISTART">     0</i>
    <i type="int" name="ICHARG">     2</i>
    <i type="int" name="INIWAV">     1</i>
   </separator>
   <separator name="electronic spin" >
    <i type="int" name="ISPIN">     1</i>
    <i type="logical" name="LNONCOLLINEAR"> F  </i>
    <v name="MAGMOM">      1.00000000      1.00000000      1.00000000      1.00000000      1.00000000      1.00000000      1.00000000      1.00000000      1.00000000      1.00000000      1.00000000      1.00000000      1.00000000      1.00000000      1.00000000      1.00000000      1.00000000      1.00000000      1.00000000      1.00000000
      1.00000000      1.00000000      1.00000000      1.00000000      1.00000000      1.00000000      1.00000000      1.00000000      1.00000000      1.00000000      1.00000000      1.00000000      1.00000000      1.00000000      1.00000000      1.00000000      1.00000000      1.00000000      1.00000000      1.00000000
      1.00000000      1.00000000      1.00000000      1.00000000      1.00000000      1.00000000      1.00000000      1.00000000      1.00000000      1.00000000      1.00000000      1.00000000      1.00000000      1.00000000      1.00000000      1.00000000      1.00000000      1.00000000      1.00000000      1.00000000
      1.00000000      1.00000000      1.00000000      1.00000000</v>
    <i name="NUPDOWN">     -1.00000000</i>
    <i type="logical" name="LSORBIT"> F  </i>
    <v name="SAXIS">      0.00000000      0.00000000      1.00000000</v>
    <i type="logical" name="LSPIRAL"> F  </i>
    <v name="QSPIRAL">      0.00000000      0.00000000      0.00000000</v>
    <i type="logical" name="LZEROZ"> F  </i>
   </separator>
   <separator name="electronic exchange-correlation" >
    <i type="logical" name="LASPH"> F  </i>
    <i type="logical" name="LMETAGGA"> F  </i>
   </separator>
   <separator name="electronic convergence" >
    <i type="int" name="NELM">    60</i>
    <i type="int" name="NELMDL">    -5</i>
    <i type="int" name="NELMIN">     2</i>
    <i name="ENINI">    400.00000000</i>
    <separator name="electronic convergence detail" >
     <i type="logical" name="LDIAG"> T  </i>
     <i type="logical" name="LSUBROT"> F  </i>
     <i name="WEIMIN">      0.00100000</i>
     <i name="EBREAK">      0.00000000</i>
     <i name="DEPER">      0.30000000</i>
     <i type="int" name="NRMM">     4</i>
     <i name="TIME">      0.40000000</i>
    </separator>
   </separator>
   <separator name="electronic mixer" >
    <i name="AMIX">      0.40000000</i>
    <i name="BMIX">      1.00000000</i>
    <i name="AMIN">      0.10000000</i>
    <i name="AMIX_MAG">      1.60000000</i>
    <i name="BMIX_MAG">      1.00000000</i>
    <separator name="electronic mixer details" >
     <i type="int" name="IMIX">     4</i>
     <i type="logical" name="MIXFIRST"> F  </i>
     <i type="int" name="MAXMIX">   -45</i>
     <i name="WC">    100.00000000</i>
     <i type="int" name="INIMIX">     1</i>
     <i type="int" name="MIXPRE">     1</i>
     <i type="int" name="MREMOVE">     5</i>
    </separator>
   </separator>
   <separator name="electronic dipolcorrection" >
    <i type="logical" name="LDIPOL"> F  </i>
    <i type="logical" name="LMONO"> F  </i>
    <i type="int" name="IDIPOL">     0</i>
    <i name="EPSILON">      1.00000000</i>
    <v name="DIPOL">   -100.00000000   -100.00000000   -100.00000000</v>
    <i name="EFIELD">      0.00000000</i>
   </separator>
  </separator>
  <separator name="grids" >
   <i type="int" name="NGX">    48</i>
   <i type="int" name="NGY">    48</i>
   <i type="int" name="NGZ">    48</i>
   <i type="int" name="NGXF">    96</i>
   <i type="int" name="NGYF">    96</i>
   <i type="int" name="NGZF">    96</i>
   <i type="logical" name="ADDGRID"> T  </i>
  </separator>
  <separator name="ionic" >
   <i type="int" name="NSW">     1</i>
   <i type="int" name="IBRION">     8</i>
   <i type="int" name="MDALGO">     0</i>
   <i type="int" name="ISIF">     2</i>
   <i name="PSTRESS">      0.00000000</i>
   <i name="EDIFFG">      0.00000010</i>
   <i type="int" name="NFREE">     0</i>
   <i name="POTIM">      0.50000000</i>
   <i name="SMASS">     -3.00000000</i>
   <i name="SCALEE">      1.00000000</i>
  </separator>
  <separator name="ionic md" >
   <i name="TEBEG">      0.00010000</i>
   <i name="TEEND">      0.00010000</i>
   <i type="int" name="NBLOCK">     1</i>
   <i type="int" name="KBLOCK">     1</i>
   <i type="int" name="NPACO">   256</i>
   <i name="APACO">     16.00000000</i>
  </separator>
  <separator name="symmetry" >
   <i type="int" name="ISYM">     2</i>
   <i name="SYMPREC">      0.00001000</i>
  </separator>
  <separator name="dos" >
   <i type="int" name="LORBIT">     0</i>
   <v name="RWIGS">     -1.00000000</v>
   <i type="int" name="NEDOS">   301</i>
   <i name="EMIN">     10.00000000</i>
   <i name="EMAX">    -10.00000000</i>
   <i name="EFERMI">      0.00000000</i>
  </separator>
  <separator name="writing" >
   <i type="int" name="NWRITE">     2</i>
   <i type="logical" name="LWAVE"> F  </i>
   <i type="logical" name="LDOWNSAMPLE"> F  </i>
   <i type="logical" name="LCHARG"> F  </i>
   <i type="logical" name="LPARD"> F  </i>
   <i type="logical" name="LVTOT"> F  </i>
   <i type="logical" name="LVHAR"> F  </i>
   <i type="logical" name="LELF"> F  </i>
   <i type="logical" name="LOPTICS"> F  </i>
   <v name="STM">      0.00000000      0.00000000      0.00000000      0.00000000      0.00000000      0.00000000      0.00000000</v>
  </separator>
  <separator name="performance" >
   <i type="int" name="NPAR">    32</i>
   <i type="int" name="NSIM">     4</i>
   <i type="int" name="NBLK">    -1</i>
   <i type="logical" name="LPLANE"> T  </i>
   <i type="logical" name="LSCALAPACK"> T  </i>
   <i type="logical" name="LSCAAWARE"> F  </i>
   <i type="logical" name="LSCALU"> F  </i>
   <i type="logical" name="LASYNC"> F  </i>
   <i type="logical" name="LORBITALREAL"> F  </i>
  </separator>
  <separator name="miscellaneous" >
   <i type="int" name="IDIOT">     3</i>
   <i type="int" name="ISPECIAL">     0</i>
   <i type="logical" name="LMUSIC"> F  </i>
   <v name="POMASS">     12.01100000</v>
   <v name="DARWINR">      0.00000000</v>
   <v name="DARWINV">      1.00000000</v>
   <i type="logical" name="LCORR"> T  </i>
  </separator>
  <i type="logical" name="GGA_COMPAT"> T  </i>
  <i type="logical" name="LBERRY"> F  </i>
  <i type="int" name="ICORELEVEL">     0</i>
  <i type="logical" name="LDAU"> F  </i>
  <i type="int" name="I_CONSTRAINED_M">     0</i>
  <separator name="electronic exchange-correlation" >
   <i type="string" name="GGA">--</i>
   <i type="int" name="VOSKOWN">     0</i>
   <i type="logical" name="LHFCALC"> F  </i>
   <i type="string" name="PRECFOCK"></i>
   <i type="logical" name="LSYMGRAD"> F  </i>
   <i type="logical" name="LHFONE"> F  </i>
   <i type="logical" name="LRHFCALC"> F  </i>
   <i type="logical" name="LTHOMAS"> F  </i>
   <i type="logical" name="LMODELHF"> F  </i>
   <i name="ENCUT4O">     -1.00000000</i>
   <i type="int" name="EXXOEP">     0</i>
   <i type="int" name="FOURORBIT">     0</i>
   <i name="AEXX">      0.00000000</i>
   <i name="HFALPHA">      0.00000000</i>
   <i name="MCALPHA">      0.00000000</i>
   <i name="ALDAX">      1.00000000</i>
   <i name="AGGAX">      1.00000000</i>
   <i name="ALDAC">      1.00000000</i>
   <i name="AGGAC">      1.00000000</i>
   <i type="int" name="NKREDX">     1</i>
   <i type="int" name="NKREDY">     1</i>
   <i type="int" name="NKREDZ">     1</i>
   <i type="logical" name="SHIFTRED"> F  </i>
   <i type="logical" name="ODDONLY"> F  </i>
   <i type="logical" name="EVENONLY"> F  </i>
   <i type="int" name="LMAXFOCK">     0</i>
   <i type="int" name="NMAXFOCKAE">     0</i>
   <i type="logical" name="LFOCKAEDFT"> F  </i>
   <i name="HFSCREEN">      0.00000000</i>
   <i name="HFSCREENC">      0.00000000</i>
   <i type="int" name="NBANDSGWLOW">     0</i>
  </separator>
  <separator name="vdW DFT" >
   <i type="logical" name="LUSE_VDW"> F  </i>
   <i name="Zab_VDW">     -0.84910000</i>
   <i name="PARAM1">      0.12340000</i>
   <i name="PARAM2">      1.00000000</i>
   <i name="PARAM3">      0.00000000</i>
  </separator>
  <separator name="model GW" >
   <i type="int" name="MODEL_GW">     0</i>
   <i name="MODEL_EPS0">      3.26400698</i>
   <i name="MODEL_ALPHA">      1.00000000</i>
  </separator>
  <separator name="linear response parameters" >
   <i type="logical" name="LEPSILON"> F  </i>
   <i type="logical" name="LRPA"> F  </i>
   <i type="logical" name="LNABLA"> F  </i>
   <i type="logical" name="LVEL"> F  </i>
   <i type="int" name="KINTER">     0</i>
   <i name="CSHIFT">      0.10000000</i>
   <i name="OMEGAMAX">     -1.00000000</i>
   <i name="DEG_THRESHOLD">      0.00200000</i>
   <i name="RTIME">     -0.10000000</i>
   <i name="WPLASMAI">      0.00000000</i>
   <v name="DFIELD">      0.00000000      0.00000000      0.00000000</v>
   <v name="WPLASMA">      0.00000000      0.00000000      0.00000000      0.00000000      0.00000000      0.00000000      0.00000000      0.00000000      0.00000000</v>
  </separator>
  <separator name="orbital magnetization" >
   <i type="logical" name="NUCIND"> F  </i>
   <v name="MAGPOS">      0.00000000      0.00000000      0.00000000</v>
   <i type="logical" name="LNICSALL"> T  </i>
   <i type="logical" name="ORBITALMAG"> F  </i>
   <i type="logical" name="LMAGBLOCH"> F  </i>
   <i type="logical" name="LCHIMAG"> F  </i>
   <i type="logical" name="LGAUGE"> T  </i>
   <i type="int" name="MAGATOM">     0</i>
   <v name="MAGDIPOL">      0.00000000      0.00000000      0.00000000</v>
   <v name="AVECCONST">      0.00000000      0.00000000      0.00000000</v>
  </separator>
  <separator name="response functions" >
   <i type="logical" name="LADDER"> F  </i>
   <i type="logical" name="LRPAFORCE"> F  </i>
   <i type="logical" name="LFXC"> F  </i>
   <i type="logical" name="LHARTREE"> T  </i>
   <i type="int" name="IBSE">     0</i>
   <v type="int" name="KPOINT">    -1     0     0     0</v>
   <i type="logical" name="LTCTE"> F  </i>
   <i type="logical" name="LTETE"> F  </i>
   <i type="logical" name="LTRIPLET"> F  </i>
   <i type="logical" name="LFXCEPS"> F  </i>
   <i type="logical" name="LFXHEG"> F  </i>
   <i type="int" name="NATURALO">     2</i>
   <i type="logical" name="L2ORDER"> F  </i>
   <i type="logical" name="LMP2LT"> F  </i>
   <i type="logical" name="LUSEW"> F  </i>
   <i name="ENCUTGW">     -2.00000000</i>
   <i name="ENCUTGWSOFT">     -2.00000000</i>
   <i name="ENCUTLF">     -1.00000000</i>
   <i type="int" name="LMAXMP2">    -1</i>
   <i name="SCISSOR">      0.00000000</i>
   <i type="int" name="NOMEGA">     0</i>
   <i type="int" name="NOMEGAR">     0</i>
   <i type="int" name="NBANDSGW">    -1</i>
   <i type="int" name="NBANDSO">    -1</i>
   <i type="int" name="NBANDSV">    -1</i>
   <i type="int" name="NELM">     1</i>
   <i type="int" name="NELMHF">     1</i>
   <i type="int" name="DIM">     3</i>
   <i type="int" name="ANTIRES">     0</i>
   <i name="OMEGAMAX">    -30.00000000</i>
   <i name="OMEGAMIN">    -30.00000000</i>
   <i name="OMEGATL">   -200.00000000</i>
   <i type="int" name="OMEGAGRID">   140</i>
   <i name="CSHIFT">     -0.10000000</i>
   <i type="logical" name="SELFENERGY"> F  </i>
   <i type="logical" name="LSPECTRAL"> F  </i>
   <i type="logical" name="LSPECTRALGW"> F  </i>
   <i type="logical" name="LSINGLES"> F  </i>
   <i type="logical" name="LFERMIGW"> F  </i>
   <i type="logical" name="ODDONLYGW"> F  </i>
   <i type="logical" name="EVENONLYGW"> F  </i>
   <i type="int" name="NKREDLFX">     1</i>
   <i type="int" name="NKREDLFY">     1</i>
   <i type="int" name="NKREDLFZ">     1</i>
   <i type="int" name="MAXMEM">  2800</i>
   <i type="int" name="TELESCOPE">     0</i>
   <i type="int" name="TAUPAR">     1</i>
   <i type="int" name="OMEGAPAR">    -1</i>
   <i name="LAMBDA">      1.00000000</i>
  </separator>
  <separator name="External order field" >
   <i name="OFIELD_KAPPA">      0.00000000</i>
   <v name="OFIELD_K">      0.00000000      0.00000000      0.00000000</v>
   <i name="OFIELD_Q6_NEAR">      0.00000000</i>
   <i name="OFIELD_Q6_FAR">      0.00000000</i>
   <i name="OFIELD_A">      0.00000000</i>
  </separator>
 </parameters>
 <atominfo>
  <atoms>      64 </atoms>
  <types>       1 </types>
  <array name="atoms" >
   <dimension dim="1">ion</dimension>
   <field type="string">element</field>
   <field type="int">atomtype</field>
   <set>
    <rc><c>C </c><c>   1</c></rc>
    <rc><c>C </c><c>   1</c></rc>
    <rc><c>C </c><c>   1</c></rc>
    <rc><c>C </c><c>   1</c></rc>
    <rc><c>C </c><c>   1</c></rc>
    <rc><c>C </c><c>   1</c></rc>
    <rc><c>C </c><c>   1</c></rc>
    <rc><c>C </c><c>   1</c></rc>
    <rc><c>C </c><c>   1</c></rc>
    <rc><c>C </c><c>   1</c></rc>
    <rc><c>C </c><c>   1</c></rc>
    <rc><c>C </c><c>   1</c></rc>
    <rc><c>C </c><c>   1</c></rc>
    <rc><c>C </c><c>   1</c></rc>
    <rc><c>C </c><c>   1</c></rc>
    <rc><c>C </c><c>   1</c></rc>
    <rc><c>C </c><c>   1</c></rc>
    <rc><c>C </c><c>   1</c></rc>
    <rc><c>C </c><c>   1</c></rc>
    <rc><c>C </c><c>   1</c></rc>
    <rc><c>C </c><c>   1</c></rc>
    <rc><c>C </c><c>   1</c></rc>
    <rc><c>C </c><c>   1</c></rc>
    <rc><c>C </c><c>   1</c></rc>
    <rc><c>C </c><c>   1</c></rc>
    <rc><c>C </c><c>   1</c></rc>
    <rc><c>C </c><c>   1</c></rc>
    <rc><c>C </c><c>   1</c></rc>
    <rc><c>C </c><c>   1</c></rc>
    <rc><c>C </c><c>   1</c></rc>
    <rc><c>C </c><c>   1</c></rc>
    <rc><c>C </c><c>   1</c></rc>
    <rc><c>C </c><c>   1</c></rc>
    <rc><c>C </c><c>   1</c></rc>
    <rc><c>C </c><c>   1</c></rc>
    <rc><c>C </c><c>   1</c></rc>
    <rc><c>C </c><c>   1</c></rc>
    <rc><c>C </c><c>   1</c></rc>
    <rc><c>C </c><c>   1</c></rc>
    <rc><c>C </c><c>   1</c></rc>
    <rc><c>C </c><c>   1</c></rc>
    <rc><c>C </c><c>   1</c></rc>
    <rc><c>C </c><c>   1</c></rc>
    <rc><c>C </c><c>   1</c></rc>
    <rc><c>C </c><c>   1</c></rc>
    <rc><c>C </c><c>   1</c></rc>
    <rc><c>C </c><c>   1</c></rc>
    <rc><c>C </c><c>   1</c></rc>
    <rc><c>C </c><c>   1</c></rc>
    <rc><c>C </c><c>   1</c></rc>
    <rc><c>C </c><c>   1</c></rc>
    <rc><c>C </c><c>   1</c></rc>
    <rc><c>C </c><c>   1</c></rc>
    <rc><c>C </c><c>   1</c></rc>
    <rc><c>C </c><c>   1</c></rc>
    <rc><c>C </c><c>   1</c></rc>
    <rc><c>C </c><c>   1</c></rc>
    <rc><c>C </c><c>   1</c></rc>
    <rc><c>C </c><c>   1</c></rc>
    <rc><c>C </c><c>   1</c></rc>
    <rc><c>C </c><c>   1</c></rc>
    <rc><c>C </c><c>   1</c></rc>
    <rc><c>C </c><c>   1</c></rc>
    <rc><c>C </c><c>   1</c></rc>
   </set>
  </array>
  <array name="atomtypes" >
   <dimension dim="1">type</dimension>
   <field type="int">atomspertype</field>
   <field type="string">element</field>
   <field>mass</field>
   <field>valence</field>
   <field type="string">pseudopotential</field>
   <set>
    <rc><c>  64</c><c>C </c><c>     12.01100000</c><c>      4.00000000</c><c> PAW_PBE C 08Apr2002                    </c></rc>
   </set>
  </array>
 </atominfo>
 <structure name="initialpos" >
  <crystal>
   <varray name="basis" >
    <v>       7.03493249       0.00000000       0.00000000 </v>
    <v>       0.00000000       7.03493249       0.00000000 </v>
    <v>       0.00000000       0.00000000       7.03493249 </v>
   </varray>
   <i name="volume">    348.16074460 </i>
   <varray name="rec_basis" >
    <v>       0.14214777       0.00000000       0.00000000 </v>
    <v>       0.00000000       0.14214777       0.00000000 </v>
    <v>       0.00000000       0.00000000       0.14214777 </v>
   </varray>
  </crystal>
  <varray name="positions" >
   <v>       0.12500000       0.37500000       0.12500000 </v>
   <v>       0.62500000       0.37500000       0.12500000 </v>
   <v>       0.12500000       0.87500000       0.12500000 </v>
   <v>       0.62500000       0.87500000       0.12500000 </v>
   <v>       0.12500000       0.37500000       0.62500000 </v>
   <v>       0.62500000       0.37500000       0.62500000 </v>
   <v>       0.12500000       0.87500000       0.62500000 </v>
   <v>       0.62500000       0.87500000       0.62500000 </v>
   <v>       0.00000000       0.00000000       0.25000000 </v>
   <v>       0.50000000       0.00000000       0.25000000 </v>
   <v>       0.00000000       0.50000000       0.25000000 </v>
   <v>       0.50000000       0.50000000       0.25000000 </v>
   <v>       0.00000000       0.00000000       0.75000000 </v>
   <v>       0.50000000       0.00000000       0.75000000 </v>
   <v>       0.00000000       0.50000000       0.75000000 </v>
   <v>       0.50000000       0.50000000       0.75000000 </v>
   <v>       0.12500000       0.12500000       0.37500000 </v>
   <v>       0.62500000       0.12500000       0.37500000 </v>
   <v>       0.12500000       0.62500000       0.37500000 </v>
   <v>       0.62500000       0.62500000       0.37500000 </v>
   <v>       0.12500000       0.12500000       0.87500000 </v>
   <v>       0.62500000       0.12500000       0.87500000 </v>
   <v>       0.12500000       0.62500000       0.87500000 </v>
   <v>       0.62500000       0.62500000       0.87500000 </v>
   <v>       0.00000000       0.25000000       0.00000000 </v>
   <v>       0.50000000       0.25000000       0.00000000 </v>
   <v>       0.00000000       0.75000000       0.00000000 </v>
   <v>       0.50000000       0.75000000       0.00000000 </v>
   <v>       0.00000000       0.25000000       0.50000000 </v>
   <v>       0.50000000       0.25000000       0.50000000 </v>
   <v>       0.00000000       0.75000000       0.50000000 </v>
   <v>       0.50000000       0.75000000       0.50000000 </v>
   <v>       0.37500000       0.37500000       0.37500000 </v>
   <v>       0.87500000       0.37500000       0.37500000 </v>
   <v>       0.37500000       0.87500000       0.37500000 </v>
   <v>       0.87500000       0.87500000       0.37500000 </v>
   <v>       0.37500000       0.37500000       0.87500000 </v>
   <v>       0.87500000       0.37500000       0.87500000 </v>
   <v>       0.37500000       0.87500000       0.87500000 </v>
   <v>       0.87500000       0.87500000       0.87500000 </v>
   <v>       0.25000000       0.00000000       0.00000000 </v>
   <v>       0.75000000       0.00000000       0.00000000 </v>
   <v>       0.25000000       0.50000000       0.00000000 </v>
   <v>       0.75000000       0.50000000       0.00000000 </v>
   <v>       0.25000000       0.00000000       0.50000000 </v>
   <v>       0.75000000       0.00000000       0.50000000 </v>
   <v>       0.25000000       0.50000000       0.50000000 </v>
   <v>       0.75000000       0.50000000       0.50000000 </v>
   <v>       0.37500000       0.12500000       0.12500000 </v>
   <v>       0.87500000       0.12500000       0.12500000 </v>
   <v>       0.37500000       0.62500000       0.12500000 </v>
   <v>       0.87500000       0.62500000       0.12500000 </v>
   <v>       0.37500000       0.12500000       0.62500000 </v>
   <v>       0.87500000       0.12500000       0.62500000 </v>
   <v>       0.37500000       0.62500000       0.62500000 </v>
   <v>       0.87500000       0.62500000       0.62500000 </v>
   <v>       0.25000000       0.25000000       0.25000000 </v>
   <v>       0.75000000       0.25000000       0.25000000 </v>
   <v>       0.25000000       0.75000000       0.25000000 </v>
   <v>       0.75000000       0.75000000       0.25000000 </v>
   <v>       0.25000000       0.25000000       0.75000000 </v>
   <v>       0.75000000       0.25000000       0.75000000 </v>
   <v>       0.25000000       0.75000000       0.75000000 </v>
   <v>       0.75000000       0.75000000       0.75000000 </v>
  </varray>
 </structure>
 <calculation>
  <scstep>
   <time name="dav">   13.37   13.38</time>
   <time name="total">   13.48   13.53</time>
   <energy>
    <i name="alphaZ">    958.58811461 </i>
    <i name="ewald"> -11290.85594836 </i>
    <i name="hartreedc">   -534.73912322 </i>
    <i name="XCdc">    923.69559467 </i>
    <i name="pawpsdc">   2421.21235816 </i>
    <i name="pawaedc">  -2494.84305711 </i>
    <i name="eentropy">     -0.01272202 </i>
    <i name="bandstr">   1115.37207859 </i>
    <i name="atom">   9416.14232778 </i>
    <i name="e_fr_energy">    514.55962310 </i>
    <i name="e_wo_entrp">    514.57234512 </i>
    <i name="e_0_energy">    514.56598411 </i>
   </energy>
  </scstep>
  <scstep>
   <time name="dav">   16.10   16.10</time>
   <time name="total">   16.10   16.10</time>
   <energy>
    <i name="e_fr_energy">   -563.15168445 </i>
    <i name="e_wo_entrp">   -563.15168445 </i>
    <i name="e_0_energy">   -563.15168445 </i>
   </energy>
  </scstep>
  <scstep>
   <time name="dav">   16.74   16.74</time>
   <time name="total">   16.74   16.74</time>
   <energy>
    <i name="e_fr_energy">   -603.44594382 </i>
    <i name="e_wo_entrp">   -603.44594382 </i>
    <i name="e_0_energy">   -603.44594382 </i>
   </energy>
  </scstep>
  <scstep>
   <time name="dav">   16.37   16.38</time>
   <time name="total">   16.38   16.38</time>
   <energy>
    <i name="e_fr_energy">   -603.84809975 </i>
    <i name="e_wo_entrp">   -603.84809975 </i>
    <i name="e_0_energy">   -603.84809975 </i>
   </energy>
  </scstep>
  <scstep>
   <time name="dav">   15.42   15.43</time>
   <time name="total">   15.95   15.95</time>
   <energy>
    <i name="e_fr_energy">   -603.85670960 </i>
    <i name="e_wo_entrp">   -603.85670960 </i>
    <i name="e_0_energy">   -603.85670960 </i>
   </energy>
  </scstep>
  <scstep>
   <time name="dav">   15.52   15.52</time>
   <time name="total">   16.16   16.16</time>
   <energy>
    <i name="e_fr_energy">   -586.63323189 </i>
    <i name="e_wo_entrp">   -586.63323189 </i>
    <i name="e_0_energy">   -586.63323189 </i>
   </energy>
  </scstep>
  <scstep>
   <time name="dav">   16.20   16.20</time>
   <time name="total">   16.87   16.87</time>
   <energy>
    <i name="e_fr_energy">   -580.82532182 </i>
    <i name="e_wo_entrp">   -580.82532182 </i>
    <i name="e_0_energy">   -580.82532182 </i>
   </energy>
  </scstep>
  <scstep>
   <time name="dav">   15.51   15.51</time>
   <time name="total">   16.13   16.13</time>
   <energy>
    <i name="e_fr_energy">   -580.89076364 </i>
    <i name="e_wo_entrp">   -580.89076364 </i>
    <i name="e_0_energy">   -580.89076364 </i>
   </energy>
  </scstep>
  <scstep>
   <time name="dav">   16.09   16.09</time>
   <time name="total">   16.72   16.72</time>
   <energy>
    <i name="e_fr_energy">   -580.89283666 </i>
    <i name="e_wo_entrp">   -580.89283666 </i>
    <i name="e_0_energy">   -580.89283666 </i>
   </energy>
  </scstep>
  <scstep>
   <time name="dav">   14.91   14.91</time>
   <time name="total">   15.53   15.54</time>
   <energy>
    <i name="e_fr_energy">   -580.89327129 </i>
    <i name="e_wo_entrp">   -580.89327129 </i>
    <i name="e_0_energy">   -580.89327129 </i>
   </energy>
  </scstep>
  <scstep>
   <time name="dav">   16.91   16.91</time>
   <time name="total">   17.56   17.56</time>
   <energy>
    <i name="e_fr_energy">   -580.89327727 </i>
    <i name="e_wo_entrp">   -580.89327727 </i>
    <i name="e_0_energy">   -580.89327727 </i>
   </energy>
  </scstep>
  <scstep>
   <time name="dav">   15.97   15.97</time>
   <time name="total">   16.62   16.62</time>
   <energy>
    <i name="e_fr_energy">   -580.89327709 </i>
    <i name="e_wo_entrp">   -580.89327709 </i>
    <i name="e_0_energy">   -580.89327709 </i>
   </energy>
  </scstep>
  <scstep>
   <time name="dav">   14.02   14.02</time>
   <time name="total">   14.67   14.67</time>
   <energy>
    <i name="e_fr_energy">   -580.89327714 </i>
    <i name="e_wo_entrp">   -580.89327714 </i>
    <i name="e_0_energy">   -580.89327714 </i>
   </energy>
  </scstep>
  <scstep>
   <time name="dav">   11.99   12.00</time>
   <time name="total">   12.62   12.62</time>
   <energy>
    <i name="e_fr_energy">   -580.89327717 </i>
    <i name="e_wo_entrp">   -580.89327717 </i>
    <i name="e_0_energy">   -580.89327717 </i>
   </energy>
  </scstep>
  <scstep>
   <time name="dav">   11.35   11.35</time>
   <time name="total">   11.45   11.46</time>
   <energy>
    <i name="alphaZ">    958.58811461 </i>
    <i name="ewald"> -11290.85594836 </i>
    <i name="hartreedc">   -825.25083403 </i>
    <i name="XCdc">    951.20174222 </i>
    <i name="pawpsdc">   4395.33331629 </i>
    <i name="pawaedc">  -4477.19033598 </i>
    <i name="eentropy">     -0.00000000 </i>
    <i name="bandstr">    291.13834031 </i>
    <i name="atom">   9416.14232778 </i>
    <i name="e_fr_energy">   -580.89327717 </i>
    <i name="e_wo_entrp">   -580.89327717 </i>
    <i name="e_0_energy">   -580.89327717 </i>
   </energy>
  </scstep>
  <structure>
   <crystal>
    <varray name="basis" >
     <v>       7.03493249       0.00000000       0.00000000 </v>
     <v>       0.00000000       7.03493249       0.00000000 </v>
     <v>       0.00000000       0.00000000       7.03493249 </v>
    </varray>
    <i name="volume">    348.16074460 </i>
    <varray name="rec_basis" >
     <v>       0.14214777       0.00000000       0.00000000 </v>
     <v>       0.00000000       0.14214777       0.00000000 </v>
     <v>       0.00000000       0.00000000       0.14214777 </v>
    </varray>
   </crystal>
   <varray name="positions" >
    <v>       0.12500000       0.37500000       0.12500000 </v>
    <v>       0.62500000       0.37500000       0.12500000 </v>
    <v>       0.12500000       0.87500000       0.12500000 </v>
    <v>       0.62500000       0.87500000       0.12500000 </v>
    <v>       0.12500000       0.37500000       0.62500000 </v>
    <v>       0.62500000       0.37500000       0.62500000 </v>
    <v>       0.12500000       0.87500000       0.62500000 </v>
    <v>       0.62500000       0.87500000       0.62500000 </v>
    <v>       0.00000000       0.00000000       0.25000000 </v>
    <v>       0.50000000       0.00000000       0.25000000 </v>
    <v>       0.00000000       0.50000000       0.25000000 </v>
    <v>       0.50000000       0.50000000       0.25000000 </v>
    <v>       0.00000000       0.00000000       0.75000000 </v>
    <v>       0.50000000       0.00000000       0.75000000 </v>
    <v>       0.00000000       0.50000000       0.75000000 </v>
    <v>       0.50000000       0.50000000       0.75000000 </v>
    <v>       0.12500000       0.12500000       0.37500000 </v>
    <v>       0.62500000       0.12500000       0.37500000 </v>
    <v>       0.12500000       0.62500000       0.37500000 </v>
    <v>       0.62500000       0.62500000       0.37500000 </v>
    <v>       0.12500000       0.12500000       0.87500000 </v>
    <v>       0.62500000       0.12500000       0.87500000 </v>
    <v>       0.12500000       0.62500000       0.87500000 </v>
    <v>       0.62500000       0.62500000       0.87500000 </v>
    <v>       0.00000000       0.25000000       0.00000000 </v>
    <v>       0.50000000       0.25000000       0.00000000 </v>
    <v>       0.00000000       0.75000000       0.00000000 </v>
    <v>       0.50000000       0.75000000       0.00000000 </v>
    <v>       0.00000000       0.25000000       0.50000000 </v>
    <v>       0.50000000       0.25000000       0.50000000 </v>
    <v>       0.00000000       0.75000000       0.50000000 </v>
    <v>       0.50000000       0.75000000       0.50000000 </v>
    <v>       0.37500000       0.37500000       0.37500000 </v>
    <v>       0.87500000       0.37500000       0.37500000 </v>
    <v>       0.37500000       0.87500000       0.37500000 </v>
    <v>       0.87500000       0.87500000       0.37500000 </v>
    <v>       0.37500000       0.37500000       0.87500000 </v>
    <v>       0.87500000       0.37500000       0.87500000 </v>
    <v>       0.37500000       0.87500000       0.87500000 </v>
    <v>       0.87500000       0.87500000       0.87500000 </v>
    <v>       0.25000000       0.00000000       0.00000000 </v>
    <v>       0.75000000       0.00000000       0.00000000 </v>
    <v>       0.25000000       0.50000000       0.00000000 </v>
    <v>       0.75000000       0.50000000       0.00000000 </v>
    <v>       0.25000000       0.00000000       0.50000000 </v>
    <v>       0.75000000       0.00000000       0.50000000 </v>
    <v>       0.25000000       0.50000000       0.50000000 </v>
    <v>       0.75000000       0.50000000       0.50000000 </v>
    <v>       0.37500000       0.12500000       0.12500000 </v>
    <v>       0.87500000       0.12500000       0.12500000 </v>
    <v>       0.37500000       0.62500000       0.12500000 </v>
    <v>       0.87500000       0.62500000       0.12500000 </v>
    <v>       0.37500000       0.12500000       0.62500000 </v>
    <v>       0.87500000       0.12500000       0.62500000 </v>
    <v>       0.37500000       0.62500000       0.62500000 </v>
    <v>       0.87500000       0.62500000       0.62500000 </v>
    <v>       0.25000000       0.25000000       0.25000000 </v>
    <v>       0.75000000       0.25000000       0.25000000 </v>
    <v>       0.25000000       0.75000000       0.25000000 </v>
    <v>       0.75000000       0.75000000       0.25000000 </v>
    <v>       0.25000000       0.25000000       0.75000000 </v>
    <v>       0.75000000       0.25000000       0.75000000 </v>
    <v>       0.25000000       0.75000000       0.75000000 </v>
    <v>       0.75000000       0.75000000       0.75000000 </v>
   </varray>
  </structure>
  <varray name="forces" >
   <v>       0.00000000      -0.00000000       0.00000000 </v>
   <v>       0.00000000      -0.00000000       0.00000000 </v>
   <v>       0.00000000      -0.00000000       0.00000000 </v>
   <v>       0.00000000      -0.00000000       0.00000000 </v>
   <v>       0.00000000       0.00000000       0.00000000 </v>
   <v>       0.00000000      -0.00000000       0.00000000 </v>
   <v>       0.00000000      -0.00000000       0.00000000 </v>
   <v>      -0.00000000       0.00000000       0.00000000 </v>
   <v>      -0.00000000       0.00000000      -0.00000000 </v>
   <v>      -0.00000000       0.00000000      -0.00000000 </v>
   <v>      -0.00000000       0.00000000      -0.00000000 </v>
   <v>      -0.00000000       0.00000000      -0.00000000 </v>
   <v>      -0.00000000      -0.00000000      -0.00000000 </v>
   <v>      -0.00000000      -0.00000000      -0.00000000 </v>
   <v>      -0.00000000      -0.00000000      -0.00000000 </v>
   <v>      -0.00000000       0.00000000      -0.00000000 </v>
   <v>       0.00000000      -0.00000000       0.00000000 </v>
   <v>       0.00000000       0.00000000       0.00000000 </v>
   <v>       0.00000000       0.00000000       0.00000000 </v>
   <v>       0.00000000      -0.00000000       0.00000000 </v>
   <v>       0.00000000      -0.00000000       0.00000000 </v>
   <v>       0.00000000      -0.00000000       0.00000000 </v>
   <v>       0.00000000      -0.00000000       0.00000000 </v>
   <v>       0.00000000      -0.00000000       0.00000000 </v>
   <v>      -0.00000000      -0.00000000      -0.00000000 </v>
   <v>      -0.00000000       0.00000000      -0.00000000 </v>
   <v>      -0.00000000       0.00000000      -0.00000000 </v>
   <v>      -0.00000000       0.00000000      -0.00000000 </v>
   <v>      -0.00000000      -0.00000000      -0.00000000 </v>
   <v>      -0.00000000       0.00000000      -0.00000000 </v>
   <v>      -0.00000000       0.00000000      -0.00000000 </v>
   <v>      -0.00000000      -0.00000000      -0.00000000 </v>
   <v>       0.00000000      -0.00000000       0.00000000 </v>
   <v>       0.00000000      -0.00000000       0.00000000 </v>
   <v>       0.00000000      -0.00000000       0.00000000 </v>
   <v>       0.00000000      -0.00000000       0.00000000 </v>
   <v>       0.00000000      -0.00000000       0.00000000 </v>
   <v>       0.00000000      -0.00000000       0.00000000 </v>
   <v>       0.00000000      -0.00000000       0.00000000 </v>
   <v>       0.00000000      -0.00000000       0.00000000 </v>
   <v>      -0.00000000       0.00000000      -0.00000000 </v>
   <v>      -0.00000000      -0.00000000      -0.00000000 </v>
   <v>      -0.00000000       0.00000000      -0.00000000 </v>
   <v>      -0.00000000       0.00000000      -0.00000000 </v>
   <v>      -0.00000000       0.00000000      -0.00000000 </v>
   <v>      -0.00000000      -0.00000000      -0.00000000 </v>
   <v>      -0.00000000      -0.00000000      -0.00000000 </v>
   <v>      -0.00000000       0.00000000      -0.00000000 </v>
   <v>       0.00000000      -0.00000000       0.00000000 </v>
   <v>       0.00000000      -0.00000000       0.00000000 </v>
   <v>       0.00000000      -0.00000000       0.00000000 </v>
   <v>       0.00000000       0.00000000       0.00000000 </v>
   <v>       0.00000000      -0.00000000       0.00000000 </v>
   <v>      -0.00000000      -0.00000000       0.00000000 </v>
   <v>       0.00000000       0.00000000       0.00000000 </v>
   <v>       0.00000000       0.00000000       0.00000000 </v>
   <v>      -0.00000000       0.00000000      -0.00000000 </v>
   <v>      -0.00000000       0.00000000      -0.00000000 </v>
   <v>      -0.00000000       0.00000000      -0.00000000 </v>
   <v>      -0.00000000       0.00000000      -0.00000000 </v>
   <v>      -0.00000000      -0.00000000      -0.00000000 </v>
   <v>      -0.00000000       0.00000000      -0.00000000 </v>
   <v>      -0.00000000      -0.00000000      -0.00000000 </v>
   <v>      -0.00000000       0.00000000      -0.00000000 </v>
  </varray>
  <varray name="stress" >
   <v>     182.29764425      -0.00000000      -0.00000000 </v>
   <v>      -0.00000000     182.29764425      -0.00000000 </v>
   <v>       0.00000000      -0.00000000     182.29764425 </v>
  </varray>
  <energy>
   <i name="e_fr_energy">   -580.89327717 </i>
   <i name="e_wo_entrp">   -580.89327717 </i>
   <i name="e_0_energy">     -0.00000000 </i>
  </energy>
  <kpoints>
   <generation param="Gamma">
    <v type="int" name="divisions">       6        6        6 </v>
    <v name="usershift">      0.00000000       0.00000000       0.00000000 </v>
    <v name="genvec1">      0.16666667       0.00000000       0.00000000 </v>
    <v name="genvec2">      0.00000000       0.16666667       0.00000000 </v>
    <v name="genvec3">      0.00000000       0.00000000       0.16666667 </v>
    <v name="shift">      0.00000000       0.00000000       0.00000000 </v>
   </generation>
   <varray name="kpointlist" >
    <v>       0.00000000       0.00000000       0.00000000 </v>
    <v>       0.16666667       0.00000000       0.00000000 </v>
    <v>       0.33333333       0.00000000       0.00000000 </v>
    <v>       0.50000000       0.00000000       0.00000000 </v>
    <v>       0.00000000       0.16666667       0.00000000 </v>
    <v>       0.16666667       0.16666667       0.00000000 </v>
    <v>       0.33333333       0.16666667       0.00000000 </v>
    <v>       0.50000000       0.16666667       0.00000000 </v>
    <v>       0.00000000       0.33333333       0.00000000 </v>
    <v>       0.16666667       0.33333333       0.00000000 </v>
    <v>       0.33333333       0.33333333       0.00000000 </v>
    <v>       0.50000000       0.33333333       0.00000000 </v>
    <v>       0.00000000       0.50000000       0.00000000 </v>
    <v>       0.16666667       0.50000000       0.00000000 </v>
    <v>       0.33333333       0.50000000       0.00000000 </v>
    <v>       0.50000000       0.50000000       0.00000000 </v>
    <v>       0.00000000       0.16666667       0.16666667 </v>
    <v>       0.16666667       0.16666667       0.16666667 </v>
    <v>       0.33333333       0.16666667       0.16666667 </v>
    <v>       0.50000000       0.16666667       0.16666667 </v>
    <v>       0.00000000       0.33333333       0.16666667 </v>
    <v>       0.16666667       0.33333333       0.16666667 </v>
    <v>       0.33333333       0.33333333       0.16666667 </v>
    <v>       0.50000000       0.33333333       0.16666667 </v>
    <v>       0.00000000       0.50000000       0.16666667 </v>
    <v>       0.16666667       0.50000000       0.16666667 </v>
    <v>       0.33333333       0.50000000       0.16666667 </v>
    <v>       0.50000000       0.50000000       0.16666667 </v>
    <v>       0.00000000      -0.33333333       0.16666667 </v>
    <v>       0.16666667      -0.33333333       0.16666667 </v>
    <v>       0.33333333      -0.33333333       0.16666667 </v>
    <v>       0.50000000      -0.33333333       0.16666667 </v>
    <v>       0.00000000      -0.16666667       0.16666667 </v>
    <v>       0.16666667      -0.16666667       0.16666667 </v>
    <v>       0.33333333      -0.16666667       0.16666667 </v>
    <v>       0.50000000      -0.16666667       0.16666667 </v>
    <v>       0.00000000       0.33333333       0.33333333 </v>
    <v>       0.16666667       0.33333333       0.33333333 </v>
    <v>       0.33333333       0.33333333       0.33333333 </v>
    <v>       0.50000000       0.33333333       0.33333333 </v>
    <v>       0.00000000       0.50000000       0.33333333 </v>
    <v>       0.16666667       0.50000000       0.33333333 </v>
    <v>       0.33333333       0.50000000       0.33333333 </v>
    <v>       0.50000000       0.50000000       0.33333333 </v>
    <v>       0.00000000      -0.33333333       0.33333333 </v>
    <v>       0.16666667      -0.33333333       0.33333333 </v>
    <v>       0.33333333      -0.33333333       0.33333333 </v>
    <v>       0.50000000      -0.33333333       0.33333333 </v>
    <v>       0.00000000       0.50000000       0.50000000 </v>
    <v>       0.16666667       0.50000000       0.50000000 </v>
    <v>       0.33333333       0.50000000       0.50000000 </v>
    <v>       0.50000000       0.50000000       0.50000000 </v>
   </varray>
   <varray name="weights" >
    <v>       0.00462963 </v>
    <v>       0.00925926 </v>
    <v>       0.00925926 </v>
    <v>       0.00462963 </v>
    <v>       0.01851852 </v>
    <v>       0.03703704 </v>
    <v>       0.03703704 </v>
    <v>       0.01851852 </v>
    <v>       0.01851852 </v>
    <v>       0.03703704 </v>
    <v>       0.03703704 </v>
    <v>       0.01851852 </v>
    <v>       0.00925926 </v>
    <v>       0.01851852 </v>
    <v>       0.01851852 </v>
    <v>       0.00925926 </v>
    <v>       0.00925926 </v>
    <v>       0.01851852 </v>
    <v>       0.01851852 </v>
    <v>       0.00925926 </v>
    <v>       0.01851852 </v>
    <v>       0.03703704 </v>
    <v>       0.03703704 </v>
    <v>       0.01851852 </v>
    <v>       0.01851852 </v>
    <v>       0.03703704 </v>
    <v>       0.03703704 </v>
    <v>       0.01851852 </v>
    <v>       0.01851852 </v>
    <v>       0.03703704 </v>
    <v>       0.03703704 </v>
    <v>       0.01851852 </v>
    <v>       0.00925926 </v>
    <v>       0.01851852 </v>
    <v>       0.01851852 </v>
    <v>       0.00925926 </v>
    <v>       0.00925926 </v>
    <v>       0.01851852 </v>
    <v>       0.01851852 </v>
    <v>       0.00925926 </v>
    <v>       0.01851852 </v>
    <v>       0.03703704 </v>
    <v>       0.03703704 </v>
    <v>       0.01851852 </v>
    <v>       0.00925926 </v>
    <v>       0.01851852 </v>
    <v>       0.01851852 </v>
    <v>       0.00925926 </v>
    <v>       0.00462963 </v>
    <v>       0.00925926 </v>
    <v>       0.00925926 </v>
    <v>       0.00462963 </v>
   </varray>
  </kpoints>
  <scstep>
   <time name="total">   41.82   41.82</time>
   <energy>
    <i name="e_fr_energy">   -372.93248002 </i>
    <i name="e_wo_entrp">   -372.93248002 </i>
    <i name="e_0_energy">   -372.93248002 </i>
   </energy>
  </scstep>
  <scstep>
   <time name="total">   30.76   30.77</time>
   <energy>
    <i name="e_fr_energy">   -314.89704009 </i>
    <i name="e_wo_entrp">   -314.89704009 </i>
    <i name="e_0_energy">   -314.89704009 </i>
   </energy>
  </scstep>
  <scstep>
   <time name="total">   31.12   31.13</time>
   <energy>
    <i name="e_fr_energy">   -314.34089688 </i>
    <i name="e_wo_entrp">   -314.34089688 </i>
    <i name="e_0_energy">   -314.34089688 </i>
   </energy>
  </scstep>
  <scstep>
   <time name="total">   31.54   31.55</time>
   <energy>
    <i name="e_fr_energy">   -315.11401918 </i>
    <i name="e_wo_entrp">   -315.11401918 </i>
    <i name="e_0_energy">   -315.11401918 </i>
   </energy>
  </scstep>
  <scstep>
   <time name="total">   33.31   33.31</time>
   <energy>
    <i name="e_fr_energy">   -315.36306624 </i>
    <i name="e_wo_entrp">   -315.36306624 </i>
    <i name="e_0_energy">   -315.36306624 </i>
   </energy>
  </scstep>
  <scstep>
   <time name="total">   31.83   31.83</time>
   <energy>
    <i name="e_fr_energy">   -315.32501250 </i>
    <i name="e_wo_entrp">   -315.32501250 </i>
    <i name="e_0_energy">   -315.32501250 </i>
   </energy>
  </scstep>
  <scstep>
   <time name="total">   32.21   32.22</time>
   <energy>
    <i name="e_fr_energy">   -315.30324053 </i>
    <i name="e_wo_entrp">   -315.30324053 </i>
    <i name="e_0_energy">   -315.30324053 </i>
   </energy>
  </scstep>
  <scstep>
   <time name="total">   33.83   33.84</time>
   <energy>
    <i name="e_fr_energy">   -315.30193513 </i>
    <i name="e_wo_entrp">   -315.30193513 </i>
    <i name="e_0_energy">   -315.30193513 </i>
   </energy>
  </scstep>
  <scstep>
   <time name="total">   35.19   35.19</time>
   <energy>
    <i name="e_fr_energy">   -315.30131423 </i>
    <i name="e_wo_entrp">   -315.30131423 </i>
    <i name="e_0_energy">   -315.30131423 </i>
   </energy>
  </scstep>
  <scstep>
   <time name="total">   33.34   33.35</time>
   <energy>
    <i name="e_fr_energy">   -315.30143807 </i>
    <i name="e_wo_entrp">   -315.30143807 </i>
    <i name="e_0_energy">   -315.30143807 </i>
   </energy>
  </scstep>
  <scstep>
   <time name="total">   33.66   33.66</time>
   <energy>
    <i name="e_fr_energy">   -315.30144456 </i>
    <i name="e_wo_entrp">   -315.30144456 </i>
    <i name="e_0_energy">   -315.30144456 </i>
   </energy>
  </scstep>
  <kpoints>
   <generation param="Gamma">
    <v type="int" name="divisions">       6        6        6 </v>
    <v name="usershift">      0.00000000       0.00000000       0.00000000 </v>
    <v name="genvec1">      0.16666667       0.00000000       0.00000000 </v>
    <v name="genvec2">      0.00000000       0.16666667       0.00000000 </v>
    <v name="genvec3">      0.00000000       0.00000000       0.16666667 </v>
    <v name="shift">      0.00000000       0.00000000       0.00000000 </v>
   </generation>
   <varray name="kpointlist" >
    <v>       0.00000000       0.00000000       0.00000000 </v>
    <v>       0.16666667       0.00000000       0.00000000 </v>
    <v>       0.33333333       0.00000000       0.00000000 </v>
    <v>       0.50000000       0.00000000       0.00000000 </v>
    <v>       0.16666667       0.16666667       0.00000000 </v>
    <v>       0.33333333       0.16666667       0.00000000 </v>
    <v>       0.50000000       0.16666667       0.00000000 </v>
    <v>       0.33333333       0.33333333       0.00000000 </v>
    <v>       0.50000000       0.33333333       0.00000000 </v>
    <v>       0.50000000       0.50000000       0.00000000 </v>
    <v>       0.16666667       0.16666667       0.16666667 </v>
    <v>       0.33333333       0.16666667       0.16666667 </v>
    <v>       0.50000000       0.16666667       0.16666667 </v>
    <v>       0.33333333       0.33333333       0.16666667 </v>
    <v>       0.50000000       0.33333333       0.16666667 </v>
    <v>       0.50000000       0.50000000       0.16666667 </v>
    <v>       0.33333333       0.33333333       0.33333333 </v>
    <v>       0.50000000       0.33333333       0.33333333 </v>
    <v>       0.50000000       0.50000000       0.33333333 </v>
    <v>       0.50000000       0.50000000       0.50000000 </v>
   </varray>
   <varray name="weights" >
    <v>       0.00462963 </v>
    <v>       0.02777778 </v>
    <v>       0.02777778 </v>
    <v>       0.01388889 </v>
    <v>       0.05555556 </v>
    <v>       0.11111111 </v>
    <v>       0.05555556 </v>
    <v>       0.05555556 </v>
    <v>       0.05555556 </v>
    <v>       0.01388889 </v>
    <v>       0.03703704 </v>
    <v>       0.11111111 </v>
    <v>       0.05555556 </v>
    <v>       0.11111111 </v>
    <v>       0.11111111 </v>
    <v>       0.02777778 </v>
    <v>       0.03703704 </v>
    <v>       0.05555556 </v>
    <v>       0.02777778 </v>
    <v>       0.00462963 </v>
   </varray>
  </kpoints>
  <dynmat>
   <varray name="hessian" >
    <v>      -4.03696000      -0.00000000      -0.00000000       0.01489071       0.00000000       0.00000000       0.00803354       0.00000000      -0.00000000       0.01106140       0.00000000       0.00000000       0.00803354      -0.00000000      -0.00000000       0.01106140       0.00000000       0.00000000      -0.04860984       0.00000000      -0.00000000       0.00469677      -0.00000000      -0.00000000      -0.01354011      -0.00802759       0.00311879       0.00776959      -0.01005257      -0.01929437       0.83576097      -0.24531733      -0.24531733      -0.00561582      -0.00802759      -0.00802759       0.02940574      -0.01929437      -0.01929437      -0.00283799      -0.00253983      -0.00253983      -0.01354011       0.00311879      -0.00802759       0.00776959      -0.01929437      -0.01005257      -0.12116789       0.06441436      -0.06441436      -0.00549292       0.00347990      -0.00347990      -0.12116789       0.06441436       0.06441436      -0.00549292       0.00347990       0.00347990      -0.12116789      -0.06441436      -0.06441436      -0.00549292      -0.00347990      -0.00347990      -0.12116789      -0.06441436       0.06441436      -0.00549292      -0.00347990       0.00347990       0.83576097       0.24531733       0.24531733      -0.00561582       0.00802759       0.00802759      -0.01354011       0.00802759      -0.00311879       0.00776959       0.01005257       0.01929437      -0.01354011      -0.00311879       0.00802759       0.00776959       0.01929437       0.01005257       0.02940574       0.01929437       0.01929437      -0.00283799       0.00253983       0.00253983       0.13692800      -0.06441436       0.14275838       0.13692800      -0.06441436      -0.14275838       0.00729053      -0.00347990      -0.00606526       0.00729053      -0.00347990       0.00606526       0.13692800       0.06441436      -0.14275838       0.13692800       0.06441436       0.14275838       0.00729053       0.00347990       0.00606526       0.00729053       0.00347990      -0.00606526      -0.01354011       0.00802759       0.00311879       0.00776959       0.01005257      -0.01929437       0.83576097       0.24531733      -0.24531733      -0.00561582       0.00802759      -0.00802759       0.02940574       0.01929437      -0.01929437      -0.00283799       0.00253983      -0.00253983      -0.01354011      -0.00311879      -0.00802759       0.00776959       0.01929437      -0.01005257       0.13692800      -0.14275838       0.06441436       0.13692800       0.14275838       0.06441436       0.13692800       0.14275838      -0.06441436       0.13692800      -0.14275838      -0.06441436       0.00729053       0.00606526       0.00347990       0.00729053      -0.00606526       0.00347990       0.00729053      -0.00606526      -0.00347990       0.00729053       0.00606526      -0.00347990       0.83576097      -0.24531733       0.24531733      -0.00561582      -0.00802759       0.00802759      -0.01354011      -0.00802759      -0.00311879       0.00776959      -0.01005257       0.01929437      -0.01354011       0.00311879       0.00802759       0.00776959      -0.01929437       0.01005257       0.02940574      -0.01929437       0.01929437      -0.00283799      -0.00253983       0.00253983 </v>
    <v>      -0.00000000      -4.03696000      -0.00000000       0.00000000       0.00803354      -0.00000000       0.00000000       0.01489071       0.00000000       0.00000000       0.01106140       0.00000000      -0.00000000       0.00803354      -0.00000000       0.00000000      -0.04860984      -0.00000000       0.00000000       0.01106140       0.00000000      -0.00000000       0.00469677      -0.00000000      -0.00802759      -0.00561582       0.00802759      -0.01005257       0.00776959       0.01929437      -0.24531733       0.83576097       0.24531733      -0.00802759      -0.01354011      -0.00311879      -0.01929437       0.00776959       0.01005257      -0.00253983      -0.00283799       0.00253983       0.00311879      -0.01354011       0.00802759      -0.01929437       0.02940574       0.01929437      -0.06441436       0.13692800      -0.14275838      -0.00347990       0.00729053       0.00606526      -0.06441436       0.13692800       0.14275838      -0.00347990       0.00729053      -0.00606526       0.06441436       0.13692800       0.14275838       0.00347990       0.00729053      -0.00606526       0.06441436       0.13692800      -0.14275838       0.00347990       0.00729053       0.00606526       0.24531733       0.83576097       0.24531733       0.00802759      -0.01354011      -0.00311879       0.00802759      -0.00561582       0.00802759       0.01005257       0.00776959       0.01929437      -0.00311879      -0.01354011       0.00802759       0.01929437       0.02940574       0.01929437       0.01929437       0.00776959       0.01005257       0.00253983      -0.00283799       0.00253983       0.06441436      -0.12116789       0.06441436       0.06441436      -0.12116789      -0.06441436       0.00347990      -0.00549292       0.00347990       0.00347990      -0.00549292      -0.00347990      -0.06441436      -0.12116789       0.06441436      -0.06441436      -0.12116789      -0.06441436      -0.00347990      -0.00549292       0.00347990      -0.00347990      -0.00549292      -0.00347990       0.00802759      -0.00561582      -0.00802759       0.01005257       0.00776959      -0.01929437       0.24531733       0.83576097      -0.24531733       0.00802759      -0.01354011       0.00311879       0.01929437       0.00776959      -0.01005257       0.00253983      -0.00283799      -0.00253983      -0.00311879      -0.01354011      -0.00802759       0.01929437       0.02940574      -0.01929437      -0.14275838       0.13692800      -0.06441436       0.14275838       0.13692800       0.06441436       0.14275838       0.13692800      -0.06441436      -0.14275838       0.13692800       0.06441436       0.00606526       0.00729053      -0.00347990      -0.00606526       0.00729053       0.00347990      -0.00606526       0.00729053      -0.00347990       0.00606526       0.00729053       0.00347990      -0.24531733       0.83576097      -0.24531733      -0.00802759      -0.01354011       0.00311879      -0.00802759      -0.00561582      -0.00802759      -0.01005257       0.00776959      -0.01929437       0.00311879      -0.01354011      -0.00802759      -0.01929437       0.02940574      -0.01929437      -0.01929437       0.00776959      -0.01005257      -0.00253983      -0.00283799      -0.00253983 </v>
    <v>      -0.00000000      -0.00000000      -4.03696000       0.00000000      -0.00000000       0.00803354      -0.00000000       0.00000000       0.00803354       0.00000000       0.00000000      -0.04860984      -0.00000000      -0.00000000       0.01489071       0.00000000      -0.00000000       0.01106140      -0.00000000       0.00000000       0.01106140      -0.00000000      -0.00000000       0.00469677       0.00311879       0.00802759      -0.01354011      -0.01929437       0.01929437       0.02940574      -0.24531733       0.24531733       0.83576097      -0.00802759      -0.00311879      -0.01354011      -0.01929437       0.01005257       0.00776959      -0.00253983       0.00253983      -0.00283799      -0.00802759       0.00802759      -0.00561582      -0.01005257       0.01929437       0.00776959       0.06441436      -0.14275838       0.13692800       0.00347990       0.00606526       0.00729053      -0.06441436       0.14275838       0.13692800      -0.00347990      -0.00606526       0.00729053       0.06441436       0.14275838       0.13692800       0.00347990      -0.00606526       0.00729053      -0.06441436      -0.14275838       0.13692800      -0.00347990       0.00606526       0.00729053       0.24531733       0.24531733       0.83576097       0.00802759      -0.00311879      -0.01354011      -0.00311879       0.00802759      -0.01354011       0.01929437       0.01929437       0.02940574       0.00802759       0.00802759      -0.00561582       0.01005257       0.01929437       0.00776959       0.01929437       0.01005257       0.00776959       0.00253983       0.00253983      -0.00283799       0.14275838      -0.06441436       0.13692800      -0.14275838       0.06441436       0.13692800      -0.00606526      -0.00347990       0.00729053       0.00606526       0.00347990       0.00729053      -0.14275838      -0.06441436       0.13692800       0.14275838       0.06441436       0.13692800       0.00606526      -0.00347990       0.00729053      -0.00606526       0.00347990       0.00729053       0.00311879      -0.00802759      -0.01354011      -0.01929437      -0.01929437       0.02940574      -0.24531733      -0.24531733       0.83576097      -0.00802759       0.00311879      -0.01354011      -0.01929437      -0.01005257       0.00776959      -0.00253983      -0.00253983      -0.00283799      -0.00802759      -0.00802759      -0.00561582      -0.01005257      -0.01929437       0.00776959      -0.06441436       0.06441436      -0.12116789      -0.06441436      -0.06441436      -0.12116789       0.06441436       0.06441436      -0.12116789       0.06441436      -0.06441436      -0.12116789      -0.00347990       0.00347990      -0.00549292      -0.00347990      -0.00347990      -0.00549292       0.00347990       0.00347990      -0.00549292       0.00347990      -0.00347990      -0.00549292       0.24531733      -0.24531733       0.83576097       0.00802759       0.00311879      -0.01354011      -0.00311879      -0.00802759      -0.01354011       0.01929437      -0.01929437       0.02940574       0.00802759      -0.00802759      -0.00561582       0.01005257      -0.01929437       0.00776959       0.01929437      -0.01005257       0.00776959       0.00253983      -0.00253983      -0.00283799 </v>
    <v>       0.01489071       0.00000000       0.00000000      -4.03696000      -0.00000000      -0.00000000       0.01106140       0.00000000       0.00000000       0.00803354       0.00000000      -0.00000000       0.01106140       0.00000000       0.00000000       0.00803354      -0.00000000      -0.00000000       0.00469677      -0.00000000      -0.00000000      -0.04860984       0.00000000      -0.00000000       0.00776959      -0.01005257      -0.01929437      -0.01354011      -0.00802759       0.00311879      -0.00561582      -0.00802759      -0.00802759       0.83576097      -0.24531733      -0.24531733      -0.00283799      -0.00253983      -0.00253983       0.02940574      -0.01929437      -0.01929437       0.00776959      -0.01929437      -0.01005257      -0.01354011       0.00311879      -0.00802759      -0.00549292       0.00347990      -0.00347990      -0.12116789       0.06441436      -0.06441436      -0.00549292       0.00347990       0.00347990      -0.12116789       0.06441436       0.06441436      -0.00549292      -0.00347990      -0.00347990      -0.12116789      -0.06441436      -0.06441436      -0.00549292      -0.00347990       0.00347990      -0.12116789      -0.06441436       0.06441436      -0.00561582       0.00802759       0.00802759       0.83576097       0.24531733       0.24531733       0.00776959       0.01005257       0.01929437      -0.01354011       0.00802759      -0.00311879       0.00776959       0.01929437       0.01005257      -0.01354011      -0.00311879       0.00802759      -0.00283799       0.00253983       0.00253983       0.02940574       0.01929437       0.01929437       0.13692800      -0.06441436      -0.14275838       0.13692800      -0.06441436       0.14275838       0.00729053      -0.00347990       0.00606526       0.00729053      -0.00347990      -0.00606526       0.13692800       0.06441436       0.14275838       0.13692800       0.06441436      -0.14275838       0.00729053       0.00347990      -0.00606526       0.00729053       0.00347990       0.00606526       0.00776959       0.01005257      -0.01929437      -0.01354011       0.00802759       0.00311879      -0.00561582       0.00802759      -0.00802759       0.83576097       0.24531733      -0.24531733      -0.00283799       0.00253983      -0.00253983       0.02940574       0.01929437      -0.01929437       0.00776959       0.01929437      -0.01005257      -0.01354011      -0.00311879      -0.00802759       0.13692800       0.14275838       0.06441436       0.13692800      -0.14275838       0.06441436       0.13692800      -0.14275838      -0.06441436       0.13692800       0.14275838      -0.06441436       0.00729053      -0.00606526       0.00347990       0.00729053       0.00606526       0.00347990       0.00729053       0.00606526      -0.00347990       0.00729053      -0.00606526      -0.00347990      -0.00561582      -0.00802759       0.00802759       0.83576097      -0.24531733       0.24531733       0.00776959      -0.01005257       0.01929437      -0.01354011      -0.00802759      -0.00311879       0.00776959      -0.01929437       0.01005257      -0.01354011       0.00311879       0.00802759      -0.00283799      -0.00253983       0.00253983       0.02940574      -0.01929437       0.01929437 </v>
    <v>       0.00000000       0.00803354      -0.00000000      -0.00000000      -4.03696000      -0.00000000       0.00000000       0.01106140       0.00000000       0.00000000       0.01489071       0.00000000       0.00000000      -0.04860984      -0.00000000      -0.00000000       0.00803354      -0.00000000      -0.00000000       0.00469677      -0.00000000       0.00000000       0.01106140       0.00000000      -0.01005257       0.00776959       0.01929437      -0.00802759      -0.00561582       0.00802759      -0.00802759      -0.01354011      -0.00311879      -0.24531733       0.83576097       0.24531733      -0.00253983      -0.00283799       0.00253983      -0.01929437       0.00776959       0.01005257      -0.01929437       0.02940574       0.01929437       0.00311879      -0.01354011       0.00802759      -0.00347990       0.00729053       0.00606526      -0.06441436       0.13692800      -0.14275838      -0.00347990       0.00729053      -0.00606526      -0.06441436       0.13692800       0.14275838       0.00347990       0.00729053      -0.00606526       0.06441436       0.13692800       0.14275838       0.00347990       0.00729053       0.00606526       0.06441436       0.13692800      -0.14275838       0.00802759      -0.01354011      -0.00311879       0.24531733       0.83576097       0.24531733       0.01005257       0.00776959       0.01929437       0.00802759      -0.00561582       0.00802759       0.01929437       0.02940574       0.01929437      -0.00311879      -0.01354011       0.00802759       0.00253983      -0.00283799       0.00253983       0.01929437       0.00776959       0.01005257       0.06441436      -0.12116789      -0.06441436       0.06441436      -0.12116789       0.06441436       0.00347990      -0.00549292      -0.00347990       0.00347990      -0.00549292       0.00347990      -0.06441436      -0.12116789      -0.06441436      -0.06441436      -0.12116789       0.06441436      -0.00347990      -0.00549292      -0.00347990      -0.00347990      -0.00549292       0.00347990       0.01005257       0.00776959      -0.01929437       0.00802759      -0.00561582      -0.00802759       0.00802759      -0.01354011       0.00311879       0.24531733       0.83576097      -0.24531733       0.00253983      -0.00283799      -0.00253983       0.01929437       0.00776959      -0.01005257       0.01929437       0.02940574      -0.01929437      -0.00311879      -0.01354011      -0.00802759       0.14275838       0.13692800       0.06441436      -0.14275838       0.13692800      -0.06441436      -0.14275838       0.13692800       0.06441436       0.14275838       0.13692800      -0.06441436      -0.00606526       0.00729053       0.00347990       0.00606526       0.00729053      -0.00347990       0.00606526       0.00729053       0.00347990      -0.00606526       0.00729053      -0.00347990      -0.00802759      -0.01354011       0.00311879      -0.24531733       0.83576097      -0.24531733      -0.01005257       0.00776959      -0.01929437      -0.00802759      -0.00561582      -0.00802759      -0.01929437       0.02940574      -0.01929437       0.00311879      -0.01354011      -0.00802759      -0.00253983      -0.00283799      -0.00253983      -0.01929437       0.00776959      -0.01005257 </v>
    <v>       0.00000000      -0.00000000       0.00803354      -0.00000000      -0.00000000      -4.03696000       0.00000000       0.00000000      -0.04860984      -0.00000000       0.00000000       0.00803354       0.00000000      -0.00000000       0.01106140      -0.00000000      -0.00000000       0.01489071      -0.00000000      -0.00000000       0.00469677      -0.00000000       0.00000000       0.01106140      -0.01929437       0.01929437       0.02940574       0.00311879       0.00802759      -0.01354011      -0.00802759      -0.00311879      -0.01354011      -0.24531733       0.24531733       0.83576097      -0.00253983       0.00253983      -0.00283799      -0.01929437       0.01005257       0.00776959      -0.01005257       0.01929437       0.00776959      -0.00802759       0.00802759      -0.00561582       0.00347990       0.00606526       0.00729053       0.06441436      -0.14275838       0.13692800      -0.00347990      -0.00606526       0.00729053      -0.06441436       0.14275838       0.13692800       0.00347990      -0.00606526       0.00729053       0.06441436       0.14275838       0.13692800      -0.00347990       0.00606526       0.00729053      -0.06441436      -0.14275838       0.13692800       0.00802759      -0.00311879      -0.01354011       0.24531733       0.24531733       0.83576097       0.01929437       0.01929437       0.02940574      -0.00311879       0.00802759      -0.01354011       0.01005257       0.01929437       0.00776959       0.00802759       0.00802759      -0.00561582       0.00253983       0.00253983      -0.00283799       0.01929437       0.01005257       0.00776959      -0.14275838       0.06441436       0.13692800       0.14275838      -0.06441436       0.13692800       0.00606526       0.00347990       0.00729053      -0.00606526      -0.00347990       0.00729053       0.14275838       0.06441436       0.13692800      -0.14275838      -0.06441436       0.13692800      -0.00606526       0.00347990       0.00729053       0.00606526      -0.00347990       0.00729053      -0.01929437      -0.01929437       0.02940574       0.00311879      -0.00802759      -0.01354011      -0.00802759       0.00311879      -0.01354011      -0.24531733      -0.24531733       0.83576097      -0.00253983      -0.00253983      -0.00283799      -0.01929437      -0.01005257       0.00776959      -0.01005257      -0.01929437       0.00776959      -0.00802759      -0.00802759      -0.00561582      -0.06441436      -0.06441436      -0.12116789      -0.06441436       0.06441436      -0.12116789       0.06441436      -0.06441436      -0.12116789       0.06441436       0.06441436      -0.12116789      -0.00347990      -0.00347990      -0.00549292      -0.00347990       0.00347990      -0.00549292       0.00347990      -0.00347990      -0.00549292       0.00347990       0.00347990      -0.00549292       0.00802759       0.00311879      -0.01354011       0.24531733      -0.24531733       0.83576097       0.01929437      -0.01929437       0.02940574      -0.00311879      -0.00802759      -0.01354011       0.01005257      -0.01929437       0.00776959       0.00802759      -0.00802759      -0.00561582       0.00253983      -0.00253983      -0.00283799       0.01929437      -0.01005257       0.00776959 </v>
    <v>       0.00803354       0.00000000      -0.00000000       0.01106140       0.00000000       0.00000000      -4.03696000      -0.00000000      -0.00000000       0.01489071       0.00000000       0.00000000      -0.04860984       0.00000000      -0.00000000       0.00469677      -0.00000000      -0.00000000       0.00803354      -0.00000000      -0.00000000       0.01106140       0.00000000       0.00000000       0.83576097      -0.24531733      -0.24531733      -0.00561582      -0.00802759      -0.00802759      -0.01354011      -0.00802759       0.00311879       0.00776959      -0.01005257      -0.01929437      -0.01354011       0.00311879      -0.00802759       0.00776959      -0.01929437      -0.01005257       0.02940574      -0.01929437      -0.01929437      -0.00283799      -0.00253983      -0.00253983      -0.12116789       0.06441436       0.06441436      -0.00549292       0.00347990       0.00347990      -0.12116789       0.06441436      -0.06441436      -0.00549292       0.00347990      -0.00347990      -0.12116789      -0.06441436       0.06441436      -0.00549292      -0.00347990       0.00347990      -0.12116789      -0.06441436      -0.06441436      -0.00549292      -0.00347990      -0.00347990      -0.01354011       0.00802759      -0.00311879       0.00776959       0.01005257       0.01929437       0.83576097       0.24531733       0.24531733      -0.00561582       0.00802759       0.00802759       0.02940574       0.01929437       0.01929437      -0.00283799       0.00253983       0.00253983      -0.01354011      -0.00311879       0.00802759       0.00776959       0.01929437       0.01005257       0.00729053      -0.00347990      -0.00606526       0.00729053      -0.00347990       0.00606526       0.13692800      -0.06441436       0.14275838       0.13692800      -0.06441436      -0.14275838       0.00729053       0.00347990       0.00606526       0.00729053       0.00347990      -0.00606526       0.13692800       0.06441436      -0.14275838       0.13692800       0.06441436       0.14275838       0.83576097       0.24531733      -0.24531733      -0.00561582       0.00802759      -0.00802759      -0.01354011       0.00802759       0.00311879       0.00776959       0.01005257      -0.01929437      -0.01354011      -0.00311879      -0.00802759       0.00776959       0.01929437      -0.01005257       0.02940574       0.01929437      -0.01929437      -0.00283799       0.00253983      -0.00253983       0.13692800       0.14275838      -0.06441436       0.13692800      -0.14275838      -0.06441436       0.13692800      -0.14275838       0.06441436       0.13692800       0.14275838       0.06441436       0.00729053      -0.00606526      -0.00347990       0.00729053       0.00606526      -0.00347990       0.00729053       0.00606526       0.00347990       0.00729053      -0.00606526       0.00347990      -0.01354011      -0.00802759      -0.00311879       0.00776959      -0.01005257       0.01929437       0.83576097      -0.24531733       0.24531733      -0.00561582      -0.00802759       0.00802759       0.02940574      -0.01929437       0.01929437      -0.00283799      -0.00253983       0.00253983      -0.01354011       0.00311879       0.00802759       0.00776959      -0.01929437       0.01005257 </v>
    <v>       0.00000000       0.01489071       0.00000000       0.00000000       0.01106140       0.00000000      -0.00000000      -4.03696000      -0.00000000       0.00000000       0.00803354      -0.00000000       0.00000000       0.01106140       0.00000000      -0.00000000       0.00469677      -0.00000000      -0.00000000       0.00803354      -0.00000000       0.00000000      -0.04860984      -0.00000000      -0.24531733       0.83576097       0.24531733      -0.00802759      -0.01354011      -0.00311879      -0.00802759      -0.00561582       0.00802759      -0.01005257       0.00776959       0.01929437       0.00311879      -0.01354011       0.00802759      -0.01929437       0.02940574       0.01929437      -0.01929437       0.00776959       0.01005257      -0.00253983      -0.00283799       0.00253983      -0.06441436       0.13692800       0.14275838      -0.00347990       0.00729053      -0.00606526      -0.06441436       0.13692800      -0.14275838      -0.00347990       0.00729053       0.00606526       0.06441436       0.13692800      -0.14275838       0.00347990       0.00729053       0.00606526       0.06441436       0.13692800       0.14275838       0.00347990       0.00729053      -0.00606526       0.00802759      -0.00561582       0.00802759       0.01005257       0.00776959       0.01929437       0.24531733       0.83576097       0.24531733       0.00802759      -0.01354011      -0.00311879       0.01929437       0.00776959       0.01005257       0.00253983      -0.00283799       0.00253983      -0.00311879      -0.01354011       0.00802759       0.01929437       0.02940574       0.01929437       0.00347990      -0.00549292       0.00347990       0.00347990      -0.00549292      -0.00347990       0.06441436      -0.12116789       0.06441436       0.06441436      -0.12116789      -0.06441436      -0.00347990      -0.00549292       0.00347990      -0.00347990      -0.00549292      -0.00347990      -0.06441436      -0.12116789       0.06441436      -0.06441436      -0.12116789      -0.06441436       0.24531733       0.83576097      -0.24531733       0.00802759      -0.01354011       0.00311879       0.00802759      -0.00561582      -0.00802759       0.01005257       0.00776959      -0.01929437      -0.00311879      -0.01354011      -0.00802759       0.01929437       0.02940574      -0.01929437       0.01929437       0.00776959      -0.01005257       0.00253983      -0.00283799      -0.00253983       0.14275838       0.13692800      -0.06441436      -0.14275838       0.13692800       0.06441436      -0.14275838       0.13692800      -0.06441436       0.14275838       0.13692800       0.06441436      -0.00606526       0.00729053      -0.00347990       0.00606526       0.00729053       0.00347990       0.00606526       0.00729053      -0.00347990      -0.00606526       0.00729053       0.00347990      -0.00802759      -0.00561582      -0.00802759      -0.01005257       0.00776959      -0.01929437      -0.24531733       0.83576097      -0.24531733      -0.00802759      -0.01354011       0.00311879      -0.01929437       0.00776959      -0.01005257      -0.00253983      -0.00283799      -0.00253983       0.00311879      -0.01354011      -0.00802759      -0.01929437       0.02940574      -0.01929437 </v>
    <v>      -0.00000000       0.00000000       0.00803354       0.00000000       0.00000000      -0.04860984      -0.00000000      -0.00000000      -4.03696000       0.00000000      -0.00000000       0.00803354      -0.00000000       0.00000000       0.01106140      -0.00000000      -0.00000000       0.00469677      -0.00000000      -0.00000000       0.01489071       0.00000000      -0.00000000       0.01106140      -0.24531733       0.24531733       0.83576097      -0.00802759      -0.00311879      -0.01354011       0.00311879       0.00802759      -0.01354011      -0.01929437       0.01929437       0.02940574      -0.00802759       0.00802759      -0.00561582      -0.01005257       0.01929437       0.00776959      -0.01929437       0.01005257       0.00776959      -0.00253983       0.00253983      -0.00283799      -0.06441436       0.14275838       0.13692800      -0.00347990      -0.00606526       0.00729053       0.06441436      -0.14275838       0.13692800       0.00347990       0.00606526       0.00729053      -0.06441436      -0.14275838       0.13692800      -0.00347990       0.00606526       0.00729053       0.06441436       0.14275838       0.13692800       0.00347990      -0.00606526       0.00729053      -0.00311879       0.00802759      -0.01354011       0.01929437       0.01929437       0.02940574       0.24531733       0.24531733       0.83576097       0.00802759      -0.00311879      -0.01354011       0.01929437       0.01005257       0.00776959       0.00253983       0.00253983      -0.00283799       0.00802759       0.00802759      -0.00561582       0.01005257       0.01929437       0.00776959      -0.00606526      -0.00347990       0.00729053       0.00606526       0.00347990       0.00729053       0.14275838      -0.06441436       0.13692800      -0.14275838       0.06441436       0.13692800       0.00606526      -0.00347990       0.00729053      -0.00606526       0.00347990       0.00729053      -0.14275838      -0.06441436       0.13692800       0.14275838       0.06441436       0.13692800      -0.24531733      -0.24531733       0.83576097      -0.00802759       0.00311879      -0.01354011       0.00311879      -0.00802759      -0.01354011      -0.01929437      -0.01929437       0.02940574      -0.00802759      -0.00802759      -0.00561582      -0.01005257      -0.01929437       0.00776959      -0.01929437      -0.01005257       0.00776959      -0.00253983      -0.00253983      -0.00283799       0.06441436       0.06441436      -0.12116789       0.06441436      -0.06441436      -0.12116789      -0.06441436       0.06441436      -0.12116789      -0.06441436      -0.06441436      -0.12116789       0.00347990       0.00347990      -0.00549292       0.00347990      -0.00347990      -0.00549292      -0.00347990       0.00347990      -0.00549292      -0.00347990      -0.00347990      -0.00549292      -0.00311879      -0.00802759      -0.01354011       0.01929437      -0.01929437       0.02940574       0.24531733      -0.24531733       0.83576097       0.00802759       0.00311879      -0.01354011       0.01929437      -0.01005257       0.00776959       0.00253983      -0.00253983      -0.00283799       0.00802759      -0.00802759      -0.00561582       0.01005257      -0.01929437       0.00776959 </v>
[...]
      </set>
     </set>
    </set>
   </array>
  </eigenvalues>
  <separator name="orbital magnetization" >
   <v name="MAGDIPOLOUT">      0.00000000      0.00000000      0.00000000</v>
  </separator>
  <dos>
   <i name="efermi">     10.64620676 </i>
   <total>
    <array>
     <dimension dim="1">gridpoints</dimension>
     <dimension dim="2">spin</dimension>
     <field>energy</field>
     <field>total</field>
     <field>integrated</field>
     <set>
      <set comment="spin 1">
       <r>   -13.3816     0.0000     0.0000 </r>
       <r>   -13.2565     0.0000     0.0000 </r>
       <r>   -13.1315     0.0000     0.0000 </r>
       <r>   -13.0064     0.0000     0.0000 </r>
       <r>   -12.8813     0.0000     0.0000 </r>
       <r>   -12.7563     0.0000     0.0000 </r>
       <r>   -12.6312     0.0000     0.0000 </r>
       <r>   -12.5061     0.0000     0.0000 </r>
       <r>   -12.3811     0.0000     0.0000 </r>
       <r>   -12.2560     0.0000     0.0000 </r>
       <r>   -12.1310     0.0000     0.0000 </r>
       <r>   -12.0059     0.0000     0.0000 </r>
       <r>   -11.8808     0.0000     0.0000 </r>
       <r>   -11.7558     0.0024     0.0003 </r>
       <r>   -11.6307     0.2194     0.0277 </r>
       <r>   -11.5056     1.1810     0.1754 </r>
       <r>   -11.3806     1.3264     0.3413 </r>
       <r>   -11.2555     2.7559     0.6860 </r>
       <r>   -11.1305     1.4164     0.8631 </r>
       <r>   -11.0054     3.4181     1.2906 </r>
       <r>   -10.8803     2.7466     1.6341 </r>
       <r>   -10.7553     3.6607     2.0919 </r>
       <r>   -10.6302     2.2246     2.3701 </r>
       <r>   -10.5051     4.4127     2.9220 </r>
       <r>   -10.3801     4.1608     3.4424 </r>
       <r>   -10.2550     4.8460     4.0484 </r>
       <r>   -10.1299     2.2670     4.3320 </r>
       <r>   -10.0049     4.2753     4.8666 </r>
       <r>    -9.8798     6.3079     5.6555 </r>
       <r>    -9.7548     5.0803     6.2909 </r>
       <r>    -9.6297     4.4871     6.8520 </r>
       <r>    -9.5046     3.6234     7.3052 </r>
       <r>    -9.3796     6.6574     8.1378 </r>
       <r>    -9.2545     4.8377     8.7428 </r>
       <r>    -9.1294     5.5708     9.4395 </r>
       <r>    -9.0044     5.8352    10.1693 </r>
       <r>    -8.8793     7.5565    11.1143 </r>
       <r>    -8.7542     5.4197    11.7921 </r>
       <r>    -8.6292     5.9185    12.5323 </r>
       <r>    -8.5041     2.9180    12.8973 </r>
       <r>    -8.3791     9.0994    14.0353 </r>
       <r>    -8.2540     6.6532    14.8673 </r>
       <r>    -8.1289     9.5390    16.0603 </r>
       <r>    -8.0039     5.4528    16.7423 </r>
       <r>    -7.8788     5.9825    17.4905 </r>
       <r>    -7.7537     6.2214    18.2685 </r>
       <r>    -7.6287     8.8834    19.3795 </r>
       <r>    -7.5036     4.4231    19.9327 </r>
       <r>    -7.3785    11.2210    21.3360 </r>
       <r>    -7.2535     7.8826    22.3219 </r>
       <r>    -7.1284     7.8426    23.3027 </r>
       <r>    -7.0034     4.7707    23.8993 </r>
       <r>    -6.8783    12.6453    25.4808 </r>
       <r>    -6.7532     9.0020    26.6066 </r>
       <r>    -6.6282     5.5323    27.2985 </r>
       <r>    -6.5031     7.2216    28.2017 </r>
       <r>    -6.3780     9.5866    29.4006 </r>
       <r>    -6.2530     9.8022    30.6265 </r>
       <r>    -6.1279     9.8522    31.8586 </r>
       <r>    -6.0029    13.1338    33.5012 </r>
       <r>    -5.8778     9.2544    34.6586 </r>
       <r>    -5.7527    10.2973    35.9464 </r>
       <r>    -5.6277     7.9760    36.9439 </r>
       <r>    -5.5026    11.1065    38.3329 </r>
       <r>    -5.3775    11.7307    39.8000 </r>
       <r>    -5.2525    13.9657    41.5466 </r>
       <r>    -5.1274    10.7461    42.8905 </r>
       <r>    -5.0023    10.8828    44.2516 </r>
       <r>    -4.8773     8.4825    45.3124 </r>
       <r>    -4.7522    12.4377    46.8679 </r>
       <r>    -4.6272    12.2947    48.4055 </r>
       <r>    -4.5021     5.2067    49.0567 </r>
       <r>    -4.3770    12.6028    50.6329 </r>
       <r>    -4.2520     6.7956    51.4827 </r>
       <r>    -4.1269     6.8706    52.3420 </r>
       <r>    -4.0018     6.5910    53.1663 </r>
       <r>    -3.8768    13.7627    54.8875 </r>
       <r>    -3.7517     7.5024    55.8258 </r>
       <r>    -3.6266     2.9990    56.2008 </r>
       <r>    -3.5016    12.3192    57.7415 </r>
       <r>    -3.3765     7.3492    58.6606 </r>
       <r>    -3.2515    12.9158    60.2759 </r>
       <r>    -3.1264     5.0984    60.9136 </r>
       <r>    -3.0013     6.9606    61.7841 </r>
       <r>    -2.8763     8.9912    62.9086 </r>
       <r>    -2.7512     3.4218    63.3365 </r>
       <r>    -2.6261    10.0557    64.5941 </r>
       <r>    -2.5011    13.5894    66.2936 </r>
       <r>    -2.3760    12.6784    67.8792 </r>
       <r>    -2.2510     7.7200    68.8447 </r>
       <r>    -2.1259     7.8632    69.8281 </r>
       <r>    -2.0008    10.9370    71.1959 </r>
       <r>    -1.8758    11.3116    72.6106 </r>
       <r>    -1.7507     9.0656    73.7444 </r>
       <r>    -1.6256     8.9070    74.8583 </r>
       <r>    -1.5006    16.5778    76.9316 </r>
       <r>    -1.3755    15.2466    78.8384 </r>
       <r>    -1.2504    16.0907    80.8507 </r>
       <r>    -1.1254    27.1551    84.2469 </r>
       <r>    -1.0003    22.7673    87.0942 </r>
       <r>    -0.8753    11.7308    88.5613 </r>
       <r>    -0.7502    10.0117    89.8134 </r>
       <r>    -0.6251     7.7155    90.7783 </r>
       <r>    -0.5001     8.9880    91.9024 </r>
       <r>    -0.3750     9.7051    93.1161 </r>
       <r>    -0.2499    12.0707    94.6258 </r>
       <r>    -0.1249     5.8002    95.3511 </r>
       <r>     0.0002    10.1854    96.6250 </r>
       <r>     0.1253    13.8521    98.3574 </r>
       <r>     0.2503    16.2676   100.3918 </r>
       <r>     0.3754     8.7522   101.4864 </r>
       <r>     0.5004     3.4555   101.9186 </r>
       <r>     0.6255     3.4292   102.3474 </r>
       <r>     0.7506    12.4232   103.9011 </r>
       <r>     0.8756    16.7654   105.9979 </r>
       <r>     1.0007     7.0812   106.8835 </r>
       <r>     1.1258    11.4536   108.3159 </r>
       <r>     1.2508    15.1339   110.2086 </r>
       <r>     1.3759    19.6767   112.6694 </r>
       <r>     1.5009    20.9026   115.2836 </r>
       <r>     1.6260    18.6528   117.6164 </r>
       <r>     1.7511     7.9579   118.6116 </r>
       <r>     1.8761    15.6348   120.5670 </r>
       <r>     2.0012     9.6692   121.7762 </r>
       <r>     2.1263    16.8108   123.8786 </r>
       <r>     2.2513    26.7168   127.2199 </r>
       <r>     2.3764    17.4971   129.4082 </r>
       <r>     2.5015    10.2113   130.6852 </r>
       <r>     2.6265    12.5859   132.2593 </r>
       <r>     2.7516    16.5868   134.3337 </r>
       <r>     2.8766    19.4556   136.7668 </r>
       <r>     3.0017    22.9136   139.6325 </r>
       <r>     3.1268    14.8453   141.4891 </r>
       <r>     3.2518    16.6842   143.5757 </r>
       <r>     3.3769    22.2541   146.3588 </r>
       <r>     3.5020    18.0267   148.6133 </r>
       <r>     3.6270    15.8540   150.5961 </r>
       <r>     3.7521    26.4231   153.9006 </r>
       <r>     3.8772    25.6197   157.1047 </r>
       <r>     4.0022    34.2945   161.3937 </r>
       <r>     4.1273     9.3840   162.5673 </r>
       <r>     4.2523    23.5254   165.5095 </r>
       <r>     4.3774    20.6778   168.0955 </r>
       <r>     4.5025    28.3416   171.6400 </r>
       <r>     4.6275    31.0063   175.5178 </r>
       <r>     4.7526    24.7152   178.6087 </r>
       <r>     4.8777    18.4906   180.9212 </r>
       <r>     5.0027    25.0765   184.0574 </r>
       <r>     5.1278    18.9200   186.4236 </r>
       <r>     5.2528    19.5100   188.8636 </r>
       <r>     5.3779    18.5304   191.1810 </r>
       <r>     5.5030    28.3100   194.7216 </r>
       <r>     5.6280    26.7351   198.0652 </r>
       <r>     5.7531    19.6032   200.5168 </r>
       <r>     5.8782    21.7143   203.2325 </r>
       <r>     6.0032    19.8689   205.7173 </r>
       <r>     6.1283    18.5130   208.0326 </r>
       <r>     6.2534    25.2572   211.1914 </r>
       <r>     6.3784    15.8340   213.1716 </r>
       <r>     6.5035    15.5595   215.1175 </r>
       <r>     6.6285    28.5830   218.6922 </r>
       <r>     6.7536    21.3932   221.3677 </r>
       <r>     6.8787    21.4401   224.0491 </r>
       <r>     7.0037    20.4776   226.6101 </r>
       <r>     7.1288    15.8191   228.5885 </r>
       <r>     7.2539    12.0004   230.0893 </r>
       <r>     7.3789    18.5210   232.4056 </r>
       <r>     7.5040    25.1014   235.5449 </r>
       <r>     7.6291    26.9469   238.9149 </r>
       <r>     7.7541     7.2627   239.8232 </r>
       <r>     7.8792     6.6965   240.6607 </r>
       <r>     8.0042    11.0511   242.0428 </r>
       <r>     8.1293    13.7036   243.7566 </r>
       <r>     8.2544     8.8993   244.8696 </r>
       <r>     8.3794    14.4513   246.6769 </r>
       <r>     8.5045     6.6683   247.5109 </r>
       <r>     8.6296     8.1846   248.5345 </r>
       <r>     8.7546     6.0412   249.2900 </r>
       <r>     8.8797     5.8159   250.0174 </r>
       <r>     9.0048     7.5810   250.9655 </r>
       <r>     9.1298     7.6352   251.9204 </r>
       <r>     9.2549     4.7552   252.5151 </r>
       <r>     9.3799     2.6747   252.8496 </r>
       <r>     9.5050     7.2721   253.7591 </r>
       <r>     9.6301     4.1820   254.2821 </r>
       <r>     9.7551     2.6304   254.6110 </r>
       <r>     9.8802     2.7616   254.9564 </r>
       <r>    10.0053     2.7795   255.3040 </r>
       <r>    10.1303     3.6513   255.7607 </r>
       <r>    10.2554     0.7808   255.8583 </r>
       <r>    10.3804     0.9696   255.9796 </r>
       <r>    10.5055     0.1626   255.9999 </r>
       <r>    10.6306     0.0006   256.0000 </r>
       <r>    10.7556     0.0000   256.0000 </r>
       <r>    10.8807     0.0000   256.0000 </r>
       <r>    11.0058     0.0000   256.0000 </r>
       <r>    11.1308     0.0000   256.0000 </r>
       <r>    11.2559     0.0000   256.0000 </r>
       <r>    11.3810     0.0000   256.0000 </r>
       <r>    11.5060     0.0000   256.0000 </r>
       <r>    11.6311     0.0000   256.0000 </r>
       <r>    11.7561     0.0000   256.0000 </r>
       <r>    11.8812     0.0000   256.0000 </r>
       <r>    12.0063     0.0000   256.0000 </r>
       <r>    12.1313     0.0000   256.0000 </r>
       <r>    12.2564     0.0000   256.0000 </r>
       <r>    12.3815     0.0000   256.0000 </r>
       <r>    12.5065     0.0000   256.0000 </r>
       <r>    12.6316     0.0000   256.0000 </r>
       <r>    12.7567     0.0000   256.0000 </r>
       <r>    12.8817     0.0000   256.0000 </r>
       <r>    13.0068     0.0000   256.0000 </r>
       <r>    13.1318     0.0000   256.0000 </r>
       <r>    13.2569     0.0000   256.0000 </r>
       <r>    13.3820     0.0000   256.0000 </r>
       <r>    13.5070     0.0000   256.0000 </r>
       <r>    13.6321     0.0000   256.0000 </r>
       <r>    13.7572     0.0000   256.0000 </r>
       <r>    13.8822     0.0000   256.0000 </r>
       <r>    14.0073     0.0000   256.0000 </r>
       <r>    14.1323     0.0000   256.0000 </r>
       <r>    14.2574     0.0000   256.0000 </r>
       <r>    14.3825     0.0000   256.0000 </r>
       <r>    14.5075     0.0086   256.0011 </r>
       <r>    14.6326     0.6663   256.0844 </r>
       <r>    14.7577     0.9341   256.2012 </r>
       <r>    14.8827     1.8141   256.4281 </r>
       <r>    15.0078     4.8763   257.0380 </r>
       <r>    15.1329     5.6091   257.7394 </r>
       <r>    15.2579     7.3032   258.6528 </r>
       <r>    15.3830     2.9718   259.0245 </r>
       <r>    15.5080     4.6130   259.6014 </r>
       <r>    15.6331     4.0446   260.1072 </r>
       <r>    15.7582    22.0576   262.8658 </r>
       <r>    15.8832     8.5588   263.9362 </r>
       <r>    16.0083    11.4254   265.3651 </r>
       <r>    16.1334     8.9964   266.4902 </r>
       <r>    16.2584    15.3686   268.4123 </r>
       <r>    16.3835    10.5194   269.7279 </r>
       <r>    16.5086    11.5506   271.1724 </r>
       <r>    16.6336    17.8642   273.4066 </r>
       <r>    16.7587    17.0209   275.5353 </r>
       <r>    16.8837    16.9529   277.6555 </r>
       <r>    17.0088    19.0697   280.0404 </r>
       <r>    17.1339    13.9553   281.7857 </r>
       <r>    17.2589    16.5456   283.8550 </r>
       <r>    17.3840    20.0055   286.3569 </r>
       <r>    17.5091    24.5773   289.4306 </r>
       <r>    17.6341    15.1895   291.3303 </r>
       <r>    17.7592    17.4495   293.5126 </r>
       <r>    17.8842    28.6862   297.1002 </r>
       <r>    18.0093    14.7784   298.9484 </r>
       <r>    18.1344    12.2977   300.4864 </r>
       <r>    18.2594    18.3542   302.7818 </r>
       <r>    18.3845    34.0764   307.0435 </r>
       <r>    18.5096    46.6588   312.8789 </r>
       <r>    18.6346    37.1742   317.5280 </r>
       <r>    18.7597    22.5125   320.3435 </r>
       <r>    18.8848    23.5465   323.2883 </r>
       <r>    19.0098    23.2828   326.2001 </r>
       <r>    19.1349    23.4020   329.1268 </r>
       <r>    19.2599    33.1447   333.2720 </r>
       <r>    19.3850    28.1042   336.7868 </r>
       <r>    19.5101    32.3544   340.8332 </r>
       <r>    19.6351    32.6240   344.9132 </r>
       <r>    19.7602    28.6943   348.5019 </r>
       <r>    19.8853    22.9530   351.3724 </r>
       <r>    20.0103    34.2980   355.6619 </r>
       <r>    20.1354    27.4268   359.0919 </r>
       <r>    20.2605    19.1888   361.4918 </r>
       <r>    20.3855    22.0133   364.2448 </r>
       <r>    20.5106    34.0164   368.4990 </r>
       <r>    20.6356    23.7325   371.4671 </r>
       <r>    20.7607    15.9721   373.4646 </r>
       <r>    20.8858    28.5152   377.0308 </r>
       <r>    21.0108    16.7365   379.1239 </r>
       <r>    21.1359    13.3784   380.7971 </r>
       <r>    21.2610     3.0615   381.1800 </r>
       <r>    21.3860     5.9109   381.9192 </r>
       <r>    21.5111     6.0938   382.6813 </r>
       <r>    21.6361     3.2324   383.0856 </r>
       <r>    21.7612     2.3703   383.3820 </r>
       <r>    21.8863     1.9616   383.6273 </r>
       <r>    22.0113     0.0198   383.6298 </r>
       <r>    22.1364     0.5417   383.6975 </r>
       <r>    22.2615     0.6389   383.7775 </r>
       <r>    22.3865     0.2894   383.8137 </r>
       <r>    22.5116     1.4452   383.9944 </r>
       <r>    22.6367     0.0449   384.0000 </r>
       <r>    22.7617     0.0000   384.0000 </r>
       <r>    22.8868     0.0000   384.0000 </r>
       <r>    23.0118     0.0000   384.0000 </r>
       <r>    23.1369     0.0000   384.0000 </r>
       <r>    23.2620     0.0000   384.0000 </r>
       <r>    23.3870     0.0000   384.0000 </r>
       <r>    23.5121     0.0000   384.0000 </r>
       <r>    23.6372     0.0000   384.0000 </r>
       <r>    23.7622     0.0000   384.0000 </r>
       <r>    23.8873     0.0000   384.0000 </r>
       <r>    24.0124     0.0000   384.0000 </r>
       <r>    24.1374     0.0000   384.0000 </r>
      </set>
     </set>
    </array>
   </total>
  </dos>
 </calculation>
 <structure name="finalpos" >
  <crystal>
   <varray name="basis" >
    <v>       7.03493249       0.00000000       0.00000000 </v>
    <v>       0.00000000       7.03493249       0.00000000 </v>
    <v>       0.00000000       0.00000000       7.03493249 </v>
   </varray>
   <i name="volume">    348.16074460 </i>
   <varray name="rec_basis" >
    <v>       0.14214777       0.00000000       0.00000000 </v>
    <v>       0.00000000       0.14214777       0.00000000 </v>
    <v>       0.00000000       0.00000000       0.14214777 </v>
   </varray>
  </crystal>
  <varray name="positions" >
   <v>       0.12500000       0.37500000       0.12500000 </v>
   <v>       0.62500000       0.37500000       0.12500000 </v>
   <v>       0.12500000       0.87500000       0.12500000 </v>
   <v>       0.62500000       0.87500000       0.12500000 </v>
   <v>       0.12500000       0.37500000       0.62500000 </v>
   <v>       0.62500000       0.37500000       0.62500000 </v>
   <v>       0.12500000       0.87500000       0.62500000 </v>
   <v>       0.62500000       0.87500000       0.62500000 </v>
   <v>       0.00000000       0.00000000       0.25000000 </v>
   <v>       0.50000000       0.00000000       0.25000000 </v>
   <v>       0.00000000       0.50000000       0.25000000 </v>
   <v>       0.50000000       0.50000000       0.25000000 </v>
   <v>       0.00000000       0.00000000       0.75000000 </v>
   <v>       0.50000000       0.00000000       0.75000000 </v>
   <v>       0.00000000       0.50000000       0.75000000 </v>
   <v>       0.50000000       0.50000000       0.75000000 </v>
   <v>       0.12500000       0.12500000       0.37500000 </v>
   <v>       0.62500000       0.12500000       0.37500000 </v>
   <v>       0.12500000       0.62500000       0.37500000 </v>
   <v>       0.62500000       0.62500000       0.37500000 </v>
   <v>       0.12500000       0.12500000       0.87500000 </v>
   <v>       0.62500000       0.12500000       0.87500000 </v>
   <v>       0.12500000       0.62500000       0.87500000 </v>
   <v>       0.62500000       0.62500000       0.87500000 </v>
   <v>       0.00000000       0.25000000       0.00000000 </v>
   <v>       0.50000000       0.25000000       0.00000000 </v>
   <v>       0.00000000       0.75000000       0.00000000 </v>
   <v>       0.50000000       0.75000000       0.00000000 </v>
   <v>       0.00000000       0.25000000       0.50000000 </v>
   <v>       0.50000000       0.25000000       0.50000000 </v>
   <v>       0.00000000       0.75000000       0.50000000 </v>
   <v>       0.50000000       0.75000000       0.50000000 </v>
   <v>       0.37500000       0.37500000       0.37500000 </v>
   <v>       0.87500000       0.37500000       0.37500000 </v>
   <v>       0.37500000       0.87500000       0.37500000 </v>
   <v>       0.87500000       0.87500000       0.37500000 </v>
   <v>       0.37500000       0.37500000       0.87500000 </v>
   <v>       0.87500000       0.37500000       0.87500000 </v>
   <v>       0.37500000       0.87500000       0.87500000 </v>
   <v>       0.87500000       0.87500000       0.87500000 </v>
   <v>       0.25000000       0.00000000       0.00000000 </v>
   <v>       0.75000000       0.00000000       0.00000000 </v>
   <v>       0.25000000       0.50000000       0.00000000 </v>
   <v>       0.75000000       0.50000000       0.00000000 </v>
   <v>       0.25000000       0.00000000       0.50000000 </v>
   <v>       0.75000000       0.00000000       0.50000000 </v>
   <v>       0.25000000       0.50000000       0.50000000 </v>
   <v>       0.75000000       0.50000000       0.50000000 </v>
   <v>       0.37500000       0.12500000       0.12500000 </v>
   <v>       0.87500000       0.12500000       0.12500000 </v>
   <v>       0.37500000       0.62500000       0.12500000 </v>
   <v>       0.87500000       0.62500000       0.12500000 </v>
   <v>       0.37500000       0.12500000       0.62500000 </v>
   <v>       0.87500000       0.12500000       0.62500000 </v>
   <v>       0.37500000       0.62500000       0.62500000 </v>
   <v>       0.87500000       0.62500000       0.62500000 </v>
   <v>       0.25000000       0.25000000       0.25000000 </v>
   <v>       0.75000000       0.25000000       0.25000000 </v>
   <v>       0.25000000       0.75000000       0.25000000 </v>
   <v>       0.75000000       0.75000000       0.25000000 </v>
   <v>       0.25000000       0.25000000       0.75000000 </v>
   <v>       0.75000000       0.25000000       0.75000000 </v>
   <v>       0.25000000       0.75000000       0.75000000 </v>
   <v>       0.75000000       0.75000000       0.75000000 </v>
  </varray>
 </structure>
</modeling>
