   8   8   0   0
  0.5704311E+01  0.3573710E-09  0.3573710E-09  0.3573710E-09  0.2000000E-16
  1.000000000000000E-004
  CAR 
 unknown system                          
     23.12522978    -13.38847743  301      9.75208451      1.00000000
    -13.388  0.0000E+00  0.0000E+00
    -13.267  0.0000E+00  0.0000E+00
    -13.145  0.0000E+00  0.0000E+00
    -13.023  0.0000E+00  0.0000E+00
    -12.902  0.0000E+00  0.0000E+00
    -12.780  0.0000E+00  0.0000E+00
    -12.658  0.0000E+00  0.0000E+00
    -12.536  0.0000E+00  0.0000E+00
    -12.415  0.0000E+00  0.0000E+00
    -12.293  0.0000E+00  0.0000E+00
    -12.171  0.0000E+00  0.0000E+00
    -12.050  0.0000E+00  0.0000E+00
    -11.928  0.0000E+00  0.0000E+00
    -11.806  0.0000E+00  0.0000E+00
    -11.685  0.3536E-01  0.5217E-03
    -11.563  0.1544E+00  0.1497E-01
    -11.441  0.2411E+00  0.3904E-01
    -11.319  0.2730E+00  0.7001E-01
    -11.198  0.3204E+00  0.1061E+00
    -11.076  0.3603E+00  0.1480E+00
    -10.954  0.3896E+00  0.1936E+00
    -10.833  0.4207E+00  0.2428E+00
    -10.711  0.4589E+00  0.2963E+00
    -10.589  0.4820E+00  0.3538E+00
    -10.467  0.5054E+00  0.4139E+00
    -10.346  0.5313E+00  0.4769E+00
    -10.224  0.5596E+00  0.5433E+00
    -10.102  0.5867E+00  0.6131E+00
     -9.981  0.6059E+00  0.6856E+00
     -9.859  0.6267E+00  0.7606E+00
     -9.737  0.6503E+00  0.8383E+00
     -9.615  0.6750E+00  0.9189E+00
     -9.494  0.7020E+00  0.1003E+01
     -9.372  0.7169E+00  0.1089E+01
     -9.250  0.7337E+00  0.1178E+01
     -9.129  0.7509E+00  0.1268E+01
     -9.007  0.7702E+00  0.1361E+01
     -8.885  0.7900E+00  0.1456E+01
     -8.763  0.8129E+00  0.1553E+01
     -8.642  0.8343E+00  0.1653E+01
     -8.520  0.8505E+00  0.1756E+01
     -8.398  0.8710E+00  0.1861E+01
     -8.277  0.8904E+00  0.1968E+01
     -8.155  0.9094E+00  0.2077E+01
     -8.033  0.9287E+00  0.2189E+01
     -7.911  0.9477E+00  0.2303E+01
     -7.790  0.1017E+01  0.2423E+01
     -7.668  0.1082E+01  0.2550E+01
     -7.546  0.1098E+01  0.2683E+01
     -7.425  0.1085E+01  0.2816E+01
     -7.303  0.1048E+01  0.2946E+01
     -7.181  0.1031E+01  0.3071E+01
     -7.059  0.1060E+01  0.3199E+01
     -6.938  0.1076E+01  0.3329E+01
     -6.816  0.1083E+01  0.3460E+01
     -6.694  0.1134E+01  0.3595E+01
     -6.573  0.1186E+01  0.3737E+01
     -6.451  0.1261E+01  0.3883E+01
     -6.329  0.1299E+01  0.4042E+01
     -6.207  0.1335E+01  0.4201E+01
     -6.086  0.1444E+01  0.4371E+01
     -5.964  0.1559E+01  0.4555E+01
     -5.842  0.1623E+01  0.4749E+01
     -5.721  0.1532E+01  0.4941E+01
     -5.599  0.1403E+01  0.5120E+01
     -5.477  0.1441E+01  0.5292E+01
     -5.355  0.1436E+01  0.5468E+01
     -5.234  0.1387E+01  0.5638E+01
     -5.112  0.1376E+01  0.5808E+01
     -4.990  0.1253E+01  0.5968E+01
     -4.869  0.1224E+01  0.6118E+01
     -4.747  0.1205E+01  0.6266E+01
     -4.625  0.1183E+01  0.6412E+01
     -4.503  0.1116E+01  0.6551E+01
     -4.382  0.1067E+01  0.6685E+01
     -4.260  0.1107E+01  0.6818E+01
     -4.138  0.1026E+01  0.6954E+01
     -4.017  0.1010E+01  0.7078E+01
     -3.895  0.9759E+00  0.7199E+01
     -3.773  0.9419E+00  0.7316E+01
     -3.651  0.9166E+00  0.7429E+01
     -3.530  0.8710E+00  0.7537E+01
     -3.408  0.1016E+01  0.7655E+01
     -3.286  0.9621E+00  0.7774E+01
     -3.165  0.1007E+01  0.7899E+01
     -3.043  0.1004E+01  0.8021E+01
     -2.921  0.9976E+00  0.8140E+01
     -2.800  0.9958E+00  0.8263E+01
     -2.678  0.9488E+00  0.8382E+01
     -2.556  0.9511E+00  0.8496E+01
     -2.434  0.1040E+01  0.8617E+01
     -2.313  0.1243E+01  0.8754E+01
     -2.191  0.1437E+01  0.8915E+01
     -2.069  0.1699E+01  0.9106E+01
     -1.948  0.2024E+01  0.9330E+01
     -1.826  0.2534E+01  0.9609E+01
     -1.704  0.2766E+01  0.9939E+01
     -1.582  0.2851E+01  0.1028E+02
     -1.461  0.2168E+01  0.1057E+02
     -1.339  0.1789E+01  0.1081E+02
     -1.217  0.1660E+01  0.1102E+02
     -1.096  0.1556E+01  0.1121E+02
     -0.974  0.1469E+01  0.1140E+02
     -0.852  0.1399E+01  0.1157E+02
     -0.730  0.1365E+01  0.1174E+02
     -0.609  0.1336E+01  0.1190E+02
     -0.487  0.1295E+01  0.1206E+02
     -0.365  0.1267E+01  0.1222E+02
     -0.244  0.1134E+01  0.1238E+02
     -0.122  0.1105E+01  0.1251E+02
     -0.000  0.1091E+01  0.1265E+02
      0.122  0.1081E+01  0.1278E+02
      0.243  0.1073E+01  0.1291E+02
      0.365  0.1001E+01  0.1304E+02
      0.487  0.1127E+01  0.1316E+02
      0.608  0.1438E+01  0.1332E+02
      0.730  0.1717E+01  0.1351E+02
      0.852  0.2000E+01  0.1374E+02
      0.974  0.2257E+01  0.1400E+02
      1.095  0.2238E+01  0.1428E+02
      1.217  0.2120E+01  0.1454E+02
      1.339  0.2193E+01  0.1480E+02
      1.460  0.2251E+01  0.1507E+02
      1.582  0.2047E+01  0.1534E+02
      1.704  0.1569E+01  0.1556E+02
      1.826  0.1457E+01  0.1574E+02
      1.947  0.1702E+01  0.1593E+02
      2.069  0.2009E+01  0.1616E+02
      2.191  0.2230E+01  0.1642E+02
      2.312  0.2356E+01  0.1670E+02
      2.434  0.2407E+01  0.1699E+02
      2.556  0.2290E+01  0.1727E+02
      2.678  0.2334E+01  0.1755E+02
      2.799  0.2485E+01  0.1784E+02
      2.921  0.2725E+01  0.1816E+02
      3.043  0.3016E+01  0.1851E+02
      3.164  0.2888E+01  0.1889E+02
      3.286  0.2361E+01  0.1921E+02
      3.408  0.2727E+01  0.1949E+02
      3.530  0.2720E+01  0.1984E+02
      3.651  0.2754E+01  0.2018E+02
      3.773  0.3125E+01  0.2053E+02
      3.895  0.3796E+01  0.2095E+02
      4.016  0.3722E+01  0.2144E+02
      4.138  0.3234E+01  0.2185E+02
      4.260  0.2849E+01  0.2223E+02
      4.382  0.2576E+01  0.2255E+02
      4.503  0.2746E+01  0.2287E+02
      4.625  0.2917E+01  0.2324E+02
      4.747  0.2780E+01  0.2357E+02
      4.868  0.2957E+01  0.2392E+02
      4.990  0.2921E+01  0.2428E+02
      5.112  0.2984E+01  0.2464E+02
      5.234  0.3037E+01  0.2501E+02
      5.355  0.3086E+01  0.2538E+02
      5.477  0.2900E+01  0.2574E+02
      5.599  0.2620E+01  0.2608E+02
      5.720  0.2308E+01  0.2637E+02
      5.842  0.2428E+01  0.2666E+02
      5.964  0.2549E+01  0.2696E+02
      6.085  0.2699E+01  0.2728E+02
      6.207  0.2840E+01  0.2763E+02
      6.329  0.2758E+01  0.2797E+02
      6.451  0.2631E+01  0.2830E+02
      6.572  0.2591E+01  0.2861E+02
      6.694  0.2344E+01  0.2891E+02
      6.816  0.2680E+01  0.2922E+02
      6.937  0.2315E+01  0.2953E+02
      7.059  0.2003E+01  0.2979E+02
      7.181  0.1776E+01  0.3001E+02
      7.303  0.1566E+01  0.3022E+02
      7.424  0.1425E+01  0.3040E+02
      7.546  0.1340E+01  0.3056E+02
      7.668  0.1254E+01  0.3072E+02
      7.789  0.1180E+01  0.3087E+02
      7.911  0.1055E+01  0.3101E+02
      8.033  0.9499E+00  0.3113E+02
      8.155  0.8921E+00  0.3124E+02
      8.276  0.8428E+00  0.3135E+02
      8.398  0.8023E+00  0.3145E+02
      8.520  0.7183E+00  0.3154E+02
      8.641  0.6377E+00  0.3162E+02
      8.763  0.5661E+00  0.3169E+02
      8.885  0.5466E+00  0.3176E+02
      9.007  0.4436E+00  0.3182E+02
      9.128  0.3582E+00  0.3187E+02
      9.250  0.3845E+00  0.3192E+02
      9.372  0.2462E+00  0.3196E+02
      9.493  0.1409E+00  0.3198E+02
      9.615  0.5108E-01  0.3200E+02
      9.737  0.0000E+00  0.3200E+02
      9.859  0.0000E+00  0.3200E+02
      9.980  0.0000E+00  0.3200E+02
     10.102  0.0000E+00  0.3200E+02
     10.224  0.0000E+00  0.3200E+02
     10.345  0.0000E+00  0.3200E+02
     10.467  0.0000E+00  0.3200E+02
     10.589  0.0000E+00  0.3200E+02
     10.711  0.0000E+00  0.3200E+02
     10.832  0.0000E+00  0.3200E+02
     10.954  0.0000E+00  0.3200E+02
     11.076  0.0000E+00  0.3200E+02
     11.197  0.0000E+00  0.3200E+02
     11.319  0.0000E+00  0.3200E+02
     11.441  0.0000E+00  0.3200E+02
     11.563  0.0000E+00  0.3200E+02
     11.684  0.0000E+00  0.3200E+02
     11.806  0.0000E+00  0.3200E+02
     11.928  0.0000E+00  0.3200E+02
     12.049  0.0000E+00  0.3200E+02
     12.171  0.0000E+00  0.3200E+02
     12.293  0.0000E+00  0.3200E+02
     12.415  0.0000E+00  0.3200E+02
     12.536  0.0000E+00  0.3200E+02
     12.658  0.0000E+00  0.3200E+02
     12.780  0.0000E+00  0.3200E+02
     12.901  0.0000E+00  0.3200E+02
     13.023  0.0000E+00  0.3200E+02
     13.145  0.0000E+00  0.3200E+02
     13.267  0.0000E+00  0.3200E+02
     13.388  0.0000E+00  0.3200E+02
     13.510  0.0000E+00  0.3200E+02
     13.632  0.0000E+00  0.3200E+02
     13.753  0.0000E+00  0.3200E+02
     13.875  0.5520E-01  0.3200E+02
     13.997  0.2179E+00  0.3202E+02
     14.119  0.4985E+00  0.3206E+02
     14.240  0.6493E+00  0.3213E+02
     14.362  0.6159E+00  0.3221E+02
     14.484  0.7261E+00  0.3229E+02
     14.605  0.8147E+00  0.3238E+02
     14.727  0.1113E+01  0.3250E+02
     14.849  0.1226E+01  0.3264E+02
     14.971  0.1470E+01  0.3280E+02
     15.092  0.1525E+01  0.3299E+02
     15.214  0.1533E+01  0.3317E+02
     15.336  0.1529E+01  0.3335E+02
     15.457  0.1577E+01  0.3354E+02
     15.579  0.1679E+01  0.3374E+02
     15.701  0.1833E+01  0.3395E+02
     15.822  0.2144E+01  0.3420E+02
     15.944  0.2275E+01  0.3447E+02
     16.066  0.2104E+01  0.3474E+02
     16.188  0.2123E+01  0.3499E+02
     16.309  0.2110E+01  0.3525E+02
     16.431  0.2128E+01  0.3551E+02
     16.553  0.2275E+01  0.3578E+02
     16.674  0.2441E+01  0.3606E+02
     16.796  0.2632E+01  0.3637E+02
     16.918  0.2770E+01  0.3670E+02
     17.040  0.2848E+01  0.3704E+02
     17.161  0.3010E+01  0.3740E+02
     17.283  0.3164E+01  0.3777E+02
     17.405  0.3302E+01  0.3816E+02
     17.526  0.3776E+01  0.3859E+02
     17.648  0.4053E+01  0.3906E+02
     17.770  0.4496E+01  0.3957E+02
     17.892  0.4085E+01  0.4012E+02
     18.013  0.3482E+01  0.4058E+02
     18.135  0.3028E+01  0.4098E+02
     18.257  0.3472E+01  0.4138E+02
     18.378  0.4126E+01  0.4184E+02
     18.500  0.3841E+01  0.4233E+02
     18.622  0.3725E+01  0.4278E+02
     18.744  0.3747E+01  0.4323E+02
     18.865  0.3524E+01  0.4369E+02
     18.987  0.3142E+01  0.4410E+02
     19.109  0.2794E+01  0.4446E+02
     19.230  0.2658E+01  0.4479E+02
     19.352  0.2609E+01  0.4511E+02
     19.474  0.2701E+01  0.4543E+02
     19.596  0.2716E+01  0.4576E+02
     19.717  0.2899E+01  0.4610E+02
     19.839  0.2798E+01  0.4645E+02
     19.961  0.2655E+01  0.4678E+02
     20.082  0.2495E+01  0.4710E+02
     20.204  0.2044E+01  0.4738E+02
     20.326  0.1619E+01  0.4760E+02
     20.448  0.1072E+01  0.4776E+02
     20.569  0.4919E+00  0.4786E+02
     20.691  0.3395E+00  0.4791E+02
     20.813  0.2174E+00  0.4794E+02
     20.934  0.1528E+00  0.4796E+02
     21.056  0.1042E+00  0.4798E+02
     21.178  0.6616E-01  0.4799E+02
     21.300  0.3871E-01  0.4800E+02
     21.421  0.1063E-01  0.4800E+02
     21.543  0.0000E+00  0.4800E+02
     21.665  0.0000E+00  0.4800E+02
     21.786  0.0000E+00  0.4800E+02
     21.908  0.0000E+00  0.4800E+02
     22.030  0.0000E+00  0.4800E+02
     22.152  0.0000E+00  0.4800E+02
     22.273  0.0000E+00  0.4800E+02
     22.395  0.0000E+00  0.4800E+02
     22.517  0.0000E+00  0.4800E+02
     22.638  0.0000E+00  0.4800E+02
     22.760  0.0000E+00  0.4800E+02
     22.882  0.0000E+00  0.4800E+02
     23.004  0.0000E+00  0.4800E+02
     23.125  0.0000E+00  0.4800E+02
