       N       E                     dE             d eps       ncg     rms          rms(c)
DAV:   1     0.580302813194E+02    0.58030E+02   -0.14437E+04  9072   0.106E+03
DAV:   2    -0.709776966127E+02   -0.12901E+03   -0.12239E+03 12600   0.221E+02
DAV:   3    -0.751765823028E+02   -0.41989E+01   -0.41792E+01 11768   0.372E+01
DAV:   4    -0.752178101483E+02   -0.41228E-01   -0.41183E-01 11360   0.411E+00
DAV:   5    -0.752186454407E+02   -0.83529E-03   -0.83487E-03 11768   0.526E-01    0.944E+00
DAV:   6    -0.733490520725E+02    0.18696E+01   -0.12395E+00 10320   0.633E+00    0.518E+00
DAV:   7    -0.727176227620E+02    0.63143E+00   -0.14020E+00 10624   0.692E+00    0.696E-01
DAV:   8    -0.727250329643E+02   -0.74102E-02   -0.27902E-02 11536   0.973E-01    0.795E-02
DAV:   9    -0.727252480387E+02   -0.21507E-03   -0.42999E-04 10944   0.140E-01    0.285E-02
DAV:  10    -0.727253031504E+02   -0.55112E-04   -0.46875E-05 11360   0.519E-02    0.267E-03
DAV:  11    -0.727253038323E+02   -0.68182E-06   -0.10422E-06  8504   0.721E-03
   1 F= -.72725304E+02 E0= -.72725304E+02  d E =0.000000E+00
