 vasp.5.4.4.18Apr17-6-g9f103f2a35 (build Mar 12 2022 03:36:41) complex          
  
 executed on IFC19.0.3.199_CrayMP date 2022.11.30  12:47:54
 running on   16 total cores
 distrk:  each k-point on   16 cores,    1 groups
 distr:  one band on NCORES_PER_BAND=   4 cores,    4 groups


--------------------------------------------------------------------------------------------------------


 INCAR:
 POTCAR:   PAW_PBE C 08Apr2002                    
 POTCAR:   PAW_PBE C 08Apr2002                    
   VRHFIN =C: s2p2                                                              
   LEXCH  = PE                                                                  
   EATOM  =   147.1560 eV,   10.8157 Ry                                         
                                                                                
   TITEL  = PAW_PBE C 08Apr2002                                                 
   LULTRA =        F    use ultrasoft PP ?                                      
   IUNSCR =        0    unscreen: 0-lin 1-nonlin 2-no                           
   RPACOR =     .000    partial core radius                                     
   POMASS =   12.011; ZVAL   =    4.000    mass and valenz                      
   RCORE  =    1.500    outmost cutoff radius                                   
   RWIGS  =    1.630; RWIGS  =     .863    wigner-seitz radius (au A)           
   ENMAX  =  400.000; ENMIN  =  300.000 eV                                      
   ICORE  =        2    local potential                                         
   LCOR   =        T    correct aug charges                                     
   LPAW   =        T    paw PP                                                  
   EAUG   =  644.873                                                            
   DEXC   =     .000                                                            
   RMAX   =    2.266    core radius for proj-oper                               
   RAUG   =    1.300    factor for augmentation sphere                          
   RDEP   =    1.501    radius for radial grids                                 
   RDEPT  =    1.300    core radius for aug-charge                              
   QCUT   =   -5.516; QGAM   =   11.032    optimization parameters              
                                                                                
   Description                                                                  
     l     E      TYP  RCUT    TYP  RCUT                                        
     0   .000     23  1.200                                                     
     0   .000     23  1.200                                                     
     1   .000     23  1.500                                                     
     1  2.500     23  1.500                                                     
     2   .000      7  1.500                                                     
  local pseudopotential read in
  atomic valenz-charges read in
  non local Contribution for L=           0  read in
    real space projection operators read in
  non local Contribution for L=           0  read in
    real space projection operators read in
  non local Contribution for L=           1  read in
    real space projection operators read in
  non local Contribution for L=           1  read in
    real space projection operators read in
    PAW grid and wavefunctions read in
 
   number of l-projection  operators is LMAX  =           4
   number of lm-projection operators is LMMAX =           8
 
 PAW_PBE C 08Apr2002                    :
 energy of atom  1       EATOM= -147.1560
 kinetic energy error for atom=    0.0288 (will be added to EATOM!!)
 
 
 POSCAR: C8                                      
  positions in direct lattice
  No initial velocities read in
 exchange correlation table for  LEXCH =        8
   RHO(1)=    0.500       N(1)  =     2000
   RHO(2)=  100.500       N(2)  =     4000
 


--------------------------------------------------------------------------------------------------------


 ion  position               nearest neighbor table
   1  0.250  0.750  0.250-   2 1.54   6 1.54   8 1.54   4 1.56
   2  0.000  0.000  0.500-   1 1.54   5 1.54   7 1.54   3 1.56
   3  0.250  0.250  0.750-   4 1.54   6 1.54   8 1.54   2 1.56
   4  0.000  0.500  0.000-   3 1.54   5 1.54   7 1.54   1 1.56
   5  0.750  0.750  0.750-   6 1.54   4 1.54   2 1.54   8 1.56
   6  0.500  0.000  0.000-   5 1.54   3 1.54   1 1.54   7 1.56
   7  0.750  0.250  0.250-   8 1.54   4 1.54   2 1.54   6 1.56
   8  0.500  0.500  0.500-   7 1.54   3 1.54   1 1.54   5 1.56
 
  LATTYP: Found a trigonal (rhomboedric) cell.
 ALAT       =     3.5737096890
 COS(alpha) =     0.0099999729
  
  Lattice vectors:
  
 A1 = (   3.5737100000,   0.0000000000,   0.0000000000)
 A2 = (   0.0357370000,   3.5735310000,   0.0000000000)
 A3 = (   0.0357370000,   0.0353810000,   3.5733560000)


Analysis of symmetry for initial positions (statically):
=====================================================================
 Subroutine PRICEL returns following result:
 
  LATTYP: Found a trigonal (rhomboedric) cell.
 ALAT       =     2.5395977762
 COS(alpha) =     0.5099009041
  
  Lattice vectors:
  
 A1 = (  -0.0357370000,  -1.8044560000,  -1.7866780000)
 A2 = (  -1.8047235000,  -1.7867655000,  -0.0000000000)
 A3 = (  -1.8047235000,  -0.0176905000,  -1.7866780000)
 
   4 primitive cells build up your supercell.
 

 Routine SETGRP: Setting up the symmetry group for a 
 trigonal (rhombohedral) supercell.


 Subroutine GETGRP returns: Found 12 space group operations
 (whereof  6 operations were pure point group operations)
 out of a pool of 12 trial point group operations.


The static configuration has the point symmetry C_3v.
 The point group associated with its full space group is D_3d.


Analysis of symmetry for dynamics (positions and initial velocities):
=====================================================================
 Subroutine PRICEL returns following result:
 
  LATTYP: Found a trigonal (rhomboedric) cell.
 ALAT       =     2.5395977762
 COS(alpha) =     0.5099009041
  
  Lattice vectors:
  
 A1 = (  -0.0357370000,  -1.8044560000,  -1.7866780000)
 A2 = (  -1.8047235000,  -1.7867655000,  -0.0000000000)
 A3 = (  -1.8047235000,  -0.0176905000,  -1.7866780000)
 
   4 primitive cells build up your supercell.
 

 Routine SETGRP: Setting up the symmetry group for a 
 trigonal (rhombohedral) supercell.


 Subroutine GETGRP returns: Found 12 space group operations
 (whereof  6 operations were pure point group operations)
 out of a pool of 12 trial point group operations.


The dynamic configuration has the point symmetry C_3v.
 The point group associated with its full space group is D_3d.


 Subroutine INISYM returns: Found 12 space group operations
 (whereof  6 operations are pure point group operations),
 and found     4 'primitive' translations

 
 
 KPOINTS: kpt_density=1000                        

Automatic generation of k-mesh.
Space group operators:
 irot       det(A)        alpha          n_x          n_y          n_z        tau_x        tau_y        tau_z
    1     1.000000     0.000000     1.000000     0.000000     0.000000     0.000000     0.000000     0.000000
    2    -1.000000   180.000000     0.000000    -0.703598     0.710599     0.000000     0.000000     0.000000
    3     1.000000   120.000000    -0.583095    -0.577293    -0.571605     0.000000     0.000000     0.000000
    4    -1.000000   180.000000    -0.703562     0.710634     0.000000     0.000000     0.000000     0.000000
    5     1.000000   120.000000     0.583095     0.577293     0.571605     0.000000     0.000000     0.000000
    6    -1.000000   180.000000    -0.703562     0.007036     0.710599     0.000000     0.000000     0.000000
    7    -1.000000     0.000000     1.000000     0.000000     0.000000    -0.750000    -0.750000    -0.750000
    8     1.000000   180.000000     0.000000    -0.703598     0.710599    -0.750000    -0.750000    -0.750000
    9    -1.000000   120.000000    -0.583095    -0.577293    -0.571605    -0.750000    -0.750000    -0.750000
   10     1.000000   180.000000    -0.703562     0.710634     0.000000    -0.750000    -0.750000    -0.750000
   11    -1.000000   120.000000     0.583095     0.577293     0.571605    -0.750000    -0.750000    -0.750000
   12     1.000000   180.000000    -0.703562     0.007036     0.710599    -0.750000    -0.750000    -0.750000
 
 Subroutine IBZKPT returns following result:
 ===========================================
 
 Found    189 irreducible k-points:
 
 Following reciprocal coordinates:
            Coordinates               Weight
  0.000000  0.000000  0.000000      1.000000
  0.083333 -0.000000 -0.000000      6.000000
  0.166667  0.000000 -0.000000      6.000000
  0.250000  0.000000 -0.000000      6.000000
  0.333333 -0.000000 -0.000000      6.000000
  0.416667 -0.000000 -0.000000      6.000000
  0.500000  0.000000 -0.000000      3.000000
  0.083333  0.083333 -0.000000      6.000000
  0.166667  0.083333 -0.000000     12.000000
  0.250000  0.083333 -0.000000     12.000000
  0.333333  0.083333 -0.000000     12.000000
  0.416667  0.083333 -0.000000     12.000000
  0.500000  0.083333 -0.000000     12.000000
 -0.416667  0.083333  0.000000     12.000000
 -0.333333  0.083333  0.000000     12.000000
 -0.250000  0.083333  0.000000     12.000000
 -0.166667  0.083333  0.000000     12.000000
 -0.083333  0.083333  0.000000      6.000000
  0.166667  0.166667 -0.000000      6.000000
  0.250000  0.166667 -0.000000     12.000000
  0.333333  0.166667 -0.000000     12.000000
  0.416667  0.166667 -0.000000     12.000000
  0.500000  0.166667 -0.000000     12.000000
 -0.416667  0.166667  0.000000     12.000000
 -0.333333  0.166667  0.000000     12.000000
 -0.250000  0.166667  0.000000     12.000000
 -0.166667  0.166667 -0.000000      6.000000
  0.250000  0.250000 -0.000000      6.000000
  0.333333  0.250000 -0.000000     12.000000
  0.416667  0.250000 -0.000000     12.000000
  0.500000  0.250000 -0.000000     12.000000
 -0.416667  0.250000  0.000000     12.000000
 -0.333333  0.250000  0.000000     12.000000
 -0.250000  0.250000 -0.000000      6.000000
  0.333333  0.333333 -0.000000      6.000000
  0.416667  0.333333 -0.000000     12.000000
  0.500000  0.333333 -0.000000     12.000000
 -0.416667  0.333333  0.000000     12.000000
 -0.333333  0.333333  0.000000      6.000000
  0.416667  0.416667 -0.000000      6.000000
  0.500000  0.416667 -0.000000     12.000000
 -0.416667  0.416667  0.000000      6.000000
  0.500000  0.500000 -0.000000      3.000000
  0.083333  0.083333  0.083333      2.000000
  0.166667  0.083333  0.083333      6.000000
  0.250000  0.083333  0.083333      6.000000
  0.333333  0.083333  0.083333      6.000000
  0.416667  0.083333  0.083333      6.000000
  0.500000  0.083333  0.083333      6.000000
 -0.416667  0.083333  0.083333      6.000000
 -0.333333  0.083333  0.083333      6.000000
 -0.250000  0.083333  0.083333      6.000000
 -0.166667  0.083333  0.083333      6.000000
 -0.083333  0.083333  0.083333      6.000000
  0.166667  0.166667  0.083333      6.000000
  0.250000  0.166667  0.083333     12.000000
  0.333333  0.166667  0.083333     12.000000
  0.416667  0.166667  0.083333     12.000000
  0.500000  0.166667  0.083333     12.000000
 -0.416667  0.166667  0.083333     12.000000
 -0.333333  0.166667  0.083333     12.000000
 -0.250000  0.166667  0.083333     12.000000
 -0.166667  0.166667  0.083333     12.000000
 -0.083333  0.166667  0.083333     12.000000
  0.250000  0.250000  0.083333      6.000000
  0.333333  0.250000  0.083333     12.000000
  0.416667  0.250000  0.083333     12.000000
  0.500000  0.250000  0.083333     12.000000
 -0.416667  0.250000  0.083333     12.000000
 -0.333333  0.250000  0.083333     12.000000
 -0.250000  0.250000  0.083333     12.000000
 -0.166667  0.250000  0.083333     12.000000
 -0.083333  0.250000  0.083333     12.000000
  0.333333  0.333333  0.083333      6.000000
  0.416667  0.333333  0.083333     12.000000
  0.500000  0.333333  0.083333     12.000000
 -0.416667  0.333333  0.083333     12.000000
 -0.333333  0.333333  0.083333     12.000000
 -0.250000  0.333333  0.083333     12.000000
 -0.166667  0.333333  0.083333     12.000000
 -0.083333  0.333333  0.083333     12.000000
  0.416667  0.416667  0.083333      6.000000
  0.500000  0.416667  0.083333     12.000000
 -0.416667  0.416667  0.083333     12.000000
 -0.333333  0.416667  0.083333     12.000000
 -0.250000  0.416667  0.083333     12.000000
 -0.166667  0.416667  0.083333     12.000000
 -0.083333  0.416667  0.083333     12.000000
  0.500000  0.500000  0.083333      6.000000
 -0.416667  0.500000  0.083333     12.000000
 -0.333333  0.500000  0.083333     12.000000
 -0.250000  0.500000  0.083333     12.000000
 -0.166667  0.500000  0.083333     12.000000
 -0.083333  0.500000  0.083333      6.000000
 -0.416667 -0.416667  0.083333      6.000000
 -0.333333 -0.416667  0.083333     12.000000
 -0.250000 -0.416667  0.083333     12.000000
 -0.166667 -0.416667  0.083333     12.000000
 -0.333333 -0.333333  0.083333      6.000000
 -0.250000 -0.333333  0.083333     12.000000
 -0.166667 -0.333333  0.083333     12.000000
 -0.250000 -0.250000  0.083333      6.000000
 -0.166667 -0.250000  0.083333     12.000000
 -0.166667 -0.166667  0.083333      6.000000
  0.166667  0.166667  0.166667      2.000000
  0.250000  0.166667  0.166667      6.000000
  0.333333  0.166667  0.166667      6.000000
  0.416667  0.166667  0.166667      6.000000
  0.500000  0.166667  0.166667      6.000000
 -0.416667  0.166667  0.166667      6.000000
 -0.333333  0.166667  0.166667      6.000000
 -0.250000  0.166667  0.166667      6.000000
 -0.166667  0.166667  0.166667      6.000000
  0.250000  0.250000  0.166667      6.000000
  0.333333  0.250000  0.166667     12.000000
  0.416667  0.250000  0.166667     12.000000
  0.500000  0.250000  0.166667     12.000000
 -0.416667  0.250000  0.166667     12.000000
 -0.333333  0.250000  0.166667     12.000000
 -0.250000  0.250000  0.166667     12.000000
 -0.166667  0.250000  0.166667     12.000000
  0.333333  0.333333  0.166667      6.000000
  0.416667  0.333333  0.166667     12.000000
  0.500000  0.333333  0.166667     12.000000
 -0.416667  0.333333  0.166667     12.000000
 -0.333333  0.333333  0.166667     12.000000
 -0.250000  0.333333  0.166667     12.000000
 -0.166667  0.333333  0.166667     12.000000
  0.416667  0.416667  0.166667      6.000000
  0.500000  0.416667  0.166667     12.000000
 -0.416667  0.416667  0.166667     12.000000
 -0.333333  0.416667  0.166667     12.000000
 -0.250000  0.416667  0.166667     12.000000
 -0.166667  0.416667  0.166667     12.000000
  0.500000  0.500000  0.166667      6.000000
 -0.416667  0.500000  0.166667     12.000000
 -0.333333  0.500000  0.166667     12.000000
 -0.250000  0.500000  0.166667     12.000000
 -0.166667  0.500000  0.166667      6.000000
 -0.416667 -0.416667  0.166667      6.000000
 -0.333333 -0.416667  0.166667     12.000000
 -0.250000 -0.416667  0.166667     12.000000
 -0.333333 -0.333333  0.166667      6.000000
 -0.250000 -0.333333  0.166667     12.000000
 -0.250000 -0.250000  0.166667      6.000000
  0.250000  0.250000  0.250000      2.000000
  0.333333  0.250000  0.250000      6.000000
  0.416667  0.250000  0.250000      6.000000
  0.500000  0.250000  0.250000      6.000000
 -0.416667  0.250000  0.250000      6.000000
 -0.333333  0.250000  0.250000      6.000000
 -0.250000  0.250000  0.250000      6.000000
  0.333333  0.333333  0.250000      6.000000
  0.416667  0.333333  0.250000     12.000000
  0.500000  0.333333  0.250000     12.000000
 -0.416667  0.333333  0.250000     12.000000
 -0.333333  0.333333  0.250000     12.000000
 -0.250000  0.333333  0.250000     12.000000
  0.416667  0.416667  0.250000      6.000000
  0.500000  0.416667  0.250000     12.000000
 -0.416667  0.416667  0.250000     12.000000
 -0.333333  0.416667  0.250000     12.000000
 -0.250000  0.416667  0.250000     12.000000
  0.500000  0.500000  0.250000      6.000000
 -0.416667  0.500000  0.250000     12.000000
 -0.333333  0.500000  0.250000     12.000000
 -0.250000  0.500000  0.250000      6.000000
 -0.416667 -0.416667  0.250000      6.000000
 -0.333333 -0.416667  0.250000     12.000000
 -0.333333 -0.333333  0.250000      6.000000
  0.333333  0.333333  0.333333      2.000000
  0.416667  0.333333  0.333333      6.000000
  0.500000  0.333333  0.333333      6.000000
 -0.416667  0.333333  0.333333      6.000000
 -0.333333  0.333333  0.333333      6.000000
  0.416667  0.416667  0.333333      6.000000
  0.500000  0.416667  0.333333     12.000000
 -0.416667  0.416667  0.333333     12.000000
 -0.333333  0.416667  0.333333     12.000000
  0.500000  0.500000  0.333333      6.000000
 -0.416667  0.500000  0.333333     12.000000
 -0.333333  0.500000  0.333333      6.000000
 -0.416667 -0.416667  0.333333      6.000000
  0.416667  0.416667  0.416667      2.000000
  0.500000  0.416667  0.416667      6.000000
 -0.416667  0.416667  0.416667      6.000000
  0.500000  0.500000  0.416667      6.000000
 -0.416667  0.500000  0.416667      6.000000
  0.500000  0.500000  0.500000      1.000000
 
 Following cartesian coordinates:
            Coordinates               Weight
  0.000000  0.000000  0.000000      1.000000
  0.023318 -0.000233 -0.000231      6.000000
  0.046637 -0.000466 -0.000462      6.000000
  0.069955 -0.000700 -0.000693      6.000000
  0.093274 -0.000933 -0.000924      6.000000
  0.116592 -0.001166 -0.001154      6.000000
  0.139911 -0.001399 -0.001385      3.000000
  0.023318  0.023086 -0.000462      6.000000
  0.046637  0.022853 -0.000693     12.000000
  0.069955  0.022620 -0.000924     12.000000
  0.093274  0.022387 -0.001154     12.000000
  0.116592  0.022154 -0.001385     12.000000
  0.139911  0.021920 -0.001616     12.000000
 -0.116592  0.024486  0.000924     12.000000
 -0.093274  0.024252  0.000693     12.000000
 -0.069955  0.024019  0.000462     12.000000
 -0.046637  0.023786  0.000231     12.000000
 -0.023318  0.023553  0.000000      6.000000
  0.046637  0.046173 -0.000924      6.000000
  0.069955  0.045940 -0.001154     12.000000
  0.093274  0.045706 -0.001385     12.000000
  0.116592  0.045473 -0.001616     12.000000
  0.139911  0.045240 -0.001847     12.000000
 -0.116592  0.047805  0.000693     12.000000
 -0.093274  0.047572  0.000462     12.000000
 -0.069955  0.047339  0.000231     12.000000
 -0.046637  0.047106  0.000000      6.000000
  0.069955  0.069259 -0.001385      6.000000
  0.093274  0.069026 -0.001616     12.000000
  0.116592  0.068793 -0.001847     12.000000
  0.139911  0.068560 -0.002078     12.000000
 -0.116592  0.071125  0.000462     12.000000
 -0.093274  0.070892  0.000231     12.000000
 -0.069955  0.070658  0.000000      6.000000
  0.093274  0.092346 -0.001847      6.000000
  0.116592  0.092112 -0.002078     12.000000
  0.139911  0.091879 -0.002309     12.000000
 -0.116592  0.094444  0.000231     12.000000
 -0.093274  0.094211  0.000000      6.000000
  0.116592  0.115432 -0.002309      6.000000
  0.139911  0.115199 -0.002540     12.000000
 -0.116592  0.117764  0.000000      6.000000
  0.139911  0.138518 -0.002771      3.000000
  0.023318  0.023086  0.022859      2.000000
  0.046637  0.022853  0.022628      6.000000
  0.069955  0.022620  0.022397      6.000000
  0.093274  0.022387  0.022166      6.000000
  0.116592  0.022154  0.021935      6.000000
  0.139911  0.021920  0.021704      6.000000
 -0.116592  0.024486  0.024244      6.000000
 -0.093274  0.024252  0.024013      6.000000
 -0.069955  0.024019  0.023783      6.000000
 -0.046637  0.023786  0.023552      6.000000
 -0.023318  0.023553  0.023321      6.000000
  0.046637  0.046173  0.022397      6.000000
  0.069955  0.045940  0.022166     12.000000
  0.093274  0.045706  0.021935     12.000000
  0.116592  0.045473  0.021704     12.000000
  0.139911  0.045240  0.021474     12.000000
 -0.116592  0.047805  0.024013     12.000000
 -0.093274  0.047572  0.023783     12.000000
 -0.069955  0.047339  0.023552     12.000000
 -0.046637  0.047106  0.023321     12.000000
 -0.023318  0.046872  0.023090     12.000000
  0.069955  0.069259  0.021935      6.000000
  0.093274  0.069026  0.021704     12.000000
  0.116592  0.068793  0.021474     12.000000
  0.139911  0.068560  0.021243     12.000000
 -0.116592  0.071125  0.023783     12.000000
 -0.093274  0.070892  0.023552     12.000000
 -0.069955  0.070658  0.023321     12.000000
 -0.046637  0.070425  0.023090     12.000000
 -0.023318  0.070192  0.022859     12.000000
  0.093274  0.092346  0.021474      6.000000
  0.116592  0.092112  0.021243     12.000000
  0.139911  0.091879  0.021012     12.000000
 -0.116592  0.094444  0.023552     12.000000
 -0.093274  0.094211  0.023321     12.000000
 -0.069955  0.093978  0.023090     12.000000
 -0.046637  0.093745  0.022859     12.000000
 -0.023318  0.093512  0.022628     12.000000
  0.116592  0.115432  0.021012      6.000000
  0.139911  0.115199  0.020781     12.000000
 -0.116592  0.117764  0.023321     12.000000
 -0.093274  0.117531  0.023090     12.000000
 -0.069955  0.117298  0.022859     12.000000
 -0.046637  0.117064  0.022628     12.000000
 -0.023318  0.116831  0.022397     12.000000
  0.139911  0.138518  0.020550      6.000000
 -0.116592  0.141084  0.023090     12.000000
 -0.093274  0.140850  0.022859     12.000000
 -0.069955  0.140617  0.022628     12.000000
 -0.046637  0.140384  0.022397     12.000000
 -0.023318  0.140151  0.022166      6.000000
 -0.116592 -0.115432  0.025630      6.000000
 -0.093274 -0.115665  0.025399     12.000000
 -0.069955 -0.115898  0.025168     12.000000
 -0.046637 -0.116132  0.024937     12.000000
 -0.093274 -0.092346  0.025168      6.000000
 -0.069955 -0.092579  0.024937     12.000000
 -0.046637 -0.092812  0.024706     12.000000
 -0.069955 -0.069259  0.024706      6.000000
 -0.046637 -0.069492  0.024475     12.000000
 -0.046637 -0.046173  0.024244      6.000000
  0.046637  0.046173  0.045718      2.000000
  0.069955  0.045940  0.045487      6.000000
  0.093274  0.045706  0.045256      6.000000
  0.116592  0.045473  0.045025      6.000000
  0.139911  0.045240  0.044794      6.000000
 -0.116592  0.047805  0.047334      6.000000
 -0.093274  0.047572  0.047103      6.000000
 -0.069955  0.047339  0.046872      6.000000
 -0.046637  0.047106  0.046642      6.000000
  0.069955  0.069259  0.045256      6.000000
  0.093274  0.069026  0.045025     12.000000
  0.116592  0.068793  0.044794     12.000000
  0.139911  0.068560  0.044563     12.000000
 -0.116592  0.071125  0.047103     12.000000
 -0.093274  0.070892  0.046872     12.000000
 -0.069955  0.070658  0.046642     12.000000
 -0.046637  0.070425  0.046411     12.000000
  0.093274  0.092346  0.044794      6.000000
  0.116592  0.092112  0.044563     12.000000
  0.139911  0.091879  0.044333     12.000000
 -0.116592  0.094444  0.046872     12.000000
 -0.093274  0.094211  0.046642     12.000000
 -0.069955  0.093978  0.046411     12.000000
 -0.046637  0.093745  0.046180     12.000000
  0.116592  0.115432  0.044333      6.000000
  0.139911  0.115199  0.044102     12.000000
 -0.116592  0.117764  0.046642     12.000000
 -0.093274  0.117531  0.046411     12.000000
 -0.069955  0.117298  0.046180     12.000000
 -0.046637  0.117064  0.045949     12.000000
  0.139911  0.138518  0.043871      6.000000
 -0.116592  0.141084  0.046411     12.000000
 -0.093274  0.140850  0.046180     12.000000
 -0.069955  0.140617  0.045949     12.000000
 -0.046637  0.140384  0.045718      6.000000
 -0.116592 -0.115432  0.048950      6.000000
 -0.093274 -0.115665  0.048720     12.000000
 -0.069955 -0.115898  0.048489     12.000000
 -0.093274 -0.092346  0.048489      6.000000
 -0.069955 -0.092579  0.048258     12.000000
 -0.069955 -0.069259  0.048027      6.000000
  0.069955  0.069259  0.068577      2.000000
  0.093274  0.069026  0.068346      6.000000
  0.116592  0.068793  0.068115      6.000000
  0.139911  0.068560  0.067884      6.000000
 -0.116592  0.071125  0.070424      6.000000
 -0.093274  0.070892  0.070193      6.000000
 -0.069955  0.070658  0.069962      6.000000
  0.093274  0.092346  0.068115      6.000000
  0.116592  0.092112  0.067884     12.000000
  0.139911  0.091879  0.067653     12.000000
 -0.116592  0.094444  0.070193     12.000000
 -0.093274  0.094211  0.069962     12.000000
 -0.069955  0.093978  0.069731     12.000000
  0.116592  0.115432  0.067653      6.000000
  0.139911  0.115199  0.067422     12.000000
 -0.116592  0.117764  0.069962     12.000000
 -0.093274  0.117531  0.069731     12.000000
 -0.069955  0.117298  0.069500     12.000000
  0.139911  0.138518  0.067191      6.000000
 -0.116592  0.141084  0.069731     12.000000
 -0.093274  0.140850  0.069500     12.000000
 -0.069955  0.140617  0.069270      6.000000
 -0.116592 -0.115432  0.072271      6.000000
 -0.093274 -0.115665  0.072040     12.000000
 -0.093274 -0.092346  0.071809      6.000000
  0.093274  0.092346  0.091436      2.000000
  0.116592  0.092112  0.091205      6.000000
  0.139911  0.091879  0.090974      6.000000
 -0.116592  0.094444  0.093514      6.000000
 -0.093274  0.094211  0.093283      6.000000
  0.116592  0.115432  0.090974      6.000000
  0.139911  0.115199  0.090743     12.000000
 -0.116592  0.117764  0.093283     12.000000
 -0.093274  0.117531  0.093052     12.000000
  0.139911  0.138518  0.090512      6.000000
 -0.116592  0.141084  0.093052     12.000000
 -0.093274  0.140850  0.092821      6.000000
 -0.116592 -0.115432  0.095592      6.000000
  0.116592  0.115432  0.114295      2.000000
  0.139911  0.115199  0.114064      6.000000
 -0.116592  0.117764  0.116604      6.000000
  0.139911  0.138518  0.113833      6.000000
 -0.116592  0.141084  0.116373      6.000000
  0.139911  0.138518  0.137154      1.000000
 
 TETIRR: Found    864 inequivalent tetrahedra from    10368


--------------------------------------------------------------------------------------------------------




 Dimension of arrays:
   k-points           NKPTS =    189   k-points in BZ     NKDIM =    189   number of bands    NBANDS=     24
   number of dos      NEDOS =    301   number of ions     NIONS =      8
   non local maximal  LDIM  =      4   non local SUM 2l+1 LMDIM =      8
   total plane-waves  NPLWV =  13824
   max r-space proj   IRMAX =      1   max aug-charges    IRDMAX=   3774
   dimension x,y,z NGX =    24 NGY =   24 NGZ =   24
   dimension x,y,z NGXF=    48 NGYF=   48 NGZF=   48
   support grid    NGXF=    48 NGYF=   48 NGZF=   48
   ions per type =               8
   NGX,Y,Z   is equivalent  to a cutoff of  11.16, 11.16, 11.16 a.u.
   NGXF,Y,Z  is equivalent  to a cutoff of  22.33, 22.33, 22.33 a.u.

 SYSTEM =  unknown system                          
 POSCAR =  C8                                      

 Startparameter for this run:
   NWRITE =      2    write-flag & timer
   PREC   = accura    normal or accurate (medium, high low for compatibility)
   ISTART =      0    job   : 0-new  1-cont  2-samecut
   ICHARG =      2    charge: 1-file 2-atom 10-const
   ISPIN  =      1    spin polarized calculation?
   LNONCOLLINEAR =      F non collinear calculations
   LSORBIT =      F    spin-orbit coupling
   INIWAV =      1    electr: 0-lowe 1-rand  2-diag
   LASPH  =      F    aspherical Exc in radial PAW
   METAGGA=      F    non-selfconsistent MetaGGA calc.

 Electronic Relaxation 1
   ENCUT  =  400.0 eV  29.40 Ry    5.42 a.u.   5.83  5.83  5.83*2*pi/ulx,y,z
   ENINI  =  400.0     initial cutoff
   ENAUG  =  644.9 eV  augmentation charge cutoff
   NELM   =     60;   NELMIN=  2; NELMDL= -5     # of ELM steps 
   EDIFF  = 0.1E-05   stopping-criterion for ELM
   LREAL  =      F    real-space projection
   NLSPLINE    = F    spline interpolate recip. space projectors
   LCOMPAT=      F    compatible to vasp.4.4
   GGA_COMPAT  = T    GGA compatible to vasp.4.4-vasp.4.6
   LMAXPAW     = -100 max onsite density
   LMAXMIX     =    2 max onsite mixed and CHGCAR
   VOSKOWN=      0    Vosko Wilk Nusair interpolation
   ROPT   =    0.00000
 Ionic relaxation
   EDIFFG = 0.1E-04   stopping-criterion for IOM
   NSW    =      0    number of steps for IOM
   NBLOCK =      1;   KBLOCK =      1    inner block; outer block 
   IBRION =     -1    ionic relax: 0-MD 1-quasi-New 2-CG
   NFREE  =      0    steps in history (QN), initial steepest desc. (CG)
   ISIF   =      2    stress and relaxation
   IWAVPR =     10    prediction:  0-non 1-charg 2-wave 3-comb
   ISYM   =      2    0-nonsym 1-usesym 2-fastsym
   LCORR  =      T    Harris-Foulkes like correction to forces

   POTIM  = 0.0200    time-step for ionic-motion
   TEIN   =    0.0    initial temperature
   TEBEG  =    0.0;   TEEND  =   0.0 temperature during run
   SMASS  =  -3.00    Nose mass-parameter (am)
   estimated Nose-frequenzy (Omega)   =  0.10E-29 period in steps =****** mass=  -0.292E-27a.u.
   SCALEE = 1.0000    scale energy and forces
   NPACO  =    256;   APACO  = 16.0  distance and # of slots for P.C.
   PSTRESS=    0.0 pullay stress

  Mass of Ions in am
   POMASS =  12.01
  Ionic Valenz
   ZVAL   =   4.00
  Atomic Wigner-Seitz radii
   RWIGS  =  -1.00
  virtual crystal weights 
   VCA    =   1.00
   NELECT =      32.0000    total number of electrons
   NUPDOWN=      -1.0000    fix difference up-down

 DOS related values:
   EMIN   =  10.00;   EMAX   =-10.00  energy-range for DOS
   EFERMI =   0.00
   ISMEAR =    -5;   SIGMA  =   0.06  broadening in eV -4-tet -1-fermi 0-gaus

 Electronic relaxation 2 (details)
   IALGO  =     38    algorithm
   LDIAG  =      T    sub-space diagonalisation (order eigenvalues)
   LSUBROT=      F    optimize rotation matrix (better conditioning)
   TURBO    =      0    0=normal 1=particle mesh
   IRESTART =      0    0=no restart 2=restart with 2 vectors
   NREBOOT  =      0    no. of reboots
   NMIN     =      0    reboot dimension
   EREF     =   0.00    reference energy to select bands
   IMIX   =      4    mixing-type and parameters
     AMIX     =   0.40;   BMIX     =  1.00
     AMIX_MAG =   1.60;   BMIX_MAG =  1.00
     AMIN     =   0.10
     WC   =   100.;   INIMIX=   1;  MIXPRE=   1;  MAXMIX= -45

 Intra band minimization:
   WEIMIN = 0.0000     energy-eigenvalue tresh-hold
   EBREAK =  0.10E-07  absolut break condition
   DEPER  =   0.30     relativ break condition  

   TIME   =   0.40     timestep for ELM

  volume/ion in A,a.u.               =       5.70        38.49
  Fermi-wavevector in a.u.,A,eV,Ry     =   1.454433  2.748480 28.781436  2.115376
  Thomas-Fermi vector in A             =   2.571584
 
 Write flags
   LWAVE        =      F    write WAVECAR
   LDOWNSAMPLE  =      F    k-point downsampling of WAVECAR
   LCHARG       =      F    write CHGCAR
   LVTOT        =      F    write LOCPOT, total local potential
   LVHAR        =      F    write LOCPOT, Hartree potential only
   LELF         =      F    write electronic localiz. function (ELF)
   LORBIT       =      0    0 simple, 1 ext, 2 COOP (PROOUT), +10 PAW based schemes


 Dipole corrections
   LMONO  =      F    monopole corrections only (constant potential shift)
   LDIPOL =      F    correct potential (dipole corrections)
   IDIPOL =      0    1-x, 2-y, 3-z, 4-all directions 
   EPSILON=  1.0000000 bulk dielectric constant

 Exchange correlation treatment:
   GGA     =    --    GGA type
   LEXCH   =     8    internal setting for exchange type
   VOSKOWN=      0    Vosko Wilk Nusair interpolation
   LHFCALC =     F    Hartree Fock is set to
   LHFONE  =     F    Hartree Fock one center treatment
   AEXX    =    0.0000 exact exchange contribution

 Linear response parameters
   LEPSILON=     F    determine dielectric tensor
   LRPA    =     F    only Hartree local field effects (RPA)
   LNABLA  =     F    use nabla operator in PAW spheres
   LVEL    =     F    velocity operator in full k-point grid
   LINTERFAST=   F  fast interpolation
   KINTER  =     0    interpolate to denser k-point grid
   CSHIFT  =0.1000    complex shift for real part using Kramers Kronig
   OMEGAMAX=  -1.0    maximum frequency
   DEG_THRESHOLD= 0.2000000E-02 threshold for treating states as degnerate
   RTIME   =   -0.100 relaxation time in fs
  (WPLASMAI=    0.000 imaginary part of plasma frequency in eV, 0.658/RTIME)
   DFIELD  = 0.0000000 0.0000000 0.0000000 field for delta impulse in time
 
 Orbital magnetization related:
   ORBITALMAG=     F  switch on orbital magnetization
   LCHIMAG   =     F  perturbation theory with respect to B field
   DQ        =  0.001000  dq finite difference perturbation B field
   LLRAUG    =     F  two centre corrections for induced B field



--------------------------------------------------------------------------------------------------------


 Static calculation
 charge density and potential will be updated during run
 non-spin polarized calculation
 Variant of blocked Davidson
 Davidson routine will perform the subspace rotation
 perform sub-space diagonalisation
    after iterative eigenvector-optimisation
 modified Broyden-mixing scheme, WC =      100.0
 initial mixing is a Kerker type mixing with AMIX =  0.4000 and BMIX =      1.0000
 Hartree-type preconditioning will be used
 using additional bands            8
 reciprocal scheme for non local part
 calculate Harris-corrections to forces 
   (improved forces if not selfconsistent)
 use gradient corrections 
 use of overlap-Matrix (Vanderbilt PP)
 Fermi weights with tetrahedron method with Bloechl corrections


--------------------------------------------------------------------------------------------------------


  energy-cutoff  :      400.00
  volume of cell :       45.63
      direct lattice vectors                 reciprocal lattice vectors
     3.573710000  0.000000000  0.000000000     0.279821250 -0.002798345 -0.002770775
     0.035737000  3.573531000  0.000000000     0.000000000  0.279835267 -0.002770743
     0.035737000  0.035381000  3.573356000     0.000000000  0.000000000  0.279848971

  length of vectors
     3.573710000  3.573709689  3.573709844     0.279848959  0.279848983  0.279848971


 
 k-points in units of 2pi/SCALE and weight: kpt_density=1000                        
   0.00000000  0.00000000  0.00000000       0.001
   0.02331844 -0.00023320 -0.00023090       0.003
   0.04663688 -0.00046639 -0.00046180       0.003
   0.06995531 -0.00069959 -0.00069269       0.003
   0.09327375 -0.00093278 -0.00092359       0.003
   0.11659219 -0.00116598 -0.00115449       0.003
   0.13991063 -0.00139917 -0.00138539       0.002
   0.02331844  0.02308641 -0.00046179       0.003
   0.04663688  0.02285321 -0.00069269       0.007
   0.06995531  0.02262002 -0.00092359       0.007
   0.09327375  0.02238682 -0.00115449       0.007
   0.11659219  0.02215363 -0.00138538       0.007
   0.13991063  0.02192043 -0.00161628       0.007
  -0.11659219  0.02448558  0.00092359       0.007
  -0.09327375  0.02425239  0.00069270       0.007
  -0.06995531  0.02401919  0.00046180       0.007
  -0.04663688  0.02378600  0.00023090       0.007
  -0.02331844  0.02355280  0.00000000       0.003
   0.04663688  0.04617282 -0.00092359       0.003
   0.06995531  0.04593962 -0.00115448       0.007
   0.09327375  0.04570643 -0.00138538       0.007
   0.11659219  0.04547323 -0.00161628       0.007
   0.13991063  0.04524004 -0.00184718       0.007
  -0.11659219  0.04780519  0.00069270       0.007
  -0.09327375  0.04757199  0.00046180       0.007
  -0.06995531  0.04733880  0.00023090       0.007
  -0.04663688  0.04710560  0.00000001       0.003
   0.06995531  0.06925923 -0.00138538       0.003
   0.09327375  0.06902604 -0.00161628       0.007
   0.11659219  0.06879284 -0.00184718       0.007
   0.13991063  0.06855964 -0.00207807       0.007
  -0.11659219  0.07112479  0.00046180       0.007
  -0.09327375  0.07089160  0.00023091       0.007
  -0.06995531  0.07065840  0.00000001       0.003
   0.09327375  0.09234564 -0.00184717       0.003
   0.11659219  0.09211245 -0.00207807       0.007
   0.13991063  0.09187925 -0.00230897       0.007
  -0.11659219  0.09444440  0.00023091       0.007
  -0.09327375  0.09421120  0.00000001       0.003
   0.11659219  0.11543205 -0.00230897       0.003
   0.13991063  0.11519886 -0.00253986       0.007
  -0.11659219  0.11776400  0.00000001       0.003
   0.13991063  0.13851846 -0.00277076       0.002
   0.02331844  0.02308641  0.02285895       0.001
   0.04663688  0.02285321  0.02262806       0.003
   0.06995531  0.02262002  0.02239716       0.003
   0.09327375  0.02238682  0.02216626       0.003
   0.11659219  0.02215363  0.02193536       0.003
   0.13991063  0.02192043  0.02170447       0.003
  -0.11659219  0.02448558  0.02424434       0.003
  -0.09327375  0.02425239  0.02401344       0.003
  -0.06995531  0.02401919  0.02378255       0.003
  -0.04663688  0.02378600  0.02355165       0.003
  -0.02331844  0.02355280  0.02332075       0.003
   0.04663688  0.04617282  0.02239716       0.003
   0.06995531  0.04593962  0.02216626       0.007
   0.09327375  0.04570643  0.02193537       0.007
   0.11659219  0.04547323  0.02170447       0.007
   0.13991063  0.04524004  0.02147357       0.007
  -0.11659219  0.04780519  0.02401345       0.007
  -0.09327375  0.04757199  0.02378255       0.007
  -0.06995531  0.04733880  0.02355165       0.007
  -0.04663688  0.04710560  0.02332075       0.007
  -0.02331844  0.04687241  0.02308985       0.007
   0.06995531  0.06925923  0.02193537       0.003
   0.09327375  0.06902604  0.02170447       0.007
   0.11659219  0.06879284  0.02147357       0.007
   0.13991063  0.06855964  0.02124267       0.007
  -0.11659219  0.07112479  0.02378255       0.007
  -0.09327375  0.07089160  0.02355165       0.007
  -0.06995531  0.07065840  0.02332076       0.007
  -0.04663688  0.07042521  0.02308986       0.007
  -0.02331844  0.07019201  0.02285896       0.007
   0.09327375  0.09234564  0.02147358       0.003
   0.11659219  0.09211245  0.02124268       0.007
   0.13991063  0.09187925  0.02101178       0.007
  -0.11659219  0.09444440  0.02355166       0.007
  -0.09327375  0.09421120  0.02332076       0.007
  -0.06995531  0.09397801  0.02308986       0.007
  -0.04663688  0.09374481  0.02285896       0.007
  -0.02331844  0.09351162  0.02262806       0.007
   0.11659219  0.11543205  0.02101178       0.003
   0.13991063  0.11519886  0.02078088       0.007
  -0.11659219  0.11776400  0.02332076       0.007
  -0.09327375  0.11753081  0.02308986       0.007
  -0.06995531  0.11729761  0.02285896       0.007
  -0.04663688  0.11706442  0.02262807       0.007
  -0.02331844  0.11683122  0.02239717       0.007
   0.13991063  0.13851846  0.02054999       0.003
  -0.11659219  0.14108361  0.02308987       0.007
  -0.09327375  0.14085041  0.02285897       0.007
  -0.06995531  0.14061722  0.02262807       0.007
  -0.04663688  0.14038402  0.02239717       0.007
  -0.02331844  0.14015083  0.02216627       0.003
  -0.11659219 -0.11543205  0.02562971       0.003
  -0.09327375 -0.11566525  0.02539882       0.007
  -0.06995531 -0.11589844  0.02516792       0.007
  -0.04663688 -0.11613164  0.02493702       0.007
  -0.09327375 -0.09234564  0.02516792       0.003
  -0.06995531 -0.09257884  0.02493702       0.007
  -0.04663688 -0.09281203  0.02470612       0.007
  -0.06995531 -0.06925923  0.02470613       0.003
  -0.04663688 -0.06949243  0.02447523       0.007
  -0.04663688 -0.04617282  0.02424433       0.003
   0.04663688  0.04617282  0.04571791       0.001
   0.06995531  0.04593962  0.04548701       0.003
   0.09327375  0.04570643  0.04525611       0.003
   0.11659219  0.04547323  0.04502522       0.003
   0.13991063  0.04524004  0.04479432       0.003
  -0.11659219  0.04780519  0.04733419       0.003
  -0.09327375  0.04757199  0.04710330       0.003
  -0.06995531  0.04733880  0.04687240       0.003
  -0.04663688  0.04710560  0.04664150       0.003
   0.06995531  0.06925923  0.04525612       0.003
   0.09327375  0.06902604  0.04502522       0.007
   0.11659219  0.06879284  0.04479432       0.007
   0.13991063  0.06855964  0.04456342       0.007
  -0.11659219  0.07112479  0.04710330       0.007
  -0.09327375  0.07089160  0.04687240       0.007
  -0.06995531  0.07065840  0.04664150       0.007
  -0.04663688  0.07042521  0.04641061       0.007
   0.09327375  0.09234564  0.04479432       0.003
   0.11659219  0.09211245  0.04456342       0.007
   0.13991063  0.09187925  0.04433253       0.007
  -0.11659219  0.09444440  0.04687240       0.007
  -0.09327375  0.09421120  0.04664151       0.007
  -0.06995531  0.09397801  0.04641061       0.007
  -0.04663688  0.09374481  0.04617971       0.007
   0.11659219  0.11543205  0.04433253       0.003
   0.13991063  0.11519886  0.04410163       0.007
  -0.11659219  0.11776400  0.04664151       0.007
  -0.09327375  0.11753081  0.04641061       0.007
  -0.06995531  0.11729761  0.04617971       0.007
  -0.04663688  0.11706442  0.04594881       0.007
   0.13991063  0.13851846  0.04387074       0.003
  -0.11659219  0.14108361  0.04641061       0.007
  -0.09327375  0.14085041  0.04617972       0.007
  -0.06995531  0.14061722  0.04594882       0.007
  -0.04663688  0.14038402  0.04571792       0.003
  -0.11659219 -0.11543205  0.04895046       0.003
  -0.09327375 -0.11566525  0.04871956       0.007
  -0.06995531 -0.11589844  0.04848867       0.007
  -0.09327375 -0.09234564  0.04848867       0.003
  -0.06995531 -0.09257884  0.04825777       0.007
  -0.06995531 -0.06925923  0.04802687       0.003
   0.06995531  0.06925923  0.06857686       0.001
   0.09327375  0.06902604  0.06834597       0.003
   0.11659219  0.06879284  0.06811507       0.003
   0.13991063  0.06855964  0.06788417       0.003
  -0.11659219  0.07112479  0.07042405       0.003
  -0.09327375  0.07089160  0.07019315       0.003
  -0.06995531  0.07065840  0.06996225       0.003
   0.09327375  0.09234564  0.06811507       0.003
   0.11659219  0.09211245  0.06788417       0.007
   0.13991063  0.09187925  0.06765327       0.007
  -0.11659219  0.09444440  0.07019315       0.007
  -0.09327375  0.09421120  0.06996225       0.007
  -0.06995531  0.09397801  0.06973136       0.007
   0.11659219  0.11543205  0.06765328       0.003
   0.13991063  0.11519886  0.06742238       0.007
  -0.11659219  0.11776400  0.06996226       0.007
  -0.09327375  0.11753081  0.06973136       0.007
  -0.06995531  0.11729761  0.06950046       0.007
   0.13991063  0.13851846  0.06719148       0.003
  -0.11659219  0.14108361  0.06973136       0.007
  -0.09327375  0.14085041  0.06950046       0.007
  -0.06995531  0.14061722  0.06926956       0.003
  -0.11659219 -0.11543205  0.07227121       0.003
  -0.09327375 -0.11566525  0.07204031       0.007
  -0.09327375 -0.09234564  0.07180942       0.003
   0.09327375  0.09234564  0.09143582       0.001
   0.11659219  0.09211245  0.09120492       0.003
   0.13991063  0.09187925  0.09097402       0.003
  -0.11659219  0.09444440  0.09351390       0.003
  -0.09327375  0.09421120  0.09328300       0.003
   0.11659219  0.11543205  0.09097402       0.003
   0.13991063  0.11519886  0.09074313       0.007
  -0.11659219  0.11776400  0.09328300       0.007
  -0.09327375  0.11753081  0.09305211       0.007
   0.13991063  0.13851846  0.09051223       0.003
  -0.11659219  0.14108361  0.09305211       0.007
  -0.09327375  0.14085041  0.09282121       0.003
  -0.11659219 -0.11543205  0.09559196       0.003
   0.11659219  0.11543205  0.11429477       0.001
   0.13991063  0.11519886  0.11406387       0.003
  -0.11659219  0.11776400  0.11660375       0.003
   0.13991063  0.13851846  0.11383298       0.003
  -0.11659219  0.14108361  0.11637286       0.003
   0.13991063  0.13851846  0.13715373       0.001
 
 k-points in reciprocal lattice and weights: kpt_density=1000                        
   0.00000000  0.00000000  0.00000000       0.001
   0.08333333 -0.00000000 -0.00000000       0.003
   0.16666667  0.00000000 -0.00000000       0.003
   0.25000000  0.00000000 -0.00000000       0.003
   0.33333333 -0.00000000 -0.00000000       0.003
   0.41666667 -0.00000000 -0.00000000       0.003
   0.50000000  0.00000000 -0.00000000       0.002
   0.08333333  0.08333333 -0.00000000       0.003
   0.16666667  0.08333333 -0.00000000       0.007
   0.25000000  0.08333333 -0.00000000       0.007
   0.33333333  0.08333333 -0.00000000       0.007
   0.41666667  0.08333333 -0.00000000       0.007
   0.50000000  0.08333333 -0.00000000       0.007
  -0.41666667  0.08333333  0.00000000       0.007
  -0.33333333  0.08333333  0.00000000       0.007
  -0.25000000  0.08333333  0.00000000       0.007
  -0.16666667  0.08333333  0.00000000       0.007
  -0.08333333  0.08333333  0.00000000       0.003
   0.16666667  0.16666667 -0.00000000       0.003
   0.25000000  0.16666667 -0.00000000       0.007
   0.33333333  0.16666667 -0.00000000       0.007
   0.41666667  0.16666667 -0.00000000       0.007
   0.50000000  0.16666667 -0.00000000       0.007
  -0.41666667  0.16666667  0.00000000       0.007
  -0.33333333  0.16666667  0.00000000       0.007
  -0.25000000  0.16666667  0.00000000       0.007
  -0.16666667  0.16666667 -0.00000000       0.003
   0.25000000  0.25000000 -0.00000000       0.003
   0.33333333  0.25000000 -0.00000000       0.007
   0.41666667  0.25000000 -0.00000000       0.007
   0.50000000  0.25000000 -0.00000000       0.007
  -0.41666667  0.25000000  0.00000000       0.007
  -0.33333333  0.25000000  0.00000000       0.007
  -0.25000000  0.25000000 -0.00000000       0.003
   0.33333333  0.33333333 -0.00000000       0.003
   0.41666667  0.33333333 -0.00000000       0.007
   0.50000000  0.33333333 -0.00000000       0.007
  -0.41666667  0.33333333  0.00000000       0.007
  -0.33333333  0.33333333  0.00000000       0.003
   0.41666667  0.41666667 -0.00000000       0.003
   0.50000000  0.41666667 -0.00000000       0.007
  -0.41666667  0.41666667  0.00000000       0.003
   0.50000000  0.50000000 -0.00000000       0.002
   0.08333333  0.08333333  0.08333333       0.001
   0.16666667  0.08333333  0.08333333       0.003
   0.25000000  0.08333333  0.08333333       0.003
   0.33333333  0.08333333  0.08333333       0.003
   0.41666667  0.08333333  0.08333333       0.003
   0.50000000  0.08333333  0.08333333       0.003
  -0.41666667  0.08333333  0.08333333       0.003
  -0.33333333  0.08333333  0.08333333       0.003
  -0.25000000  0.08333333  0.08333333       0.003
  -0.16666667  0.08333333  0.08333333       0.003
  -0.08333333  0.08333333  0.08333333       0.003
   0.16666667  0.16666667  0.08333333       0.003
   0.25000000  0.16666667  0.08333333       0.007
   0.33333333  0.16666667  0.08333333       0.007
   0.41666667  0.16666667  0.08333333       0.007
   0.50000000  0.16666667  0.08333333       0.007
  -0.41666667  0.16666667  0.08333333       0.007
  -0.33333333  0.16666667  0.08333333       0.007
  -0.25000000  0.16666667  0.08333333       0.007
  -0.16666667  0.16666667  0.08333333       0.007
  -0.08333333  0.16666667  0.08333333       0.007
   0.25000000  0.25000000  0.08333333       0.003
   0.33333333  0.25000000  0.08333333       0.007
   0.41666667  0.25000000  0.08333333       0.007
   0.50000000  0.25000000  0.08333333       0.007
  -0.41666667  0.25000000  0.08333333       0.007
  -0.33333333  0.25000000  0.08333333       0.007
  -0.25000000  0.25000000  0.08333333       0.007
  -0.16666667  0.25000000  0.08333333       0.007
  -0.08333333  0.25000000  0.08333333       0.007
   0.33333333  0.33333333  0.08333333       0.003
   0.41666667  0.33333333  0.08333333       0.007
   0.50000000  0.33333333  0.08333333       0.007
  -0.41666667  0.33333333  0.08333333       0.007
  -0.33333333  0.33333333  0.08333333       0.007
  -0.25000000  0.33333333  0.08333333       0.007
  -0.16666667  0.33333333  0.08333333       0.007
  -0.08333333  0.33333333  0.08333333       0.007
   0.41666667  0.41666667  0.08333333       0.003
   0.50000000  0.41666667  0.08333333       0.007
  -0.41666667  0.41666667  0.08333333       0.007
  -0.33333333  0.41666667  0.08333333       0.007
  -0.25000000  0.41666667  0.08333333       0.007
  -0.16666667  0.41666667  0.08333333       0.007
  -0.08333333  0.41666667  0.08333333       0.007
   0.50000000  0.50000000  0.08333333       0.003
  -0.41666667  0.50000000  0.08333333       0.007
  -0.33333333  0.50000000  0.08333333       0.007
  -0.25000000  0.50000000  0.08333333       0.007
  -0.16666667  0.50000000  0.08333333       0.007
  -0.08333333  0.50000000  0.08333333       0.003
  -0.41666667 -0.41666667  0.08333333       0.003
  -0.33333333 -0.41666667  0.08333333       0.007
  -0.25000000 -0.41666667  0.08333333       0.007
  -0.16666667 -0.41666667  0.08333333       0.007
  -0.33333333 -0.33333333  0.08333333       0.003
  -0.25000000 -0.33333333  0.08333333       0.007
  -0.16666667 -0.33333333  0.08333333       0.007
  -0.25000000 -0.25000000  0.08333333       0.003
  -0.16666667 -0.25000000  0.08333333       0.007
  -0.16666667 -0.16666667  0.08333333       0.003
   0.16666667  0.16666667  0.16666667       0.001
   0.25000000  0.16666667  0.16666667       0.003
   0.33333333  0.16666667  0.16666667       0.003
   0.41666667  0.16666667  0.16666667       0.003
   0.50000000  0.16666667  0.16666667       0.003
  -0.41666667  0.16666667  0.16666667       0.003
  -0.33333333  0.16666667  0.16666667       0.003
  -0.25000000  0.16666667  0.16666667       0.003
  -0.16666667  0.16666667  0.16666667       0.003
   0.25000000  0.25000000  0.16666667       0.003
   0.33333333  0.25000000  0.16666667       0.007
   0.41666667  0.25000000  0.16666667       0.007
   0.50000000  0.25000000  0.16666667       0.007
  -0.41666667  0.25000000  0.16666667       0.007
  -0.33333333  0.25000000  0.16666667       0.007
  -0.25000000  0.25000000  0.16666667       0.007
  -0.16666667  0.25000000  0.16666667       0.007
   0.33333333  0.33333333  0.16666667       0.003
   0.41666667  0.33333333  0.16666667       0.007
   0.50000000  0.33333333  0.16666667       0.007
  -0.41666667  0.33333333  0.16666667       0.007
  -0.33333333  0.33333333  0.16666667       0.007
  -0.25000000  0.33333333  0.16666667       0.007
  -0.16666667  0.33333333  0.16666667       0.007
   0.41666667  0.41666667  0.16666667       0.003
   0.50000000  0.41666667  0.16666667       0.007
  -0.41666667  0.41666667  0.16666667       0.007
  -0.33333333  0.41666667  0.16666667       0.007
  -0.25000000  0.41666667  0.16666667       0.007
  -0.16666667  0.41666667  0.16666667       0.007
   0.50000000  0.50000000  0.16666667       0.003
  -0.41666667  0.50000000  0.16666667       0.007
  -0.33333333  0.50000000  0.16666667       0.007
  -0.25000000  0.50000000  0.16666667       0.007
  -0.16666667  0.50000000  0.16666667       0.003
  -0.41666667 -0.41666667  0.16666667       0.003
  -0.33333333 -0.41666667  0.16666667       0.007
  -0.25000000 -0.41666667  0.16666667       0.007
  -0.33333333 -0.33333333  0.16666667       0.003
  -0.25000000 -0.33333333  0.16666667       0.007
  -0.25000000 -0.25000000  0.16666667       0.003
   0.25000000  0.25000000  0.25000000       0.001
   0.33333333  0.25000000  0.25000000       0.003
   0.41666667  0.25000000  0.25000000       0.003
   0.50000000  0.25000000  0.25000000       0.003
  -0.41666667  0.25000000  0.25000000       0.003
  -0.33333333  0.25000000  0.25000000       0.003
  -0.25000000  0.25000000  0.25000000       0.003
   0.33333333  0.33333333  0.25000000       0.003
   0.41666667  0.33333333  0.25000000       0.007
   0.50000000  0.33333333  0.25000000       0.007
  -0.41666667  0.33333333  0.25000000       0.007
  -0.33333333  0.33333333  0.25000000       0.007
  -0.25000000  0.33333333  0.25000000       0.007
   0.41666667  0.41666667  0.25000000       0.003
   0.50000000  0.41666667  0.25000000       0.007
  -0.41666667  0.41666667  0.25000000       0.007
  -0.33333333  0.41666667  0.25000000       0.007
  -0.25000000  0.41666667  0.25000000       0.007
   0.50000000  0.50000000  0.25000000       0.003
  -0.41666667  0.50000000  0.25000000       0.007
  -0.33333333  0.50000000  0.25000000       0.007
  -0.25000000  0.50000000  0.25000000       0.003
  -0.41666667 -0.41666667  0.25000000       0.003
  -0.33333333 -0.41666667  0.25000000       0.007
  -0.33333333 -0.33333333  0.25000000       0.003
   0.33333333  0.33333333  0.33333333       0.001
   0.41666667  0.33333333  0.33333333       0.003
   0.50000000  0.33333333  0.33333333       0.003
  -0.41666667  0.33333333  0.33333333       0.003
  -0.33333333  0.33333333  0.33333333       0.003
   0.41666667  0.41666667  0.33333333       0.003
   0.50000000  0.41666667  0.33333333       0.007
  -0.41666667  0.41666667  0.33333333       0.007
  -0.33333333  0.41666667  0.33333333       0.007
   0.50000000  0.50000000  0.33333333       0.003
  -0.41666667  0.50000000  0.33333333       0.007
  -0.33333333  0.50000000  0.33333333       0.003
  -0.41666667 -0.41666667  0.33333333       0.003
   0.41666667  0.41666667  0.41666667       0.001
   0.50000000  0.41666667  0.41666667       0.003
  -0.41666667  0.41666667  0.41666667       0.003
   0.50000000  0.50000000  0.41666667       0.003
  -0.41666667  0.50000000  0.41666667       0.003
   0.50000000  0.50000000  0.50000000       0.001
 
 position of ions in fractional coordinates (direct lattice) 
   0.25000000  0.75000000  0.25000000
   0.00000000  0.00000000  0.50000000
   0.25000000  0.25000000  0.75000000
   0.00000000  0.50000000  0.00000000
   0.75000000  0.75000000  0.75000000
   0.50000000  0.00000000  0.00000000
   0.75000000  0.25000000  0.25000000
   0.50000000  0.50000000  0.50000000
 
 position of ions in cartesian coordinates  (Angst):
   0.92916450  2.68899350  0.89333900
   0.01786850  0.01769050  1.78667800
   0.92916450  0.91991850  2.68001700
   0.01786850  1.78676550  0.00000000
   2.73388800  2.70668400  2.68001700
   1.78685500  0.00000000  0.00000000
   2.69815100  0.90222800  0.89333900
   1.82259200  1.80445600  1.78667800
 


--------------------------------------------------------------------------------------------------------


 k-point  1 :   0.0000 0.0000 0.0000  plane waves:     817
 k-point  2 :   0.0833-0.0000-0.0000  plane waves:     822
 k-point  3 :   0.1667 0.0000-0.0000  plane waves:     823
 k-point  4 :   0.2500 0.0000-0.0000  plane waves:     824
 k-point  5 :   0.3333-0.0000-0.0000  plane waves:     829
 k-point  6 :   0.4167-0.0000-0.0000  plane waves:     827
 k-point  7 :   0.5000 0.0000-0.0000  plane waves:     826
 k-point  8 :   0.0833 0.0833-0.0000  plane waves:     817
 k-point  9 :   0.1667 0.0833-0.0000  plane waves:     818
 k-point 10 :   0.2500 0.0833-0.0000  plane waves:     826
 k-point 11 :   0.3333 0.0833-0.0000  plane waves:     831
 k-point 12 :   0.4167 0.0833-0.0000  plane waves:     830
 k-point 13 :   0.5000 0.0833-0.0000  plane waves:     830
 k-point 14 :  -0.4167 0.0833 0.0000  plane waves:     834
 k-point 15 :  -0.3333 0.0833 0.0000  plane waves:     830
 k-point 16 :  -0.2500 0.0833 0.0000  plane waves:     824
 k-point 17 :  -0.1667 0.0833 0.0000  plane waves:     825
 k-point 18 :  -0.0833 0.0833 0.0000  plane waves:     821
 k-point 19 :   0.1667 0.1667-0.0000  plane waves:     817
 k-point 20 :   0.2500 0.1667-0.0000  plane waves:     823
 k-point 21 :   0.3333 0.1667-0.0000  plane waves:     834
 k-point 22 :   0.4167 0.1667-0.0000  plane waves:     832
 k-point 23 :   0.5000 0.1667-0.0000  plane waves:     830
 k-point 24 :  -0.4167 0.1667 0.0000  plane waves:     836
 k-point 25 :  -0.3333 0.1667 0.0000  plane waves:     829
 k-point 26 :  -0.2500 0.1667 0.0000  plane waves:     831
 k-point 27 :  -0.1667 0.1667-0.0000  plane waves:     826
 k-point 28 :   0.2500 0.2500-0.0000  plane waves:     826
 k-point 29 :   0.3333 0.2500-0.0000  plane waves:     832
 k-point 30 :   0.4167 0.2500-0.0000  plane waves:     828
 k-point 31 :   0.5000 0.2500-0.0000  plane waves:     824
 k-point 32 :  -0.4167 0.2500 0.0000  plane waves:     828
 k-point 33 :  -0.3333 0.2500 0.0000  plane waves:     833
 k-point 34 :  -0.2500 0.2500-0.0000  plane waves:     830
 k-point 35 :   0.3333 0.3333-0.0000  plane waves:     834
 k-point 36 :   0.4167 0.3333-0.0000  plane waves:     827
 k-point 37 :   0.5000 0.3333-0.0000  plane waves:     823
 k-point 38 :  -0.4167 0.3333 0.0000  plane waves:     832
 k-point 39 :  -0.3333 0.3333 0.0000  plane waves:     834
 k-point 40 :   0.4167 0.4167-0.0000  plane waves:     834
 k-point 41 :   0.5000 0.4167-0.0000  plane waves:     830
 k-point 42 :  -0.4167 0.4167 0.0000  plane waves:     834
 k-point 43 :   0.5000 0.5000-0.0000  plane waves:     844
 k-point 44 :   0.0833 0.0833 0.0833  plane waves:     820
 k-point 45 :   0.1667 0.0833 0.0833  plane waves:     816
 k-point 46 :   0.2500 0.0833 0.0833  plane waves:     824
 k-point 47 :   0.3333 0.0833 0.0833  plane waves:     823
 k-point 48 :   0.4167 0.0833 0.0833  plane waves:     826
 k-point 49 :   0.5000 0.0833 0.0833  plane waves:     828
 k-point 50 :  -0.4167 0.0833 0.0833  plane waves:     828
 k-point 51 :  -0.3333 0.0833 0.0833  plane waves:     828
 k-point 52 :  -0.2500 0.0833 0.0833  plane waves:     826
 k-point 53 :  -0.1667 0.0833 0.0833  plane waves:     828
 k-point 54 :  -0.0833 0.0833 0.0833  plane waves:     820
 k-point 55 :   0.1667 0.1667 0.0833  plane waves:     819
 k-point 56 :   0.2500 0.1667 0.0833  plane waves:     822
 k-point 57 :   0.3333 0.1667 0.0833  plane waves:     830
 k-point 58 :   0.4167 0.1667 0.0833  plane waves:     829
 k-point 59 :   0.5000 0.1667 0.0833  plane waves:     830
 k-point 60 :  -0.4167 0.1667 0.0833  plane waves:     834
 k-point 61 :  -0.3333 0.1667 0.0833  plane waves:     832
 k-point 62 :  -0.2500 0.1667 0.0833  plane waves:     830
 k-point 63 :  -0.1667 0.1667 0.0833  plane waves:     826
 k-point 64 :  -0.0833 0.1667 0.0833  plane waves:     821
 k-point 65 :   0.2500 0.2500 0.0833  plane waves:     824
 k-point 66 :   0.3333 0.2500 0.0833  plane waves:     832
 k-point 67 :   0.4167 0.2500 0.0833  plane waves:     829
 k-point 68 :   0.5000 0.2500 0.0833  plane waves:     826
 k-point 69 :  -0.4167 0.2500 0.0833  plane waves:     833
 k-point 70 :  -0.3333 0.2500 0.0833  plane waves:     833
 k-point 71 :  -0.2500 0.2500 0.0833  plane waves:     830
 k-point 72 :  -0.1667 0.2500 0.0833  plane waves:     826
 k-point 73 :  -0.0833 0.2500 0.0833  plane waves:     824
 k-point 74 :   0.3333 0.3333 0.0833  plane waves:     830
 k-point 75 :   0.4167 0.3333 0.0833  plane waves:     829
 k-point 76 :   0.5000 0.3333 0.0833  plane waves:     827
 k-point 77 :  -0.4167 0.3333 0.0833  plane waves:     830
 k-point 78 :  -0.3333 0.3333 0.0833  plane waves:     835
 k-point 79 :  -0.2500 0.3333 0.0833  plane waves:     830
 k-point 80 :  -0.1667 0.3333 0.0833  plane waves:     826
 k-point 81 :  -0.0833 0.3333 0.0833  plane waves:     830
 k-point 82 :   0.4167 0.4167 0.0833  plane waves:     831
 k-point 83 :   0.5000 0.4167 0.0833  plane waves:     834
 k-point 84 :  -0.4167 0.4167 0.0833  plane waves:     830
 k-point 85 :  -0.3333 0.4167 0.0833  plane waves:     831
 k-point 86 :  -0.2500 0.4167 0.0833  plane waves:     829
 k-point 87 :  -0.1667 0.4167 0.0833  plane waves:     829
 k-point 88 :  -0.0833 0.4167 0.0833  plane waves:     834
 k-point 89 :   0.5000 0.5000 0.0833  plane waves:     833
 k-point 90 :  -0.4167 0.5000 0.0833  plane waves:     830
 k-point 91 :  -0.3333 0.5000 0.0833  plane waves:     827
 k-point 92 :  -0.2500 0.5000 0.0833  plane waves:     823
 k-point 93 :  -0.1667 0.5000 0.0833  plane waves:     827
 k-point 94 :  -0.0833 0.5000 0.0833  plane waves:     830
 k-point 95 :  -0.4167-0.4167 0.0833  plane waves:     824
 k-point 96 :  -0.3333-0.4167 0.0833  plane waves:     828
 k-point 97 :  -0.2500-0.4167 0.0833  plane waves:     828
 k-point 98 :  -0.1667-0.4167 0.0833  plane waves:     832
 k-point 99 :  -0.3333-0.3333 0.0833  plane waves:     832
 k-point ** :  -0.2500-0.3333 0.0833  plane waves:     833
 k-point ** :  -0.1667-0.3333 0.0833  plane waves:     831
 k-point ** :  -0.2500-0.2500 0.0833  plane waves:     831
 k-point ** :  -0.1667-0.2500 0.0833  plane waves:     825
 k-point ** :  -0.1667-0.1667 0.0833  plane waves:     823
 k-point ** :   0.1667 0.1667 0.1667  plane waves:     820
 k-point ** :   0.2500 0.1667 0.1667  plane waves:     827
 k-point ** :   0.3333 0.1667 0.1667  plane waves:     825
 k-point ** :   0.4167 0.1667 0.1667  plane waves:     827
 k-point ** :   0.5000 0.1667 0.1667  plane waves:     830
 k-point ** :  -0.4167 0.1667 0.1667  plane waves:     828
 k-point ** :  -0.3333 0.1667 0.1667  plane waves:     829
 k-point ** :  -0.2500 0.1667 0.1667  plane waves:     829
 k-point ** :  -0.1667 0.1667 0.1667  plane waves:     825
 k-point ** :   0.2500 0.2500 0.1667  plane waves:     829
 k-point ** :   0.3333 0.2500 0.1667  plane waves:     827
 k-point ** :   0.4167 0.2500 0.1667  plane waves:     825
 k-point ** :   0.5000 0.2500 0.1667  plane waves:     824
 k-point ** :  -0.4167 0.2500 0.1667  plane waves:     826
 k-point ** :  -0.3333 0.2500 0.1667  plane waves:     831
 k-point ** :  -0.2500 0.2500 0.1667  plane waves:     829
 k-point ** :  -0.1667 0.2500 0.1667  plane waves:     826
 k-point ** :   0.3333 0.3333 0.1667  plane waves:     830
 k-point ** :   0.4167 0.3333 0.1667  plane waves:     825
 k-point ** :   0.5000 0.3333 0.1667  plane waves:     825
 k-point ** :  -0.4167 0.3333 0.1667  plane waves:     821
 k-point ** :  -0.3333 0.3333 0.1667  plane waves:     831
 k-point ** :  -0.2500 0.3333 0.1667  plane waves:     830
 k-point ** :  -0.1667 0.3333 0.1667  plane waves:     829
 k-point ** :   0.4167 0.4167 0.1667  plane waves:     827
 k-point ** :   0.5000 0.4167 0.1667  plane waves:     832
 k-point ** :  -0.4167 0.4167 0.1667  plane waves:     830
 k-point ** :  -0.3333 0.4167 0.1667  plane waves:     825
 k-point ** :  -0.2500 0.4167 0.1667  plane waves:     824
 k-point ** :  -0.1667 0.4167 0.1667  plane waves:     826
 k-point ** :   0.5000 0.5000 0.1667  plane waves:     837
 k-point ** :  -0.4167 0.5000 0.1667  plane waves:     831
 k-point ** :  -0.3333 0.5000 0.1667  plane waves:     828
 k-point ** :  -0.2500 0.5000 0.1667  plane waves:     823
 k-point ** :  -0.1667 0.5000 0.1667  plane waves:     828
 k-point ** :  -0.4167-0.4167 0.1667  plane waves:     825
 k-point ** :  -0.3333-0.4167 0.1667  plane waves:     830
 k-point ** :  -0.2500-0.4167 0.1667  plane waves:     823
 k-point ** :  -0.3333-0.3333 0.1667  plane waves:     833
 k-point ** :  -0.2500-0.3333 0.1667  plane waves:     830
 k-point ** :  -0.2500-0.2500 0.1667  plane waves:     831
 k-point ** :   0.2500 0.2500 0.2500  plane waves:     829
 k-point ** :   0.3333 0.2500 0.2500  plane waves:     833
 k-point ** :   0.4167 0.2500 0.2500  plane waves:     828
 k-point ** :   0.5000 0.2500 0.2500  plane waves:     825
 k-point ** :  -0.4167 0.2500 0.2500  plane waves:     830
 k-point ** :  -0.3333 0.2500 0.2500  plane waves:     831
 k-point ** :  -0.2500 0.2500 0.2500  plane waves:     832
 k-point ** :   0.3333 0.3333 0.2500  plane waves:     828
 k-point ** :   0.4167 0.3333 0.2500  plane waves:     825
 k-point ** :   0.5000 0.3333 0.2500  plane waves:     827
 k-point ** :  -0.4167 0.3333 0.2500  plane waves:     829
 k-point ** :  -0.3333 0.3333 0.2500  plane waves:     830
 k-point ** :  -0.2500 0.3333 0.2500  plane waves:     830
 k-point ** :   0.4167 0.4167 0.2500  plane waves:     827
 k-point ** :   0.5000 0.4167 0.2500  plane waves:     833
 k-point ** :  -0.4167 0.4167 0.2500  plane waves:     831
 k-point ** :  -0.3333 0.4167 0.2500  plane waves:     829
 k-point ** :  -0.2500 0.4167 0.2500  plane waves:     825
 k-point ** :   0.5000 0.5000 0.2500  plane waves:     836
 k-point ** :  -0.4167 0.5000 0.2500  plane waves:     836
 k-point ** :  -0.3333 0.5000 0.2500  plane waves:     833
 k-point ** :  -0.2500 0.5000 0.2500  plane waves:     824
 k-point ** :  -0.4167-0.4167 0.2500  plane waves:     833
 k-point ** :  -0.3333-0.4167 0.2500  plane waves:     831
 k-point ** :  -0.3333-0.3333 0.2500  plane waves:     832
 k-point ** :   0.3333 0.3333 0.3333  plane waves:     823
 k-point ** :   0.4167 0.3333 0.3333  plane waves:     824
 k-point ** :   0.5000 0.3333 0.3333  plane waves:     831
 k-point ** :  -0.4167 0.3333 0.3333  plane waves:     832
 k-point ** :  -0.3333 0.3333 0.3333  plane waves:     827
 k-point ** :   0.4167 0.4167 0.3333  plane waves:     834
 k-point ** :   0.5000 0.4167 0.3333  plane waves:     834
 k-point ** :  -0.4167 0.4167 0.3333  plane waves:     831
 k-point ** :  -0.3333 0.4167 0.3333  plane waves:     830
 k-point ** :   0.5000 0.5000 0.3333  plane waves:     843
 k-point ** :  -0.4167 0.5000 0.3333  plane waves:     835
 k-point ** :  -0.3333 0.5000 0.3333  plane waves:     834
 k-point ** :  -0.4167-0.4167 0.3333  plane waves:     835
 k-point ** :   0.4167 0.4167 0.4167  plane waves:     861
 k-point ** :   0.5000 0.4167 0.4167  plane waves:     851
 k-point ** :  -0.4167 0.4167 0.4167  plane waves:     840
 k-point ** :   0.5000 0.5000 0.4167  plane waves:     849
 k-point ** :  -0.4167 0.5000 0.4167  plane waves:     844
 k-point ** :   0.5000 0.5000 0.5000  plane waves:     840

 maximum and minimum number of plane-waves per node :       222      186

 maximum number of plane-waves:       861
 maximum index in each direction: 
   IXMAX=    6   IYMAX=    6   IZMAX=    5
   IXMIN=   -6   IYMIN=   -6   IZMIN=   -6


 parallel 3D FFT for wavefunctions:
    minimum data exchange during FFTs selected (reduces bandwidth)
 parallel 3D FFT for charge:
    minimum data exchange during FFTs selected (reduces bandwidth)


 total amount of memory used by VASP MPI-rank0    37925. kBytes
=======================================================================

   base      :      30000. kBytes
   nonl-proj :       2738. kBytes
   fftplans  :        346. kBytes
   grid      :        481. kBytes
   one-center:          6. kBytes
   wavefun   :       4354. kBytes
 
     INWAV:  cpu time    0.0004: real time    0.0005
 Broyden mixing: mesh for mixing (old mesh)
   NGX = 11   NGY = 11   NGZ = 11
  (NGX  = 48   NGY  = 48   NGZ  = 48)
  gives a total of   1331 points

 initial charge density was supplied:
 charge density of overlapping atoms calculated
 number of electron      32.0000000 magnetization 
 keeping initial charge density in first step


--------------------------------------------------------------------------------------------------------


 Maximum index for augmentation-charges          277 (set IRDMAX)


--------------------------------------------------------------------------------------------------------


 First call to EWALD:  gamma=   0.496
 Maximum number of real-space cells 3x 3x 3
 Maximum number of reciprocal cells 3x 3x 3

    FEWALD:  cpu time    0.0054: real time    0.0054


--------------------------------------- Iteration      1(   1)  ---------------------------------------


    POTLOK:  cpu time    0.0275: real time    0.0320
    SETDIJ:  cpu time    0.0066: real time    0.0066
     EDDAV:  cpu time    9.5320: real time    9.5422
 BZINTS: Fermi energy: 18.598214; 32.000000 electrons
         Band energy: 121.830238;  BLOECHL correction: -0.195152
       DOS:  cpu time    0.1692: real time    0.1692
    --------------------------------------------
      LOOP:  cpu time    9.7354: real time    9.7501

 eigenvalue-minimisations  :  9072
 total energy-change (2. order) : 0.5803028E+02  (-0.1443681E+04)
 number of electron      32.0000000 magnetization 
 augmentation part       32.0000000 magnetization 

 Free energy of the ion-electron system (eV)
  ---------------------------------------------------
  alpha Z        PSCENC =       114.27170876
  Ewald energy   TEWEN  =     -1389.13609716
  -Hartree energ DENC   =       -70.99106977
  -exchange      EXHF   =         0.00000000
  -V(xc)+E(xc)   XCENC  =       114.24154815
  PAW double counting   =       302.65154477     -311.85538214
  entropy T*S    EENTRO =         0.00000000
  eigenvalues    EBANDS =       121.83023772
  atomic energy  EATOM  =      1177.01779097
  Solvation  Ediel_sol  =         0.00000000
  ---------------------------------------------------
  free energy    TOTEN  =        58.03028132 eV

  energy without entropy =       58.03028132  energy(sigma->0) =       58.03028132


--------------------------------------------------------------------------------------------------------




--------------------------------------- Iteration      1(   2)  ---------------------------------------


     EDDAV:  cpu time   11.8395: real time   11.8405
 BZINTS: Fermi energy:  9.015921; 32.000000 electrons
         Band energy:  -7.177740;  BLOECHL correction:  0.000000
       DOS:  cpu time    0.0472: real time    0.0472
    --------------------------------------------
      LOOP:  cpu time   11.8866: real time   11.8877

 eigenvalue-minimisations  : 12600
 total energy-change (2. order) :-0.1290080E+03  (-0.1223921E+03)
 number of electron      32.0000000 magnetization 
 augmentation part       32.0000000 magnetization 

 Free energy of the ion-electron system (eV)
  ---------------------------------------------------
  alpha Z        PSCENC =       114.27170876
  Ewald energy   TEWEN  =     -1389.13609716
  -Hartree energ DENC   =       -70.99106977
  -exchange      EXHF   =         0.00000000
  -V(xc)+E(xc)   XCENC  =       114.24154815
  PAW double counting   =       302.65154477     -311.85538214
  entropy T*S    EENTRO =         0.00000000
  eigenvalues    EBANDS =        -7.17774021
  atomic energy  EATOM  =      1177.01779097
  Solvation  Ediel_sol  =         0.00000000
  ---------------------------------------------------
  free energy    TOTEN  =       -70.97769661 eV

  energy without entropy =      -70.97769661  energy(sigma->0) =      -70.97769661


--------------------------------------------------------------------------------------------------------




--------------------------------------- Iteration      1(   3)  ---------------------------------------


     EDDAV:  cpu time   11.2425: real time   11.2466
 BZINTS: Fermi energy:  8.319714; 32.000000 electrons
         Band energy: -11.376626;  BLOECHL correction:  0.000000
       DOS:  cpu time    0.0376: real time    0.0376
    --------------------------------------------
      LOOP:  cpu time   11.2802: real time   11.2843

 eigenvalue-minimisations  : 11768
 total energy-change (2. order) :-0.4198886E+01  (-0.4179213E+01)
 number of electron      32.0000000 magnetization 
 augmentation part       32.0000000 magnetization 

 Free energy of the ion-electron system (eV)
  ---------------------------------------------------
  alpha Z        PSCENC =       114.27170876
  Ewald energy   TEWEN  =     -1389.13609716
  -Hartree energ DENC   =       -70.99106977
  -exchange      EXHF   =         0.00000000
  -V(xc)+E(xc)   XCENC  =       114.24154815
  PAW double counting   =       302.65154477     -311.85538214
  entropy T*S    EENTRO =         0.00000000
  eigenvalues    EBANDS =       -11.37662590
  atomic energy  EATOM  =      1177.01779097
  Solvation  Ediel_sol  =         0.00000000
  ---------------------------------------------------
  free energy    TOTEN  =       -75.17658230 eV

  energy without entropy =      -75.17658230  energy(sigma->0) =      -75.17658230


--------------------------------------------------------------------------------------------------------




--------------------------------------- Iteration      1(   4)  ---------------------------------------


     EDDAV:  cpu time   11.0747: real time   11.0758
 BZINTS: Fermi energy:  8.362269; 32.000000 electrons
         Band energy: -11.417854;  BLOECHL correction:  0.000000
       DOS:  cpu time    0.0423: real time    0.0423
    --------------------------------------------
      LOOP:  cpu time   11.1170: real time   11.1181

 eigenvalue-minimisations  : 11360
 total energy-change (2. order) :-0.4122785E-01  (-0.4118291E-01)
 number of electron      32.0000000 magnetization 
 augmentation part       32.0000000 magnetization 

 Free energy of the ion-electron system (eV)
  ---------------------------------------------------
  alpha Z        PSCENC =       114.27170876
  Ewald energy   TEWEN  =     -1389.13609716
  -Hartree energ DENC   =       -70.99106977
  -exchange      EXHF   =         0.00000000
  -V(xc)+E(xc)   XCENC  =       114.24154815
  PAW double counting   =       302.65154477     -311.85538214
  entropy T*S    EENTRO =         0.00000000
  eigenvalues    EBANDS =       -11.41785374
  atomic energy  EATOM  =      1177.01779097
  Solvation  Ediel_sol  =         0.00000000
  ---------------------------------------------------
  free energy    TOTEN  =       -75.21781015 eV

  energy without entropy =      -75.21781015  energy(sigma->0) =      -75.21781015


--------------------------------------------------------------------------------------------------------




--------------------------------------- Iteration      1(   5)  ---------------------------------------


     EDDAV:  cpu time   11.3794: real time   11.3808
 BZINTS: Fermi energy:  8.357896; 32.000000 electrons
         Band energy: -11.418689;  BLOECHL correction:  0.000000
       DOS:  cpu time    0.0373: real time    0.0373
    CHARGE:  cpu time    0.2739: real time    0.2740
    MIXING:  cpu time    0.0018: real time    0.0018
    --------------------------------------------
      LOOP:  cpu time   11.6924: real time   11.6938

 eigenvalue-minimisations  : 11768
 total energy-change (2. order) :-0.8352924E-03  (-0.8348700E-03)
 number of electron      32.0000026 magnetization 
 augmentation part        0.7846113 magnetization 

 Broyden mixing:
  rms(total) = 0.94428E+00    rms(broyden)= 0.94410E+00
  rms(prec ) = 0.22311E+01
  weight for this iteration     100.00

 Free energy of the ion-electron system (eV)
  ---------------------------------------------------
  alpha Z        PSCENC =       114.27170876
  Ewald energy   TEWEN  =     -1389.13609716
  -Hartree energ DENC   =       -70.99106977
  -exchange      EXHF   =         0.00000000
  -V(xc)+E(xc)   XCENC  =       114.24154815
  PAW double counting   =       302.65154477     -311.85538214
  entropy T*S    EENTRO =         0.00000000
  eigenvalues    EBANDS =       -11.41868904
  atomic energy  EATOM  =      1177.01779097
  Solvation  Ediel_sol  =         0.00000000
  ---------------------------------------------------
  free energy    TOTEN  =       -75.21864544 eV

  energy without entropy =      -75.21864544  energy(sigma->0) =      -75.21864544


--------------------------------------------------------------------------------------------------------




--------------------------------------- Iteration      1(   6)  ---------------------------------------


    POTLOK:  cpu time    0.0215: real time    0.0221
    SETDIJ:  cpu time    0.0058: real time    0.0058
     EDDAV:  cpu time   10.2115: real time   10.2123
 BZINTS: Fermi energy:  8.958697; 32.000000 electrons
         Band energy:   4.685392;  BLOECHL correction:  0.000000
       DOS:  cpu time    0.0378: real time    0.0378
    CHARGE:  cpu time    0.2702: real time    0.2702
    MIXING:  cpu time    0.0019: real time    0.0019
    --------------------------------------------
      LOOP:  cpu time   10.5486: real time   10.5501

 eigenvalue-minimisations  : 10320
 total energy-change (2. order) : 0.1869593E+01  (-0.1239516E+00)
 number of electron      32.0000025 magnetization 
 augmentation part        0.7669127 magnetization 

 Broyden mixing:
  rms(total) = 0.51790E+00    rms(broyden)= 0.51789E+00
  rms(prec ) = 0.12066E+01
  weight for this iteration     100.00

 eigenvalues of (default mixing * dielectric matrix)
  average eigenvalue GAMMA=   2.1676
  2.1676

 Free energy of the ion-electron system (eV)
  ---------------------------------------------------
  alpha Z        PSCENC =       114.27170876
  Ewald energy   TEWEN  =     -1389.13609716
  -Hartree energ DENC   =       -86.10465493
  -exchange      EXHF   =         0.00000000
  -V(xc)+E(xc)   XCENC  =       115.65591795
  PAW double counting   =       393.09279877     -402.83190836
  entropy T*S    EENTRO =         0.00000000
  eigenvalues    EBANDS =         4.68539192
  atomic energy  EATOM  =      1177.01779097
  Solvation  Ediel_sol  =         0.00000000
  ---------------------------------------------------
  free energy    TOTEN  =       -73.34905207 eV

  energy without entropy =      -73.34905207  energy(sigma->0) =      -73.34905207


--------------------------------------------------------------------------------------------------------




--------------------------------------- Iteration      1(   7)  ---------------------------------------


    POTLOK:  cpu time    0.0207: real time    0.0211
    SETDIJ:  cpu time    0.0058: real time    0.0058
     EDDAV:  cpu time   10.4793: real time   10.4801
 BZINTS: Fermi energy:  9.768873; 32.000000 electrons
         Band energy:  23.295347;  BLOECHL correction:  0.000000
       DOS:  cpu time    0.0377: real time    0.0377
    CHARGE:  cpu time    0.2734: real time    0.2734
    MIXING:  cpu time    0.0022: real time    0.0022
    --------------------------------------------
      LOOP:  cpu time   10.8192: real time   10.8204

 eigenvalue-minimisations  : 10624
 total energy-change (2. order) : 0.6314293E+00  (-0.1401989E+00)
 number of electron      32.0000025 magnetization 
 augmentation part        0.7478249 magnetization 

 Broyden mixing:
  rms(total) = 0.69554E-01    rms(broyden)= 0.69224E-01
  rms(prec ) = 0.12126E+00
  weight for this iteration     100.00

 eigenvalues of (default mixing * dielectric matrix)
  average eigenvalue GAMMA=   2.2686
  2.0037  2.5336

 Free energy of the ion-electron system (eV)
  ---------------------------------------------------
  alpha Z        PSCENC =       114.27170876
  Ewald energy   TEWEN  =     -1389.13609716
  -Hartree energ DENC   =      -105.40252126
  -exchange      EXHF   =         0.00000000
  -V(xc)+E(xc)   XCENC  =       117.48300679
  PAW double counting   =       516.01639900     -526.26325687
  entropy T*S    EENTRO =         0.00000000
  eigenvalues    EBANDS =        23.29534700
  atomic energy  EATOM  =      1177.01779097
  Solvation  Ediel_sol  =         0.00000000
  ---------------------------------------------------
  free energy    TOTEN  =       -72.71762276 eV

  energy without entropy =      -72.71762276  energy(sigma->0) =      -72.71762276


--------------------------------------------------------------------------------------------------------




--------------------------------------- Iteration      1(   8)  ---------------------------------------


    POTLOK:  cpu time    0.0219: real time    0.0226
    SETDIJ:  cpu time    0.0058: real time    0.0058
     EDDAV:  cpu time   11.1418: real time   11.1426
 BZINTS: Fermi energy:  9.769334; 32.000000 electrons
         Band energy:  23.608147;  BLOECHL correction:  0.000000
       DOS:  cpu time    0.0376: real time    0.0376
    CHARGE:  cpu time    0.2683: real time    0.2683
    MIXING:  cpu time    0.0019: real time    0.0019
    --------------------------------------------
      LOOP:  cpu time   11.4772: real time   11.4787

 eigenvalue-minimisations  : 11536
 total energy-change (2. order) :-0.7410202E-02  (-0.2790204E-02)
 number of electron      32.0000025 magnetization 
 augmentation part        0.7482185 magnetization 

 Broyden mixing:
  rms(total) = 0.79463E-02    rms(broyden)= 0.78430E-02
  rms(prec ) = 0.13781E-01
  weight for this iteration     100.00

 eigenvalues of (default mixing * dielectric matrix)
  average eigenvalue GAMMA=   2.0957
  1.4465  2.6757  2.1649

 Free energy of the ion-electron system (eV)
  ---------------------------------------------------
  alpha Z        PSCENC =       114.27170876
  Ewald energy   TEWEN  =     -1389.13609716
  -Hartree energ DENC   =      -105.90147496
  -exchange      EXHF   =         0.00000000
  -V(xc)+E(xc)   XCENC  =       117.53397106
  PAW double counting   =       525.38730515     -535.50638347
[...]

 k-point   177 :       0.5000    0.4167    0.3333
  band No.  band energies     occupation 
      1      -7.1614      2.00000
      2      -6.9855      2.00000
      3      -5.8727      2.00000
      4      -5.8439      2.00000
      5      -3.1529      2.00000
      6      -3.1233      2.00000
      7      -2.1113      2.00000
      8      -2.0420      2.00000
      9       5.5785      2.00000
     10       5.6026      2.00000
     11       6.3259      2.00000
     12       6.4290      2.00000
     13       6.4337      2.00000
     14       6.4805      2.00000
     15       6.8781      2.00000
     16       7.0253      2.00000
     17      17.7463      0.00000
     18      17.7628      0.00000
     19      17.8545      0.00000
     20      17.9779      0.00000
     21      18.4563      0.00000
     22      18.5590      0.00000
     23      18.6230      0.00000
     24      18.6520      0.00000

 k-point   178 :      -0.4167    0.4167    0.3333
  band No.  band energies     occupation 
      1      -7.6199      2.00000
      2      -6.5054      2.00000
      3      -6.3222      2.00000
      4      -5.5773      2.00000
      5      -3.2937      2.00000
      6      -2.6321      2.00000
      7      -2.5648      2.00000
      8      -1.3091      2.00000
      9       5.2964      2.00000
     10       5.7701      2.00000
     11       5.9173      2.00000
     12       6.2711      2.00000
     13       6.3175      2.00000
     14       6.5071      2.00000
     15       6.7029      2.00000
     16       7.1827      2.00000
     17      17.3629      0.00000
     18      17.5264      0.00000
     19      17.7250      0.00000
     20      17.7735      0.00000
     21      18.2836      0.00000
     22      18.4830      0.00000
     23      18.8999      0.00000
     24      18.9766      0.00000

 k-point   179 :      -0.3333    0.4167    0.3333
  band No.  band energies     occupation 
      1      -8.1600      2.00000
      2      -6.7694      2.00000
      3      -5.8693      2.00000
      4      -5.6250      2.00000
      5      -2.9110      2.00000
      6      -2.9064      2.00000
      7      -1.7968      2.00000
      8      -0.4551      2.00000
      9       4.8444      2.00000
     10       5.0247      2.00000
     11       5.7627      2.00000
     12       5.9434      2.00000
     13       6.0496      2.00000
     14       6.0688      2.00000
     15       6.9098      2.00000
     16       7.1900      2.00000
     17      17.0173      0.00000
     18      17.1876      0.00000
     19      17.4409      0.00000
     20      17.6464      0.00000
     21      18.2918      0.00000
     22      18.4831      0.00000
     23      19.1795      0.00000
     24      19.5396      0.00000

 k-point   180 :       0.5000    0.5000    0.3333
  band No.  band energies     occupation 
      1      -6.6243      2.00000
      2      -6.4412      2.00000
      3      -6.4135      2.00000
      4      -6.4135      2.00000
      5      -2.7425      2.00000
      6      -2.7022      2.00000
      7      -2.7022      2.00000
      8      -2.6733      2.00000
      9       5.9851      2.00000
     10       5.9961      2.00000
     11       5.9961      2.00000
     12       6.1637      2.00000
     13       6.7905      2.00000
     14       6.8075      2.00000
     15       6.8075      2.00000
     16       6.9595      2.00000
     17      17.8687      0.00000
     18      17.8687      0.00000
     19      17.9837      0.00000
     20      18.1296      0.00000
     21      18.4066      0.00000
     22      18.4066      0.00000
     23      18.5522      0.00000
     24      18.5815      0.00000

 k-point   181 :      -0.4167    0.5000    0.3333
  band No.  band energies     occupation 
      1      -7.0108      2.00000
      2      -6.9954      2.00000
      3      -6.1015      2.00000
      4      -5.8479      2.00000
      5      -3.1368      2.00000
      6      -3.1364      2.00000
      7      -2.0194      2.00000
      8      -2.0029      2.00000
      9       5.5500      2.00000
     10       5.7392      2.00000
     11       6.2934      2.00000
     12       6.3032      2.00000
     13       6.4688      2.00000
     14       6.6011      2.00000
     15       6.8471      2.00000
     16       6.8787      2.00000
     17      17.7748      0.00000
     18      17.8271      0.00000
     19      17.8486      0.00000
     20      18.0031      0.00000
     21      18.2803      0.00000
     22      18.2999      0.00000
     23      18.4855      0.00000
     24      18.7215      0.00000

 k-point   182 :      -0.3333    0.5000    0.3333
  band No.  band energies     occupation 
      1      -7.5108      2.00000
      2      -7.5108      2.00000
      3      -5.7404      2.00000
      4      -5.4610      2.00000
      5      -3.1764      2.00000
      6      -3.1474      2.00000
      7      -1.1881      2.00000
      8      -1.1881      2.00000
      9       4.9003      2.00000
     10       5.1035      2.00000
     11       6.0330      2.00000
     12       6.1399      2.00000
     13       6.4657      2.00000
     14       6.4657      2.00000
     15       6.6410      2.00000
     16       6.6410      2.00000
     17      17.3695      0.00000
     18      17.3695      0.00000
     19      17.8647      0.00000
     20      17.9899      0.00000
     21      18.2822      0.00000
     22      18.8269      0.00000
     23      18.8336      0.00000
     24      18.8337      0.00000

 k-point   183 :      -0.4167   -0.4167    0.3333
  band No.  band energies     occupation 
      1      -7.6332      2.00000
      2      -6.3056      2.00000
      3      -6.3056      2.00000
      4      -5.8544      2.00000
      5      -3.2636      2.00000
      6      -2.5763      2.00000
      7      -2.5763      2.00000
      8      -1.2887      2.00000
      9       5.4500      2.00000
     10       5.7192      2.00000
     11       5.7192      2.00000
     12       6.3801      2.00000
     13       6.3801      2.00000
     14       6.4346      2.00000
     15       6.6949      2.00000
     16       7.1523      2.00000
     17      17.5105      0.00000
     18      17.5105      0.00000
     19      17.6013      0.00000
     20      18.0171      0.00000
     21      18.1533      0.00000
     22      18.4162      0.00000
     23      18.6242      0.00000
     24      18.6242      0.00000

 k-point   184 :       0.4167    0.4167    0.4167
  band No.  band energies     occupation 
      1      -7.2816      2.00000
      2      -5.9584      2.00000
      3      -5.9584      2.00000
      4      -5.9584      2.00000
      5      -3.2703      2.00000
      6      -3.2703      2.00000
      7      -3.2703      2.00000
      8      -2.2225      2.00000
      9       6.2223      2.00000
     10       6.2223      2.00000
     11       6.2223      2.00000
     12       6.5037      2.00000
     13       6.5037      2.00000
     14       6.5037      2.00000
     15       7.1467      2.00000
     16       7.1467      2.00000
     17      17.6834      0.00000
     18      17.6834      0.00000
     19      17.6834      0.00000
     20      18.1716      0.00000
     21      18.1716      0.00000
     22      18.7067      0.00000
     23      18.8797      0.00000
     24      18.8855      0.00000

 k-point   185 :       0.5000    0.4167    0.4167
  band No.  band energies     occupation 
      1      -6.7418      2.00000
      2      -6.5310      2.00000
      3      -5.8053      2.00000
      4      -5.8053      2.00000
      5      -3.5271      2.00000
      6      -3.5271      2.00000
      7      -2.8583      2.00000
      8      -2.8159      2.00000
      9       6.3078      2.00000
     10       6.3078      2.00000
     11       6.6186      2.00000
     12       6.6186      2.00000
     13       6.7340      2.00000
     14       6.8253      2.00000
     15       6.9226      2.00000
     16       6.9689      2.00000
     17      17.7895      0.00000
     18      17.8745      0.00000
     19      17.8745      0.00000
     20      18.0424      0.00000
     21      18.4263      0.00000
     22      18.4292      0.00000
     23      18.4330      0.00000
     24      18.4492      0.00000

 k-point   186 :      -0.4167    0.4167    0.4167
  band No.  band energies     occupation 
      1      -7.1156      2.00000
      2      -6.2163      2.00000
      3      -5.9719      2.00000
      4      -5.9719      2.00000
      5      -3.2548      2.00000
      6      -3.2441      2.00000
      7      -3.2441      2.00000
      8      -2.1277      2.00000
      9       6.1947      2.00000
     10       6.1947      2.00000
     11       6.3690      2.00000
     12       6.5079      2.00000
     13       6.5079      2.00000
     14       6.6781      2.00000
     15       6.9558      2.00000
     16       6.9954      2.00000
     17      17.6357      0.00000
     18      17.6357      0.00000
     19      17.8207      0.00000
     20      17.8517      0.00000
     21      18.2361      0.00000
     22      18.3636      0.00000
     23      18.6551      0.00000
     24      18.6564      0.00000

 k-point   187 :       0.5000    0.5000    0.4167
  band No.  band energies     occupation 
      1      -6.3324      2.00000
      2      -6.0881      2.00000
      3      -6.0785      2.00000
      4      -6.0785      2.00000
      5      -3.3718      2.00000
      6      -3.3693      2.00000
      7      -3.3693      2.00000
      8      -3.3594      2.00000
      9       6.6156      2.00000
     10       6.6156      2.00000
     11       6.6375      2.00000
     12       6.8017      2.00000
     13       6.8205      2.00000
     14       6.8512      2.00000
     15       6.8512      2.00000
     16       7.0119      2.00000
     17      17.8780      0.00000
     18      17.8780      0.00000
     19      17.9313      0.00000
     20      18.1967      0.00000
     21      18.2646      0.00000
     22      18.2647      0.00000
     23      18.2949      0.00000
     24      18.3376      0.00000

 k-point   188 :      -0.4167    0.5000    0.4167
  band No.  band energies     occupation 
      1      -6.5420      2.00000
      2      -6.5420      2.00000
      3      -6.0829      2.00000
      4      -5.8025      2.00000
      5      -3.5237      2.00000
      6      -3.5001      2.00000
      7      -2.7982      2.00000
      8      -2.7982      2.00000
      9       6.2602      2.00000
     10       6.4614      2.00000
     11       6.6601      2.00000
     12       6.7454      2.00000
     13       6.7454      2.00000
     14       6.7935      2.00000
     15       6.7935      2.00000
     16       6.8035      2.00000
     17      17.8288      0.00000
     18      17.8288      0.00000
     19      17.9820      0.00000
     20      18.1076      0.00000
     21      18.1098      0.00000
     22      18.2986      0.00000
     23      18.2990      0.00000
     24      18.4727      0.00000

 k-point   189 :       0.5000    0.5000    0.5000
  band No.  band energies     occupation 
      1      -6.1975      2.00000
      2      -5.9168      2.00000
      3      -5.9168      2.00000
      4      -5.9168      2.00000
      5      -3.6423      2.00000
      6      -3.6423      2.00000
      7      -3.6423      2.00000
      8      -3.6198      2.00000
      9       6.8314      2.00000
     10       6.8314      2.00000
     11       6.8314      2.00000
     12       6.8764      2.00000
     13       6.8764      2.00000
     14       6.8764      2.00000
     15       7.0301      2.00000
     16       7.0301      2.00000
     17      17.8439      0.00000
     18      17.8439      0.00000
     19      17.8439      0.00000
     20      18.2041      0.00000
     21      18.2042      0.00000
     22      18.2517      0.00000
     23      18.2518      0.00000
     24      18.2523      0.00000


--------------------------------------------------------------------------------------------------------


 soft charge-density along one line, spin component           1
         0         1         2         3         4         5         6         7         8         9
 total charge-density along one line
 
 pseudopotential strength for first ion, spin component:           1
  9.443  -0.005   0.000   0.000   0.000  -0.000  -0.000  -0.000
 -0.005  -0.002   0.000   0.000   0.000  -0.000  -0.000  -0.000
  0.000   0.000  -3.664  -0.000  -0.000  -0.009   0.000   0.000
  0.000   0.000  -0.000  -3.664  -0.000   0.000  -0.009   0.000
  0.000   0.000  -0.000  -0.000  -3.664   0.000   0.000  -0.009
 -0.000  -0.000  -0.009   0.000   0.000  -0.757  -0.000  -0.000
 -0.000  -0.000   0.000  -0.009   0.000  -0.000  -0.757  -0.000
 -0.000  -0.000   0.000   0.000  -0.009  -0.000  -0.000  -0.757
 total augmentation occupancy for first ion, spin component:           1
  1.423  -1.030   0.003   0.003   0.003   0.002   0.002   0.002
 -1.030   1.024  -0.008  -0.008  -0.008  -0.003  -0.003  -0.003
  0.003  -0.008   1.097  -0.007  -0.007   0.184  -0.001  -0.001
  0.003  -0.008  -0.007   1.097  -0.007  -0.001   0.184  -0.001
  0.003  -0.008  -0.007  -0.007   1.096  -0.001  -0.001   0.184
  0.002  -0.003   0.184  -0.001  -0.001   0.036  -0.000  -0.000
  0.002  -0.003  -0.001   0.184  -0.001  -0.000   0.036  -0.000
  0.002  -0.003  -0.001  -0.001   0.184  -0.000  -0.000   0.036


------------------------ aborting loop because EDIFF is reached ----------------------------------------


    CHARGE:  cpu time    0.2664: real time    0.2665
    FORLOC:  cpu time    0.0019: real time    0.0019
    FORNL :  cpu time    0.4461: real time    0.4461
    STRESS:  cpu time    1.0580: real time    1.0582
    FORHAR:  cpu time    0.0055: real time    0.0055
    MIXING:  cpu time    0.0022: real time    0.0022
    OFIELD:  cpu time    0.0001: real time    0.0001

  FORCE on cell =-STRESS in cart. coord.  units (eV):
  Direction    XX          YY          ZZ          XY          YZ          ZX
  --------------------------------------------------------------------------------------
  Alpha Z   114.27171   114.27171   114.27171
  Ewald    -463.15018  -463.04516  -462.94315    -5.25364    -5.15006    -5.20188
  Hartree    35.25716    35.28457    35.31120    -1.37124    -1.34422    -1.35773
  E(xc)    -119.56187  -119.56174  -119.56162    -0.00648    -0.00635    -0.00642
  Local     -46.96450   -47.08697   -47.20595     6.12721     6.00646     6.06685
  n-local   -28.06806   -28.37989   -28.05794     0.17075     0.68476    -0.17615
  augment    -2.82524    -2.82526    -2.82527     0.00082     0.00080     0.00081
  Kinetic   504.19889   509.43771   516.21429    -0.88291    -4.94662     1.97133
  Fock        0.00000     0.00000     0.00000     0.00000     0.00000     0.00000
  -------------------------------------------------------------------------------------
  Total      -1.21300    -1.18097    -1.14988    -1.60161    -1.57005    -1.58583
  in kB     -42.58720   -41.46251   -40.37093   -56.23085   -55.12283   -55.67685
  external pressure =      -41.47 kB  Pullay stress =        0.00 kB


 VOLUME and BASIS-vectors are now :
 -----------------------------------------------------------------------------
  energy-cutoff  :      400.00
  volume of cell :       45.63
      direct lattice vectors                 reciprocal lattice vectors
     3.573710000  0.000000000  0.000000000     0.279821250 -0.002798345 -0.002770775
     0.035737000  3.573531000  0.000000000     0.000000000  0.279835267 -0.002770743
     0.035737000  0.035381000  3.573356000     0.000000000  0.000000000  0.279848971

  length of vectors
     3.573710000  3.573709689  3.573709844     0.279848959  0.279848983  0.279848971


 FORCES acting on ions
    electron-ion (+dipol)            ewald-force                    non-local-force                 convergence-correction
 -----------------------------------------------------------------------------------------------
   0.178E+01 0.176E+01 0.175E+01   -.182E+01 -.180E+01 -.178E+01   0.175E-01 0.174E-01 0.172E-01   0.312E-04 0.309E-04 0.306E-04
   -.178E+01 -.176E+01 -.175E+01   0.182E+01 0.180E+01 0.178E+01   -.175E-01 -.174E-01 -.172E-01   -.312E-04 -.309E-04 -.306E-04
   0.178E+01 0.176E+01 0.175E+01   -.182E+01 -.180E+01 -.178E+01   0.175E-01 0.174E-01 0.172E-01   0.312E-04 0.309E-04 0.306E-04
   -.178E+01 -.176E+01 -.175E+01   0.182E+01 0.180E+01 0.178E+01   -.175E-01 -.174E-01 -.172E-01   -.312E-04 -.309E-04 -.306E-04
   0.178E+01 0.176E+01 0.175E+01   -.182E+01 -.180E+01 -.178E+01   0.175E-01 0.174E-01 0.172E-01   0.312E-04 0.309E-04 0.306E-04
   -.178E+01 -.176E+01 -.175E+01   0.182E+01 0.180E+01 0.178E+01   -.175E-01 -.174E-01 -.172E-01   -.312E-04 -.309E-04 -.306E-04
   0.178E+01 0.176E+01 0.175E+01   -.182E+01 -.180E+01 -.178E+01   0.175E-01 0.174E-01 0.172E-01   0.312E-04 0.309E-04 0.306E-04
   -.178E+01 -.176E+01 -.175E+01   0.182E+01 0.180E+01 0.178E+01   -.175E-01 -.174E-01 -.172E-01   -.312E-04 -.309E-04 -.306E-04
 -----------------------------------------------------------------------------------------------
   -.732E-12 -.818E-12 -.761E-12   0.298E-13 -.133E-14 -.111E-14   -.208E-16 0.208E-16 -.243E-16   0.725E-14 -.233E-13 -.240E-13
 
 
 POSITION                                       TOTAL-FORCE (eV/Angst)
 -----------------------------------------------------------------------------------
      0.92916      2.68899      0.89334        -0.020521     -0.020317     -0.020117
      0.01787      0.01769      1.78668         0.020521      0.020317      0.020117
      0.92916      0.91992      2.68002        -0.020521     -0.020317     -0.020117
      0.01787      1.78677      0.00000         0.020521      0.020317      0.020117
      2.73389      2.70668      2.68002        -0.020521     -0.020317     -0.020117
      1.78686      0.00000      0.00000         0.020521      0.020317      0.020117
      2.69815      0.90223      0.89334        -0.020521     -0.020317     -0.020117
      1.82259      1.80446      1.78668         0.020521      0.020317      0.020117
 -----------------------------------------------------------------------------------
    total drift:                               -0.000000     -0.000000     -0.000000


--------------------------------------------------------------------------------------------------------



  FREE ENERGIE OF THE ION-ELECTRON SYSTEM (eV)
  ---------------------------------------------------
  free  energy   TOTEN  =       -72.72530383 eV

  energy  without entropy=      -72.72530383  energy(sigma->0) =      -72.72530383
 


--------------------------------------------------------------------------------------------------------


    POTLOK:  cpu time    0.0292: real time    0.0292


--------------------------------------------------------------------------------------------------------


     LOOP+:  cpu time  122.3008: real time  122.3384
    4ORBIT:  cpu time    0.0000: real time    0.0000
 BZINTS: Fermi energy:  9.752085; 32.000000 electrons
         Band energy:  23.553458;  BLOECHL correction:  0.000000

 total amount of memory used by VASP MPI-rank0    37925. kBytes
=======================================================================

   base      :      30000. kBytes
   nonl-proj :       2738. kBytes
   fftplans  :        346. kBytes
   grid      :        481. kBytes
   one-center:          6. kBytes
   wavefun   :       4354. kBytes
 
  
  
 General timing and accounting informations for this job:
 ========================================================
  
                  Total CPU time used (sec):      125.751
                            User time (sec):      121.883
                          System time (sec):        3.869
                         Elapsed time (sec):      125.905
  
                   Maximum memory used (kb):      193692.
                   Average memory used (kb):           0.
  
                          Minor page faults:        36877
                          Major page faults:           36
                 Voluntary context switches:          784
