<?xml version="1.0" encoding="ISO-8859-1"?>
<modeling>
 <generator>
  <i name="program" type="string">vasp </i>
  <i name="version" type="string">5.4.4.18Apr17-6-g9f103f2a35  </i>
  <i name="subversion" type="string">(build Mar 12 2022 03:36:41) complex            parallel </i>
  <i name="platform" type="string">IFC19.0.3.199_CrayMPICH7.7.19 </i>
  <i name="date" type="string">2022 11 30 </i>
  <i name="time" type="string">12:47:54 </i>
 </generator>
 <incar>
  <i type="int" name="ISTART">     0</i>
  <i type="string" name="PREC">accurate</i>
  <i name="EDIFF">      0.00000100</i>
  <i name="POTIM">      0.02000000</i>
  <i type="int" name="ISMEAR">    -5</i>
  <i name="SIGMA">      0.06000000</i>
  <i type="logical" name="LWAVE"> F  </i>
  <i type="logical" name="LCHARG"> F  </i>
  <v type="int" name="KPOINT_BSE">    -1     0     0     0</v>
 </incar>
 <structure name="primitive_cell" >
  <crystal>
   <varray name="basis" >
    <v>      -0.03573700      -1.80445600      -1.78667800 </v>
    <v>      -1.80472350      -1.78676550      -0.00000000 </v>
    <v>      -1.80472350      -0.01769050      -1.78667800 </v>
   </varray>
   <i name="volume">     11.40862107 </i>
   <varray name="rec_basis" >
    <v>       0.27982125      -0.28263361      -0.27984900 </v>
    <v>      -0.27982125      -0.27703692       0.28539049 </v>
    <v>      -0.27982125       0.28263361      -0.27984894 </v>
   </varray>
  </crystal>
  <varray name="positions" >
   <v>       0.25000000       0.25000000       0.25000000 </v>
   <v>      -0.50000000      -0.50000000      -0.50000000 </v>
  </varray>
 </structure>
 <varray name="primitive_index" >
  <v type="int" >        1 </v>
  <v type="int" >        2 </v>
 </varray>
 <kpoints>
  <generation param="Gamma">
   <v type="int" name="divisions">      12       12       12 </v>
   <v name="usershift">      0.00000000       0.00000000       0.00000000 </v>
   <v name="genvec1">      0.08333333      -0.00000000      -0.00000000 </v>
   <v name="genvec2">      0.00000000       0.08333333      -0.00000000 </v>
   <v name="genvec3">      0.00000000       0.00000000       0.08333333 </v>
   <v name="shift">      0.00000000       0.00000000       0.00000000 </v>
  </generation>
  <varray name="kpointlist" >
   <v>       0.00000000       0.00000000       0.00000000 </v>
   <v>       0.08333333      -0.00000000      -0.00000000 </v>
   <v>       0.16666667       0.00000000      -0.00000000 </v>
   <v>       0.25000000       0.00000000      -0.00000000 </v>
   <v>       0.33333333      -0.00000000      -0.00000000 </v>
   <v>       0.41666667      -0.00000000      -0.00000000 </v>
   <v>       0.50000000       0.00000000      -0.00000000 </v>
   <v>       0.08333333       0.08333333      -0.00000000 </v>
   <v>       0.16666667       0.08333333      -0.00000000 </v>
   <v>       0.25000000       0.08333333      -0.00000000 </v>
   <v>       0.33333333       0.08333333      -0.00000000 </v>
   <v>       0.41666667       0.08333333      -0.00000000 </v>
   <v>       0.50000000       0.08333333      -0.00000000 </v>
   <v>      -0.41666667       0.08333333       0.00000000 </v>
   <v>      -0.33333333       0.08333333       0.00000000 </v>
   <v>      -0.25000000       0.08333333       0.00000000 </v>
   <v>      -0.16666667       0.08333333       0.00000000 </v>
   <v>      -0.08333333       0.08333333       0.00000000 </v>
   <v>       0.16666667       0.16666667      -0.00000000 </v>
   <v>       0.25000000       0.16666667      -0.00000000 </v>
   <v>       0.33333333       0.16666667      -0.00000000 </v>
   <v>       0.41666667       0.16666667      -0.00000000 </v>
   <v>       0.50000000       0.16666667      -0.00000000 </v>
   <v>      -0.41666667       0.16666667       0.00000000 </v>
   <v>      -0.33333333       0.16666667       0.00000000 </v>
   <v>      -0.25000000       0.16666667       0.00000000 </v>
   <v>      -0.16666667       0.16666667      -0.00000000 </v>
   <v>       0.25000000       0.25000000      -0.00000000 </v>
   <v>       0.33333333       0.25000000      -0.00000000 </v>
   <v>       0.41666667       0.25000000      -0.00000000 </v>
   <v>       0.50000000       0.25000000      -0.00000000 </v>
   <v>      -0.41666667       0.25000000       0.00000000 </v>
   <v>      -0.33333333       0.25000000       0.00000000 </v>
   <v>      -0.25000000       0.25000000      -0.00000000 </v>
   <v>       0.33333333       0.33333333      -0.00000000 </v>
   <v>       0.41666667       0.33333333      -0.00000000 </v>
   <v>       0.50000000       0.33333333      -0.00000000 </v>
   <v>      -0.41666667       0.33333333       0.00000000 </v>
   <v>      -0.33333333       0.33333333       0.00000000 </v>
   <v>       0.41666667       0.41666667      -0.00000000 </v>
   <v>       0.50000000       0.41666667      -0.00000000 </v>
   <v>      -0.41666667       0.41666667       0.00000000 </v>
   <v>       0.50000000       0.50000000      -0.00000000 </v>
   <v>       0.08333333       0.08333333       0.08333333 </v>
   <v>       0.16666667       0.08333333       0.08333333 </v>
   <v>       0.25000000       0.08333333       0.08333333 </v>
   <v>       0.33333333       0.08333333       0.08333333 </v>
   <v>       0.41666667       0.08333333       0.08333333 </v>
   <v>       0.50000000       0.08333333       0.08333333 </v>
   <v>      -0.41666667       0.08333333       0.08333333 </v>
   <v>      -0.33333333       0.08333333       0.08333333 </v>
   <v>      -0.25000000       0.08333333       0.08333333 </v>
   <v>      -0.16666667       0.08333333       0.08333333 </v>
   <v>      -0.08333333       0.08333333       0.08333333 </v>
   <v>       0.16666667       0.16666667       0.08333333 </v>
   <v>       0.25000000       0.16666667       0.08333333 </v>
   <v>       0.33333333       0.16666667       0.08333333 </v>
   <v>       0.41666667       0.16666667       0.08333333 </v>
   <v>       0.50000000       0.16666667       0.08333333 </v>
   <v>      -0.41666667       0.16666667       0.08333333 </v>
   <v>      -0.33333333       0.16666667       0.08333333 </v>
   <v>      -0.25000000       0.16666667       0.08333333 </v>
   <v>      -0.16666667       0.16666667       0.08333333 </v>
   <v>      -0.08333333       0.16666667       0.08333333 </v>
   <v>       0.25000000       0.25000000       0.08333333 </v>
   <v>       0.33333333       0.25000000       0.08333333 </v>
   <v>       0.41666667       0.25000000       0.08333333 </v>
   <v>       0.50000000       0.25000000       0.08333333 </v>
   <v>      -0.41666667       0.25000000       0.08333333 </v>
   <v>      -0.33333333       0.25000000       0.08333333 </v>
   <v>      -0.25000000       0.25000000       0.08333333 </v>
   <v>      -0.16666667       0.25000000       0.08333333 </v>
   <v>      -0.08333333       0.25000000       0.08333333 </v>
   <v>       0.33333333       0.33333333       0.08333333 </v>
   <v>       0.41666667       0.33333333       0.08333333 </v>
   <v>       0.50000000       0.33333333       0.08333333 </v>
   <v>      -0.41666667       0.33333333       0.08333333 </v>
   <v>      -0.33333333       0.33333333       0.08333333 </v>
   <v>      -0.25000000       0.33333333       0.08333333 </v>
   <v>      -0.16666667       0.33333333       0.08333333 </v>
   <v>      -0.08333333       0.33333333       0.08333333 </v>
   <v>       0.41666667       0.41666667       0.08333333 </v>
   <v>       0.50000000       0.41666667       0.08333333 </v>
   <v>      -0.41666667       0.41666667       0.08333333 </v>
   <v>      -0.33333333       0.41666667       0.08333333 </v>
   <v>      -0.25000000       0.41666667       0.08333333 </v>
   <v>      -0.16666667       0.41666667       0.08333333 </v>
   <v>      -0.08333333       0.41666667       0.08333333 </v>
   <v>       0.50000000       0.50000000       0.08333333 </v>
   <v>      -0.41666667       0.50000000       0.08333333 </v>
   <v>      -0.33333333       0.50000000       0.08333333 </v>
   <v>      -0.25000000       0.50000000       0.08333333 </v>
   <v>      -0.16666667       0.50000000       0.08333333 </v>
   <v>      -0.08333333       0.50000000       0.08333333 </v>
   <v>      -0.41666667      -0.41666667       0.08333333 </v>
   <v>      -0.33333333      -0.41666667       0.08333333 </v>
   <v>      -0.25000000      -0.41666667       0.08333333 </v>
   <v>      -0.16666667      -0.41666667       0.08333333 </v>
   <v>      -0.33333333      -0.33333333       0.08333333 </v>
   <v>      -0.25000000      -0.33333333       0.08333333 </v>
   <v>      -0.16666667      -0.33333333       0.08333333 </v>
   <v>      -0.25000000      -0.25000000       0.08333333 </v>
   <v>      -0.16666667      -0.25000000       0.08333333 </v>
   <v>      -0.16666667      -0.16666667       0.08333333 </v>
   <v>       0.16666667       0.16666667       0.16666667 </v>
   <v>       0.25000000       0.16666667       0.16666667 </v>
   <v>       0.33333333       0.16666667       0.16666667 </v>
   <v>       0.41666667       0.16666667       0.16666667 </v>
   <v>       0.50000000       0.16666667       0.16666667 </v>
   <v>      -0.41666667       0.16666667       0.16666667 </v>
   <v>      -0.33333333       0.16666667       0.16666667 </v>
   <v>      -0.25000000       0.16666667       0.16666667 </v>
   <v>      -0.16666667       0.16666667       0.16666667 </v>
   <v>       0.25000000       0.25000000       0.16666667 </v>
   <v>       0.33333333       0.25000000       0.16666667 </v>
   <v>       0.41666667       0.25000000       0.16666667 </v>
   <v>       0.50000000       0.25000000       0.16666667 </v>
   <v>      -0.41666667       0.25000000       0.16666667 </v>
   <v>      -0.33333333       0.25000000       0.16666667 </v>
   <v>      -0.25000000       0.25000000       0.16666667 </v>
   <v>      -0.16666667       0.25000000       0.16666667 </v>
   <v>       0.33333333       0.33333333       0.16666667 </v>
   <v>       0.41666667       0.33333333       0.16666667 </v>
   <v>       0.50000000       0.33333333       0.16666667 </v>
   <v>      -0.41666667       0.33333333       0.16666667 </v>
   <v>      -0.33333333       0.33333333       0.16666667 </v>
   <v>      -0.25000000       0.33333333       0.16666667 </v>
   <v>      -0.16666667       0.33333333       0.16666667 </v>
   <v>       0.41666667       0.41666667       0.16666667 </v>
   <v>       0.50000000       0.41666667       0.16666667 </v>
   <v>      -0.41666667       0.41666667       0.16666667 </v>
   <v>      -0.33333333       0.41666667       0.16666667 </v>
   <v>      -0.25000000       0.41666667       0.16666667 </v>
   <v>      -0.16666667       0.41666667       0.16666667 </v>
   <v>       0.50000000       0.50000000       0.16666667 </v>
   <v>      -0.41666667       0.50000000       0.16666667 </v>
   <v>      -0.33333333       0.50000000       0.16666667 </v>
   <v>      -0.25000000       0.50000000       0.16666667 </v>
   <v>      -0.16666667       0.50000000       0.16666667 </v>
   <v>      -0.41666667      -0.41666667       0.16666667 </v>
   <v>      -0.33333333      -0.41666667       0.16666667 </v>
   <v>      -0.25000000      -0.41666667       0.16666667 </v>
   <v>      -0.33333333      -0.33333333       0.16666667 </v>
   <v>      -0.25000000      -0.33333333       0.16666667 </v>
   <v>      -0.25000000      -0.25000000       0.16666667 </v>
   <v>       0.25000000       0.25000000       0.25000000 </v>
   <v>       0.33333333       0.25000000       0.25000000 </v>
   <v>       0.41666667       0.25000000       0.25000000 </v>
   <v>       0.50000000       0.25000000       0.25000000 </v>
   <v>      -0.41666667       0.25000000       0.25000000 </v>
   <v>      -0.33333333       0.25000000       0.25000000 </v>
   <v>      -0.25000000       0.25000000       0.25000000 </v>
   <v>       0.33333333       0.33333333       0.25000000 </v>
   <v>       0.41666667       0.33333333       0.25000000 </v>
   <v>       0.50000000       0.33333333       0.25000000 </v>
   <v>      -0.41666667       0.33333333       0.25000000 </v>
   <v>      -0.33333333       0.33333333       0.25000000 </v>
   <v>      -0.25000000       0.33333333       0.25000000 </v>
   <v>       0.41666667       0.41666667       0.25000000 </v>
   <v>       0.50000000       0.41666667       0.25000000 </v>
   <v>      -0.41666667       0.41666667       0.25000000 </v>
   <v>      -0.33333333       0.41666667       0.25000000 </v>
   <v>      -0.25000000       0.41666667       0.25000000 </v>
   <v>       0.50000000       0.50000000       0.25000000 </v>
   <v>      -0.41666667       0.50000000       0.25000000 </v>
   <v>      -0.33333333       0.50000000       0.25000000 </v>
   <v>      -0.25000000       0.50000000       0.25000000 </v>
   <v>      -0.41666667      -0.41666667       0.25000000 </v>
   <v>      -0.33333333      -0.41666667       0.25000000 </v>
   <v>      -0.33333333      -0.33333333       0.25000000 </v>
   <v>       0.33333333       0.33333333       0.33333333 </v>
   <v>       0.41666667       0.33333333       0.33333333 </v>
   <v>       0.50000000       0.33333333       0.33333333 </v>
   <v>      -0.41666667       0.33333333       0.33333333 </v>
   <v>      -0.33333333       0.33333333       0.33333333 </v>
   <v>       0.41666667       0.41666667       0.33333333 </v>
   <v>       0.50000000       0.41666667       0.33333333 </v>
   <v>      -0.41666667       0.41666667       0.33333333 </v>
   <v>      -0.33333333       0.41666667       0.33333333 </v>
   <v>       0.50000000       0.50000000       0.33333333 </v>
   <v>      -0.41666667       0.50000000       0.33333333 </v>
   <v>      -0.33333333       0.50000000       0.33333333 </v>
   <v>      -0.41666667      -0.41666667       0.33333333 </v>
   <v>       0.41666667       0.41666667       0.41666667 </v>
   <v>       0.50000000       0.41666667       0.41666667 </v>
   <v>      -0.41666667       0.41666667       0.41666667 </v>
   <v>       0.50000000       0.50000000       0.41666667 </v>
   <v>      -0.41666667       0.50000000       0.41666667 </v>
   <v>       0.50000000       0.50000000       0.50000000 </v>
  </varray>
  <varray name="weights" >
   <v>       0.00057870 </v>
   <v>       0.00347222 </v>
   <v>       0.00347222 </v>
   <v>       0.00347222 </v>
   <v>       0.00347222 </v>
   <v>       0.00347222 </v>
   <v>       0.00173611 </v>
   <v>       0.00347222 </v>
   <v>       0.00694444 </v>
   <v>       0.00694444 </v>
   <v>       0.00694444 </v>
   <v>       0.00694444 </v>
   <v>       0.00694444 </v>
   <v>       0.00694444 </v>
   <v>       0.00694444 </v>
   <v>       0.00694444 </v>
   <v>       0.00694444 </v>
   <v>       0.00347222 </v>
   <v>       0.00347222 </v>
   <v>       0.00694444 </v>
   <v>       0.00694444 </v>
   <v>       0.00694444 </v>
   <v>       0.00694444 </v>
   <v>       0.00694444 </v>
   <v>       0.00694444 </v>
   <v>       0.00694444 </v>
   <v>       0.00347222 </v>
   <v>       0.00347222 </v>
   <v>       0.00694444 </v>
   <v>       0.00694444 </v>
   <v>       0.00694444 </v>
   <v>       0.00694444 </v>
   <v>       0.00694444 </v>
   <v>       0.00347222 </v>
   <v>       0.00347222 </v>
   <v>       0.00694444 </v>
   <v>       0.00694444 </v>
   <v>       0.00694444 </v>
   <v>       0.00347222 </v>
   <v>       0.00347222 </v>
   <v>       0.00694444 </v>
   <v>       0.00347222 </v>
   <v>       0.00173611 </v>
   <v>       0.00115741 </v>
   <v>       0.00347222 </v>
   <v>       0.00347222 </v>
   <v>       0.00347222 </v>
   <v>       0.00347222 </v>
   <v>       0.00347222 </v>
   <v>       0.00347222 </v>
   <v>       0.00347222 </v>
   <v>       0.00347222 </v>
   <v>       0.00347222 </v>
   <v>       0.00347222 </v>
   <v>       0.00347222 </v>
   <v>       0.00694444 </v>
   <v>       0.00694444 </v>
   <v>       0.00694444 </v>
   <v>       0.00694444 </v>
   <v>       0.00694444 </v>
   <v>       0.00694444 </v>
   <v>       0.00694444 </v>
   <v>       0.00694444 </v>
   <v>       0.00694444 </v>
   <v>       0.00347222 </v>
   <v>       0.00694444 </v>
   <v>       0.00694444 </v>
   <v>       0.00694444 </v>
   <v>       0.00694444 </v>
   <v>       0.00694444 </v>
   <v>       0.00694444 </v>
   <v>       0.00694444 </v>
   <v>       0.00694444 </v>
   <v>       0.00347222 </v>
   <v>       0.00694444 </v>
   <v>       0.00694444 </v>
   <v>       0.00694444 </v>
   <v>       0.00694444 </v>
   <v>       0.00694444 </v>
   <v>       0.00694444 </v>
   <v>       0.00694444 </v>
   <v>       0.00347222 </v>
   <v>       0.00694444 </v>
   <v>       0.00694444 </v>
   <v>       0.00694444 </v>
   <v>       0.00694444 </v>
   <v>       0.00694444 </v>
   <v>       0.00694444 </v>
   <v>       0.00347222 </v>
   <v>       0.00694444 </v>
   <v>       0.00694444 </v>
   <v>       0.00694444 </v>
   <v>       0.00694444 </v>
   <v>       0.00347222 </v>
   <v>       0.00347222 </v>
   <v>       0.00694444 </v>
   <v>       0.00694444 </v>
   <v>       0.00694444 </v>
   <v>       0.00347222 </v>
   <v>       0.00694444 </v>
   <v>       0.00694444 </v>
   <v>       0.00347222 </v>
   <v>       0.00694444 </v>
   <v>       0.00347222 </v>
   <v>       0.00115741 </v>
   <v>       0.00347222 </v>
   <v>       0.00347222 </v>
   <v>       0.00347222 </v>
   <v>       0.00347222 </v>
   <v>       0.00347222 </v>
   <v>       0.00347222 </v>
   <v>       0.00347222 </v>
   <v>       0.00347222 </v>
   <v>       0.00347222 </v>
   <v>       0.00694444 </v>
   <v>       0.00694444 </v>
   <v>       0.00694444 </v>
   <v>       0.00694444 </v>
   <v>       0.00694444 </v>
   <v>       0.00694444 </v>
   <v>       0.00694444 </v>
   <v>       0.00347222 </v>
   <v>       0.00694444 </v>
   <v>       0.00694444 </v>
   <v>       0.00694444 </v>
   <v>       0.00694444 </v>
   <v>       0.00694444 </v>
   <v>       0.00694444 </v>
   <v>       0.00347222 </v>
   <v>       0.00694444 </v>
   <v>       0.00694444 </v>
   <v>       0.00694444 </v>
   <v>       0.00694444 </v>
   <v>       0.00694444 </v>
   <v>       0.00347222 </v>
   <v>       0.00694444 </v>
   <v>       0.00694444 </v>
   <v>       0.00694444 </v>
   <v>       0.00347222 </v>
   <v>       0.00347222 </v>
   <v>       0.00694444 </v>
   <v>       0.00694444 </v>
   <v>       0.00347222 </v>
   <v>       0.00694444 </v>
   <v>       0.00347222 </v>
   <v>       0.00115741 </v>
   <v>       0.00347222 </v>
   <v>       0.00347222 </v>
   <v>       0.00347222 </v>
   <v>       0.00347222 </v>
   <v>       0.00347222 </v>
   <v>       0.00347222 </v>
   <v>       0.00347222 </v>
   <v>       0.00694444 </v>
   <v>       0.00694444 </v>
   <v>       0.00694444 </v>
   <v>       0.00694444 </v>
   <v>       0.00694444 </v>
   <v>       0.00347222 </v>
   <v>       0.00694444 </v>
   <v>       0.00694444 </v>
   <v>       0.00694444 </v>
   <v>       0.00694444 </v>
   <v>       0.00347222 </v>
   <v>       0.00694444 </v>
   <v>       0.00694444 </v>
   <v>       0.00347222 </v>
   <v>       0.00347222 </v>
   <v>       0.00694444 </v>
   <v>       0.00347222 </v>
   <v>       0.00115741 </v>
   <v>       0.00347222 </v>
   <v>       0.00347222 </v>
   <v>       0.00347222 </v>
   <v>       0.00347222 </v>
   <v>       0.00347222 </v>
   <v>       0.00694444 </v>
   <v>       0.00694444 </v>
   <v>       0.00694444 </v>
   <v>       0.00347222 </v>
   <v>       0.00694444 </v>
   <v>       0.00347222 </v>
   <v>       0.00347222 </v>
   <v>       0.00115741 </v>
   <v>       0.00347222 </v>
   <v>       0.00347222 </v>
   <v>       0.00347222 </v>
   <v>       0.00347222 </v>
   <v>       0.00057870 </v>
  </varray>
  <varray name="tetrahedronlist"  type="int" >
   <v type="int" >       12        1        2        8       44 </v>
   <v type="int" >       12        2        8        9       45 </v>
   <v type="int" >       12        2        3        9       45 </v>
   <v type="int" >       12        2        8       44       45 </v>
   <v type="int" >       12        3        9       10       46 </v>
   <v type="int" >       12        3        4       10       46 </v>
   <v type="int" >       12        3        9       45       46 </v>
   <v type="int" >       12        4       10       11       47 </v>
   <v type="int" >       12        4        5       11       47 </v>
   <v type="int" >       12        4       10       46       47 </v>
   <v type="int" >       12        5       11       12       48 </v>
   <v type="int" >       12        5        6       12       48 </v>
   <v type="int" >       12        5       11       47       48 </v>
   <v type="int" >       12        6       12       13       49 </v>
   <v type="int" >       12        6        7       13       49 </v>
   <v type="int" >       12        6       12       48       49 </v>
   <v type="int" >       12        7       13       14       50 </v>
   <v type="int" >       12        6        7       14       50 </v>
   <v type="int" >       12        7       13       49       50 </v>
   <v type="int" >       12        6       14       15       51 </v>
   <v type="int" >       12        5        6       15       51 </v>
   <v type="int" >       12        6       14       50       51 </v>
   <v type="int" >       12        5       15       16       52 </v>
   <v type="int" >       12        4        5       16       52 </v>
   <v type="int" >       12        5       15       51       52 </v>
   <v type="int" >       12        4       16       17       53 </v>
   <v type="int" >       12        3        4       17       53 </v>
   <v type="int" >       12        4       16       52       53 </v>
   <v type="int" >       12        3       17       18       54 </v>
   <v type="int" >       12        2        3       18       54 </v>
   <v type="int" >       12        3       17       53       54 </v>
   <v type="int" >       12        2        2        8       18 </v>
   <v type="int" >       12        1        2        2        8 </v>
   <v type="int" >       12        2        8       18       54 </v>
   <v type="int" >       12        8        9       19       55 </v>
   <v type="int" >       12        8        9       45       55 </v>
   <v type="int" >       12        8       44       45       55 </v>
   <v type="int" >       12        9       19       20       56 </v>
   <v type="int" >       12        9       10       20       56 </v>
   <v type="int" >       12        9       10       46       56 </v>
   <v type="int" >       12        9       19       55       56 </v>
   <v type="int" >       12        9       45       55       56 </v>
   <v type="int" >       12        9       45       46       56 </v>
   <v type="int" >       12       10       20       21       57 </v>
   <v type="int" >       12       10       11       21       57 </v>
   <v type="int" >       12       10       11       47       57 </v>
   <v type="int" >       12       10       20       56       57 </v>
   <v type="int" >       12       10       46       56       57 </v>
   <v type="int" >       12       10       46       47       57 </v>
   <v type="int" >       12       11       21       22       58 </v>
   <v type="int" >       12       11       12       22       58 </v>
   <v type="int" >       12       11       12       48       58 </v>
   <v type="int" >       12       11       21       57       58 </v>
   <v type="int" >       12       11       47       57       58 </v>
   <v type="int" >       12       11       47       48       58 </v>
   <v type="int" >       12       12       22       23       59 </v>
   <v type="int" >       12       12       13       23       59 </v>
   <v type="int" >       12       12       13       49       59 </v>
   <v type="int" >       12       12       22       58       59 </v>
   <v type="int" >       12       12       48       58       59 </v>
   <v type="int" >       12       12       48       49       59 </v>
   <v type="int" >       12       13       23       24       60 </v>
   <v type="int" >       12       13       14       24       60 </v>
   <v type="int" >       12       13       14       50       60 </v>
   <v type="int" >       12       13       23       59       60 </v>
   <v type="int" >       12       13       49       59       60 </v>
   <v type="int" >       12       13       49       50       60 </v>
   <v type="int" >       12       14       24       25       61 </v>
   <v type="int" >       12       14       15       25       61 </v>
   <v type="int" >       12       14       15       51       61 </v>
   <v type="int" >       12       14       24       60       61 </v>
   <v type="int" >       12       14       50       60       61 </v>
   <v type="int" >       12       14       50       51       61 </v>
   <v type="int" >       12       15       25       26       62 </v>
   <v type="int" >       12       15       16       26       62 </v>
   <v type="int" >       12       15       16       52       62 </v>
   <v type="int" >       12       15       25       61       62 </v>
   <v type="int" >       12       15       51       61       62 </v>
   <v type="int" >       12       15       51       52       62 </v>
   <v type="int" >       12       16       26       27       63 </v>
   <v type="int" >       12       16       17       27       63 </v>
   <v type="int" >       12       16       17       53       63 </v>
   <v type="int" >       12       16       26       62       63 </v>
   <v type="int" >       12       16       52       62       63 </v>
   <v type="int" >       12       16       52       53       63 </v>
   <v type="int" >       12       17       17       27       64 </v>
   <v type="int" >       12       17       17       18       64 </v>
   <v type="int" >       12       17       18       54       64 </v>
   <v type="int" >       12       17       27       63       64 </v>
   <v type="int" >       12       17       53       63       64 </v>
   <v type="int" >       12       17       53       54       64 </v>
   <v type="int" >       12        3        9       17       18 </v>
   <v type="int" >       12        2        3        9       18 </v>
   <v type="int" >       12        2        8        9       18 </v>
   <v type="int" >       12        9       17       18       64 </v>
   <v type="int" >       12        9       18       54       64 </v>
   <v type="int" >       12        8        9       18       54 </v>
   <v type="int" >       12       19       20       28       65 </v>
   <v type="int" >       12       19       20       56       65 </v>
   <v type="int" >       12       19       55       56       65 </v>
   <v type="int" >       12       20       28       29       66 </v>
   <v type="int" >       12       20       21       29       66 </v>
   <v type="int" >       12       20       21       57       66 </v>
   <v type="int" >       12       20       28       65       66 </v>
   <v type="int" >       12       20       56       65       66 </v>
   <v type="int" >       12       20       56       57       66 </v>
   <v type="int" >       12       21       29       30       67 </v>
   <v type="int" >       12       21       22       30       67 </v>
   <v type="int" >       12       21       22       58       67 </v>
   <v type="int" >       12       21       29       66       67 </v>
   <v type="int" >       12       21       57       66       67 </v>
   <v type="int" >       12       21       57       58       67 </v>
   <v type="int" >       12       22       30       31       68 </v>
   <v type="int" >       12       22       23       31       68 </v>
   <v type="int" >       12       22       23       59       68 </v>
   <v type="int" >       12       22       30       67       68 </v>
   <v type="int" >       12       22       58       67       68 </v>
   <v type="int" >       12       22       58       59       68 </v>
   <v type="int" >       12       23       31       32       69 </v>
   <v type="int" >       12       23       24       32       69 </v>
   <v type="int" >       12       23       24       60       69 </v>
   <v type="int" >       12       23       31       68       69 </v>
   <v type="int" >       12       23       59       68       69 </v>
   <v type="int" >       12       23       59       60       69 </v>
   <v type="int" >       12       24       32       33       70 </v>
   <v type="int" >       12       24       25       33       70 </v>
   <v type="int" >       12       24       25       61       70 </v>
   <v type="int" >       12       24       32       69       70 </v>
   <v type="int" >       12       24       60       69       70 </v>
   <v type="int" >       12       24       60       61       70 </v>
   <v type="int" >       12       25       33       34       71 </v>
   <v type="int" >       12       25       26       34       71 </v>
   <v type="int" >       12       25       26       62       71 </v>
   <v type="int" >       12       25       33       70       71 </v>
   <v type="int" >       12       25       61       70       71 </v>
   <v type="int" >       12       25       61       62       71 </v>
   <v type="int" >       12       26       26       34       72 </v>
   <v type="int" >       12       26       26       27       72 </v>
   <v type="int" >       12       26       27       63       72 </v>
   <v type="int" >       12       26       34       71       72 </v>
   <v type="int" >       12       26       62       71       72 </v>
   <v type="int" >       12       26       62       63       72 </v>
   <v type="int" >       12       16       26       27       73 </v>
   <v type="int" >       12       16       17       27       73 </v>
   <v type="int" >       12       17       27       64       73 </v>
   <v type="int" >       12       26       27       72       73 </v>
   <v type="int" >       12       27       63       72       73 </v>
   <v type="int" >       12       27       63       64       73 </v>
   <v type="int" >       12        4       10       16       17 </v>
   <v type="int" >       12        3        4       10       17 </v>
   <v type="int" >       12        3        9       10       17 </v>
   <v type="int" >       12       10       16       17       73 </v>
   <v type="int" >       12       10       17       64       73 </v>
   <v type="int" >       12        9       10       17       64 </v>
   <v type="int" >       12       28       29       35       74 </v>
   <v type="int" >       12       28       29       66       74 </v>
   <v type="int" >       12       28       65       66       74 </v>
   <v type="int" >       12       29       35       36       75 </v>
   <v type="int" >       12       29       30       36       75 </v>
   <v type="int" >       12       29       30       67       75 </v>
   <v type="int" >       12       29       35       74       75 </v>
   <v type="int" >       12       29       66       74       75 </v>
   <v type="int" >       12       29       66       67       75 </v>
   <v type="int" >       12       30       36       37       76 </v>
   <v type="int" >       12       30       31       37       76 </v>
   <v type="int" >       12       30       31       68       76 </v>
   <v type="int" >       12       30       36       75       76 </v>
   <v type="int" >       12       30       67       75       76 </v>
   <v type="int" >       12       30       67       68       76 </v>
   <v type="int" >       12       31       37       38       77 </v>
   <v type="int" >       12       31       32       38       77 </v>
   <v type="int" >       12       31       32       69       77 </v>
   <v type="int" >       12       31       37       76       77 </v>
   <v type="int" >       12       31       68       76       77 </v>
   <v type="int" >       12       31       68       69       77 </v>
   <v type="int" >       12       32       38       39       78 </v>
   <v type="int" >       12       32       33       39       78 </v>
   <v type="int" >       12       32       33       70       78 </v>
   <v type="int" >       12       32       38       77       78 </v>
   <v type="int" >       12       32       69       77       78 </v>
   <v type="int" >       12       32       69       70       78 </v>
   <v type="int" >       12       33       33       39       79 </v>
   <v type="int" >       12       33       33       34       79 </v>
   <v type="int" >       12       33       34       71       79 </v>
   <v type="int" >       12       33       39       78       79 </v>
   <v type="int" >       12       33       70       78       79 </v>
   <v type="int" >       12       33       70       71       79 </v>
   <v type="int" >       12       25       33       34       80 </v>
   <v type="int" >       12       25       26       34       80 </v>
   <v type="int" >       12       26       34       72       80 </v>
   <v type="int" >       12       33       34       79       80 </v>
   <v type="int" >       12       34       71       79       80 </v>
   <v type="int" >       12       34       71       72       80 </v>
   <v type="int" >       12       15       25       26       81 </v>
   <v type="int" >       12       15       16       26       81 </v>
   <v type="int" >       12       16       26       73       81 </v>
   <v type="int" >       12       25       26       80       81 </v>
   <v type="int" >       12       26       72       80       81 </v>
   <v type="int" >       12       26       72       73       81 </v>
   <v type="int" >       12        5       11       15       16 </v>
   <v type="int" >       12        4        5       11       16 </v>
   <v type="int" >       12        4       10       11       16 </v>
   <v type="int" >       12       11       15       16       81 </v>
   <v type="int" >       12       11       16       73       81 </v>
   <v type="int" >       12       10       11       16       73 </v>
   <v type="int" >       12       35       36       40       82 </v>
   <v type="int" >       12       35       36       75       82 </v>
   <v type="int" >       12       35       74       75       82 </v>
   <v type="int" >       12       36       40       41       83 </v>
   <v type="int" >       12       36       37       41       83 </v>
   <v type="int" >       12       36       37       76       83 </v>
   <v type="int" >       12       36       40       82       83 </v>
   <v type="int" >       12       36       75       82       83 </v>
   <v type="int" >       12       36       75       76       83 </v>
   <v type="int" >       12       37       41       42       84 </v>
   <v type="int" >       12       37       38       42       84 </v>
   <v type="int" >       12       37       38       77       84 </v>
   <v type="int" >       12       37       41       83       84 </v>
   <v type="int" >       12       37       76       83       84 </v>
   <v type="int" >       12       37       76       77       84 </v>
   <v type="int" >       12       38       38       42       85 </v>
   <v type="int" >       12       38       38       39       85 </v>
   <v type="int" >       12       38       39       78       85 </v>
   <v type="int" >       12       38       42       84       85 </v>
   <v type="int" >       12       38       77       84       85 </v>
   <v type="int" >       12       38       77       78       85 </v>
   <v type="int" >       12       32       38       39       86 </v>
   <v type="int" >       12       32       33       39       86 </v>
   <v type="int" >       12       33       39       79       86 </v>
   <v type="int" >       12       38       39       85       86 </v>
   <v type="int" >       12       39       78       85       86 </v>
   <v type="int" >       12       39       78       79       86 </v>
   <v type="int" >       12       24       32       33       87 </v>
   <v type="int" >       12       24       25       33       87 </v>
   <v type="int" >       12       25       33       80       87 </v>
   <v type="int" >       12       32       33       86       87 </v>
   <v type="int" >       12       33       79       86       87 </v>
   <v type="int" >       12       33       79       80       87 </v>
   <v type="int" >       12       14       24       25       88 </v>
   <v type="int" >       12       14       15       25       88 </v>
   <v type="int" >       12       15       25       81       88 </v>
   <v type="int" >       12       24       25       87       88 </v>
   <v type="int" >       12       25       80       87       88 </v>
   <v type="int" >       12       25       80       81       88 </v>
   <v type="int" >       12        6       12       14       15 </v>
   <v type="int" >       12        5        6       12       15 </v>
   <v type="int" >       12        5       11       12       15 </v>
   <v type="int" >       12       12       14       15       88 </v>
   <v type="int" >       12       12       15       81       88 </v>
   <v type="int" >       12       11       12       15       81 </v>
   <v type="int" >       12       40       41       43       89 </v>
   <v type="int" >       12       40       41       83       89 </v>
   <v type="int" >       12       40       82       83       89 </v>
   <v type="int" >       12       41       41       43       90 </v>
   <v type="int" >       12       41       41       42       90 </v>
   <v type="int" >       12       41       42       84       90 </v>
   <v type="int" >       12       41       43       89       90 </v>
   <v type="int" >       12       41       83       89       90 </v>
   <v type="int" >       12       41       83       84       90 </v>
   <v type="int" >       12       37       41       42       91 </v>
   <v type="int" >       12       37       38       42       91 </v>
   <v type="int" >       12       38       42       85       91 </v>
   <v type="int" >       12       41       42       90       91 </v>
   <v type="int" >       12       42       84       90       91 </v>
   <v type="int" >       12       42       84       85       91 </v>
   <v type="int" >       12       31       37       38       92 </v>
   <v type="int" >       12       31       32       38       92 </v>
   <v type="int" >       12       32       38       86       92 </v>
   <v type="int" >       12       37       38       91       92 </v>
   <v type="int" >       12       38       85       91       92 </v>
   <v type="int" >       12       38       85       86       92 </v>
   <v type="int" >       12       23       31       32       93 </v>
   <v type="int" >       12       23       24       32       93 </v>
   <v type="int" >       12       24       32       87       93 </v>
   <v type="int" >       12       31       32       92       93 </v>
   <v type="int" >       12       32       86       92       93 </v>
   <v type="int" >       12       32       86       87       93 </v>
   <v type="int" >       12       13       23       24       94 </v>
   <v type="int" >       12       13       14       24       94 </v>
   <v type="int" >       12       14       24       88       94 </v>
   <v type="int" >       12       23       24       93       94 </v>
   <v type="int" >       12       24       87       93       94 </v>
   <v type="int" >       12       24       87       88       94 </v>
   <v type="int" >       12        7       13       13       14 </v>
   <v type="int" >       12        6        7       13       14 </v>
   <v type="int" >       12        6       12       13       14 </v>
   <v type="int" >       12       13       13       14       94 </v>
   <v type="int" >       12       13       14       88       94 </v>
   <v type="int" >       12       12       13       14       88 </v>
   <v type="int" >       12       40       41       43       95 </v>
   <v type="int" >       12       41       43       90       95 </v>
   <v type="int" >       12       43       89       90       95 </v>
   <v type="int" >       12       36       40       41       96 </v>
   <v type="int" >       12       36       37       41       96 </v>
   <v type="int" >       12       37       41       91       96 </v>
   <v type="int" >       12       40       41       95       96 </v>
   <v type="int" >       12       41       90       95       96 </v>
   <v type="int" >       12       41       90       91       96 </v>
   <v type="int" >       12       30       36       37       97 </v>
   <v type="int" >       12       30       31       37       97 </v>
   <v type="int" >       12       31       37       92       97 </v>
   <v type="int" >       12       36       37       96       97 </v>
   <v type="int" >       12       37       91       96       97 </v>
   <v type="int" >       12       37       91       92       97 </v>
   <v type="int" >       12       22       30       31       98 </v>
   <v type="int" >       12       22       23       31       98 </v>
   <v type="int" >       12       23       31       93       98 </v>
   <v type="int" >       12       30       31       97       98 </v>
   <v type="int" >       12       31       92       97       98 </v>
   <v type="int" >       12       31       92       93       98 </v>
   <v type="int" >       12       12       22       23       88 </v>
   <v type="int" >       12       12       13       23       88 </v>
   <v type="int" >       12       13       23       88       94 </v>
   <v type="int" >       12       22       23       88       98 </v>
   <v type="int" >       12       23       88       93       98 </v>
   <v type="int" >       12       23       88       93       94 </v>
   <v type="int" >       12       35       36       40       99 </v>
   <v type="int" >       12       36       40       96       99 </v>
   <v type="int" >       12       40       95       96       99 </v>
   <v type="int" >       12       29       35       36      100 </v>
   <v type="int" >       12       29       30       36      100 </v>
   <v type="int" >       12       30       36       97      100 </v>
   <v type="int" >       12       35       36       99      100 </v>
   <v type="int" >       12       36       96       99      100 </v>
   <v type="int" >       12       36       96       97      100 </v>
   <v type="int" >       12       21       29       30      101 </v>
   <v type="int" >       12       21       22       30      101 </v>
   <v type="int" >       12       22       30       98      101 </v>
   <v type="int" >       12       29       30      100      101 </v>
   <v type="int" >       12       30       97      100      101 </v>
   <v type="int" >       12       30       97       98      101 </v>
   <v type="int" >       12       11       21       22       81 </v>
   <v type="int" >       12       11       12       22       81 </v>
   <v type="int" >       12       12       22       81       88 </v>
   <v type="int" >       12       21       22       81      101 </v>
   <v type="int" >       12       22       81       98      101 </v>
   <v type="int" >       12       22       81       88       98 </v>
   <v type="int" >       12       28       29       35      102 </v>
   <v type="int" >       12       29       35      100      102 </v>
   <v type="int" >       12       35       99      100      102 </v>
   <v type="int" >       12       20       28       29      103 </v>
   <v type="int" >       12       20       21       29      103 </v>
   <v type="int" >       12       21       29      101      103 </v>
   <v type="int" >       12       28       29      102      103 </v>
   <v type="int" >       12       29      100      102      103 </v>
   <v type="int" >       12       29      100      101      103 </v>
   <v type="int" >       12       10       20       21       73 </v>
   <v type="int" >       12       10       11       21       73 </v>
   <v type="int" >       12       11       21       73       81 </v>
   <v type="int" >       12       20       21       73      103 </v>
   <v type="int" >       12       21       73      101      103 </v>
   <v type="int" >       12       21       73       81      101 </v>
   <v type="int" >       12       19       20       28      104 </v>
   <v type="int" >       12       20       28      103      104 </v>
   <v type="int" >       12       28      102      103      104 </v>
   <v type="int" >       12        9       19       20       64 </v>
   <v type="int" >       12        9       10       20       64 </v>
   <v type="int" >       12       10       20       64       73 </v>
   <v type="int" >       12       19       20       64      104 </v>
   <v type="int" >       12       20       64      103      104 </v>
   <v type="int" >       12       20       64       73      103 </v>
   <v type="int" >       12        8        9       19       54 </v>
   <v type="int" >       12        9       19       54       64 </v>
   <v type="int" >       12       19       54       64      104 </v>
   <v type="int" >       12       44       45       55      105 </v>
   <v type="int" >       12       45       55       56      106 </v>
   <v type="int" >       12       45       46       56      106 </v>
   <v type="int" >       12       45       55      105      106 </v>
   <v type="int" >       12       46       56       57      107 </v>
   <v type="int" >       12       46       47       57      107 </v>
   <v type="int" >       12       46       56      106      107 </v>
   <v type="int" >       12       47       57       58      108 </v>
   <v type="int" >       12       47       48       58      108 </v>
   <v type="int" >       12       47       57      107      108 </v>
   <v type="int" >       12       48       58       59      109 </v>
   <v type="int" >       12       48       49       59      109 </v>
   <v type="int" >       12       48       58      108      109 </v>
   <v type="int" >       12       49       59       60      110 </v>
   <v type="int" >       12       49       50       60      110 </v>
   <v type="int" >       12       49       59      109      110 </v>
   <v type="int" >       12       50       60       61      111 </v>
   <v type="int" >       12       50       51       61      111 </v>
   <v type="int" >       12       50       60      110      111 </v>
   <v type="int" >       12       51       61       62      112 </v>
   <v type="int" >       12       51       52       62      112 </v>
   <v type="int" >       12       51       61      111      112 </v>
   <v type="int" >       12       52       62       63      113 </v>
   <v type="int" >       12       52       53       63      113 </v>
   <v type="int" >       12       52       62      112      113 </v>
   <v type="int" >       12       53       63       64      104 </v>
   <v type="int" >       12       53       54       64      104 </v>
   <v type="int" >       12       53       63      104      113 </v>
   <v type="int" >       12       55       56       65      114 </v>
   <v type="int" >       12       55       56      106      114 </v>
   <v type="int" >       12       55      105      106      114 </v>
   <v type="int" >       12       56       65       66      115 </v>
   <v type="int" >       12       56       57       66      115 </v>
   <v type="int" >       12       56       57      107      115 </v>
   <v type="int" >       12       56       65      114      115 </v>
   <v type="int" >       12       56      106      114      115 </v>
   <v type="int" >       12       56      106      107      115 </v>
   <v type="int" >       12       57       66       67      116 </v>
   <v type="int" >       12       57       58       67      116 </v>
   <v type="int" >       12       57       58      108      116 </v>
   <v type="int" >       12       57       66      115      116 </v>
   <v type="int" >       12       57      107      115      116 </v>
   <v type="int" >       12       57      107      108      116 </v>
   <v type="int" >       12       58       67       68      117 </v>
   <v type="int" >       12       58       59       68      117 </v>
   <v type="int" >       12       58       59      109      117 </v>
   <v type="int" >       12       58       67      116      117 </v>
   <v type="int" >       12       58      108      116      117 </v>
   <v type="int" >       12       58      108      109      117 </v>
   <v type="int" >       12       59       68       69      118 </v>
   <v type="int" >       12       59       60       69      118 </v>
   <v type="int" >       12       59       60      110      118 </v>
   <v type="int" >       12       59       68      117      118 </v>
   <v type="int" >       12       59      109      117      118 </v>
   <v type="int" >       12       59      109      110      118 </v>
   <v type="int" >       12       60       69       70      119 </v>
   <v type="int" >       12       60       61       70      119 </v>
   <v type="int" >       12       60       61      111      119 </v>
   <v type="int" >       12       60       69      118      119 </v>
   <v type="int" >       12       60      110      118      119 </v>
   <v type="int" >       12       60      110      111      119 </v>
   <v type="int" >       12       61       70       71      120 </v>
   <v type="int" >       12       61       62       71      120 </v>
   <v type="int" >       12       61       62      112      120 </v>
   <v type="int" >       12       61       70      119      120 </v>
   <v type="int" >       12       61      111      119      120 </v>
   <v type="int" >       12       61      111      112      120 </v>
   <v type="int" >       12       62       71       72      121 </v>
   <v type="int" >       12       62       63       72      121 </v>
   <v type="int" >       12       62       63      113      121 </v>
   <v type="int" >       12       62       71      120      121 </v>
   <v type="int" >       12       62      112      120      121 </v>
   <v type="int" >       12       62      112      113      121 </v>
   <v type="int" >       12       63       72       73      103 </v>
   <v type="int" >       12       63       64       73      103 </v>
   <v type="int" >       12       63       64      103      104 </v>
   <v type="int" >       12       63       72      103      121 </v>
   <v type="int" >       12       63      103      113      121 </v>
   <v type="int" >       12       63      103      104      113 </v>
   <v type="int" >       12       65       66       74      122 </v>
   <v type="int" >       12       65       66      115      122 </v>
   <v type="int" >       12       65      114      115      122 </v>
   <v type="int" >       12       66       74       75      123 </v>
   <v type="int" >       12       66       67       75      123 </v>
   <v type="int" >       12       66       67      116      123 </v>
   <v type="int" >       12       66       74      122      123 </v>
   <v type="int" >       12       66      115      122      123 </v>
   <v type="int" >       12       66      115      116      123 </v>
   <v type="int" >       12       67       75       76      124 </v>
   <v type="int" >       12       67       68       76      124 </v>
   <v type="int" >       12       67       68      117      124 </v>
   <v type="int" >       12       67       75      123      124 </v>
   <v type="int" >       12       67      116      123      124 </v>
   <v type="int" >       12       67      116      117      124 </v>
   <v type="int" >       12       68       76       77      125 </v>
   <v type="int" >       12       68       69       77      125 </v>
   <v type="int" >       12       68       69      118      125 </v>
   <v type="int" >       12       68       76      124      125 </v>
   <v type="int" >       12       68      117      124      125 </v>
   <v type="int" >       12       68      117      118      125 </v>
   <v type="int" >       12       69       77       78      126 </v>
   <v type="int" >       12       69       70       78      126 </v>
   <v type="int" >       12       69       70      119      126 </v>
   <v type="int" >       12       69       77      125      126 </v>
   <v type="int" >       12       69      118      125      126 </v>
   <v type="int" >       12       69      118      119      126 </v>
   <v type="int" >       12       70       78       79      127 </v>
   <v type="int" >       12       70       71       79      127 </v>
   <v type="int" >       12       70       71      120      127 </v>
   <v type="int" >       12       70       78      126      127 </v>
   <v type="int" >       12       70      119      126      127 </v>
   <v type="int" >       12       70      119      120      127 </v>
   <v type="int" >       12       71       79       80      128 </v>
   <v type="int" >       12       71       72       80      128 </v>
   <v type="int" >       12       71       72      121      128 </v>
   <v type="int" >       12       71       79      127      128 </v>
   <v type="int" >       12       71      120      127      128 </v>
   <v type="int" >       12       71      120      121      128 </v>
   <v type="int" >       12       72       80       81      101 </v>
   <v type="int" >       12       72       73       81      101 </v>
   <v type="int" >       12       72       73      101      103 </v>
   <v type="int" >       12       72       80      101      128 </v>
   <v type="int" >       12       72      101      121      128 </v>
   <v type="int" >       12       72      101      103      121 </v>
   <v type="int" >       12       74       75       82      129 </v>
   <v type="int" >       12       74       75      123      129 </v>
   <v type="int" >       12       74      122      123      129 </v>
   <v type="int" >       12       75       82       83      130 </v>
   <v type="int" >       12       75       76       83      130 </v>
   <v type="int" >       12       75       76      124      130 </v>
   <v type="int" >       12       75       82      129      130 </v>
   <v type="int" >       12       75      123      129      130 </v>
   <v type="int" >       12       75      123      124      130 </v>
   <v type="int" >       12       76       83       84      131 </v>
   <v type="int" >       12       76       77       84      131 </v>
   <v type="int" >       12       76       77      125      131 </v>
   <v type="int" >       12       76       83      130      131 </v>
   <v type="int" >       12       76      124      130      131 </v>
   <v type="int" >       12       76      124      125      131 </v>
   <v type="int" >       12       77       84       85      132 </v>
   <v type="int" >       12       77       78       85      132 </v>
   <v type="int" >       12       77       78      126      132 </v>
   <v type="int" >       12       77       84      131      132 </v>
   <v type="int" >       12       77      125      131      132 </v>
   <v type="int" >       12       77      125      126      132 </v>
   <v type="int" >       12       78       85       86      133 </v>
   <v type="int" >       12       78       79       86      133 </v>
   <v type="int" >       12       78       79      127      133 </v>
   <v type="int" >       12       78       85      132      133 </v>
   <v type="int" >       12       78      126      132      133 </v>
   <v type="int" >       12       78      126      127      133 </v>
   <v type="int" >       12       79       86       87      134 </v>
   <v type="int" >       12       79       80       87      134 </v>
   <v type="int" >       12       79       80      128      134 </v>
   <v type="int" >       12       79       86      133      134 </v>
   <v type="int" >       12       79      127      133      134 </v>
   <v type="int" >       12       79      127      128      134 </v>
   <v type="int" >       12       80       87       88       98 </v>
   <v type="int" >       12       80       81       88       98 </v>
   <v type="int" >       12       80       81       98      101 </v>
   <v type="int" >       12       80       87       98      134 </v>
   <v type="int" >       12       80       98      128      134 </v>
   <v type="int" >       12       80       98      101      128 </v>
   <v type="int" >       12       82       83       89      135 </v>
   <v type="int" >       12       82       83      130      135 </v>
   <v type="int" >       12       82      129      130      135 </v>
   <v type="int" >       12       83       89       90      136 </v>
   <v type="int" >       12       83       84       90      136 </v>
   <v type="int" >       12       83       84      131      136 </v>
   <v type="int" >       12       83       89      135      136 </v>
   <v type="int" >       12       83      130      135      136 </v>
   <v type="int" >       12       83      130      131      136 </v>
   <v type="int" >       12       84       90       91      137 </v>
   <v type="int" >       12       84       85       91      137 </v>
   <v type="int" >       12       84       85      132      137 </v>
   <v type="int" >       12       84       90      136      137 </v>
   <v type="int" >       12       84      131      136      137 </v>
   <v type="int" >       12       84      131      132      137 </v>
   <v type="int" >       12       85       91       92      138 </v>
   <v type="int" >       12       85       86       92      138 </v>
   <v type="int" >       12       85       86      133      138 </v>
   <v type="int" >       12       85       91      137      138 </v>
   <v type="int" >       12       85      132      137      138 </v>
   <v type="int" >       12       85      132      133      138 </v>
   <v type="int" >       12       86       92       93      139 </v>
   <v type="int" >       12       86       87       93      139 </v>
   <v type="int" >       12       86       87      134      139 </v>
   <v type="int" >       12       86       92      138      139 </v>
   <v type="int" >       12       86      133      138      139 </v>
   <v type="int" >       12       86      133      134      139 </v>
   <v type="int" >       12       87       93       93       94 </v>
   <v type="int" >       12       87       88       93       94 </v>
   <v type="int" >       12       87       88       93       98 </v>
   <v type="int" >       12       87       93       93      139 </v>
   <v type="int" >       12       87       93      134      139 </v>
   <v type="int" >       12       87       93       98      134 </v>
   <v type="int" >       12       89       90       95      140 </v>
   <v type="int" >       12       89       90      136      140 </v>
   <v type="int" >       12       89      135      136      140 </v>
   <v type="int" >       12       90       95       96      141 </v>
   <v type="int" >       12       90       91       96      141 </v>
   <v type="int" >       12       90       91      137      141 </v>
   <v type="int" >       12       90       95      140      141 </v>
   <v type="int" >       12       90      136      140      141 </v>
   <v type="int" >       12       90      136      137      141 </v>
   <v type="int" >       12       91       96       97      142 </v>
   <v type="int" >       12       91       92       97      142 </v>
   <v type="int" >       12       91       92      138      142 </v>
   <v type="int" >       12       91       96      141      142 </v>
   <v type="int" >       12       91      137      141      142 </v>
   <v type="int" >       12       91      137      138      142 </v>
   <v type="int" >       12       92       97       98      134 </v>
   <v type="int" >       12       92       93       98      134 </v>
   <v type="int" >       12       92       93      134      139 </v>
   <v type="int" >       12       92       97      134      142 </v>
   <v type="int" >       12       92      134      138      142 </v>
   <v type="int" >       12       92      134      138      139 </v>
   <v type="int" >       12       95       96       99      143 </v>
   <v type="int" >       12       95       96      141      143 </v>
   <v type="int" >       12       95      140      141      143 </v>
   <v type="int" >       12       96       99      100      144 </v>
   <v type="int" >       12       96       97      100      144 </v>
   <v type="int" >       12       96       97      142      144 </v>
   <v type="int" >       12       96       99      143      144 </v>
   <v type="int" >       12       96      141      143      144 </v>
   <v type="int" >       12       96      141      142      144 </v>
   <v type="int" >       12       97      100      101      128 </v>
   <v type="int" >       12       97       98      101      128 </v>
   <v type="int" >       12       97       98      128      134 </v>
   <v type="int" >       12       97      100      128      144 </v>
   <v type="int" >       12       97      128      142      144 </v>
   <v type="int" >       12       97      128      134      142 </v>
   <v type="int" >       12       99      100      102      145 </v>
   <v type="int" >       12       99      100      144      145 </v>
   <v type="int" >       12       99      143      144      145 </v>
   <v type="int" >       12      100      102      103      121 </v>
   <v type="int" >       12      100      101      103      121 </v>
   <v type="int" >       12      100      101      121      128 </v>
   <v type="int" >       12      100      102      121      145 </v>
   <v type="int" >       12      100      121      144      145 </v>
   <v type="int" >       12      100      121      128      144 </v>
   <v type="int" >       12      102      103      104      113 </v>
   <v type="int" >       12      102      103      113      121 </v>
   <v type="int" >       12      102      113      121      145 </v>
   <v type="int" >       12      105      106      114      146 </v>
   <v type="int" >       12      106      114      115      147 </v>
   <v type="int" >       12      106      107      115      147 </v>
   <v type="int" >       12      106      114      146      147 </v>
   <v type="int" >       12      107      115      116      148 </v>
   <v type="int" >       12      107      108      116      148 </v>
   <v type="int" >       12      107      115      147      148 </v>
   <v type="int" >       12      108      116      117      149 </v>
   <v type="int" >       12      108      109      117      149 </v>
   <v type="int" >       12      108      116      148      149 </v>
   <v type="int" >       12      109      117      118      150 </v>
   <v type="int" >       12      109      110      118      150 </v>
   <v type="int" >       12      109      117      149      150 </v>
   <v type="int" >       12      110      118      119      151 </v>
   <v type="int" >       12      110      111      119      151 </v>
   <v type="int" >       12      110      118      150      151 </v>
   <v type="int" >       12      111      119      120      152 </v>
   <v type="int" >       12      111      112      120      152 </v>
   <v type="int" >       12      111      119      151      152 </v>
   <v type="int" >       12      112      120      121      145 </v>
   <v type="int" >       12      112      113      121      145 </v>
   <v type="int" >       12      112      120      145      152 </v>
   <v type="int" >       12      114      115      122      153 </v>
   <v type="int" >       12      114      115      147      153 </v>
   <v type="int" >       12      114      146      147      153 </v>
   <v type="int" >       12      115      122      123      154 </v>
   <v type="int" >       12      115      116      123      154 </v>
   <v type="int" >       12      115      116      148      154 </v>
   <v type="int" >       12      115      122      153      154 </v>
   <v type="int" >       12      115      147      153      154 </v>
   <v type="int" >       12      115      147      148      154 </v>
   <v type="int" >       12      116      123      124      155 </v>
   <v type="int" >       12      116      117      124      155 </v>
   <v type="int" >       12      116      117      149      155 </v>
   <v type="int" >       12      116      123      154      155 </v>
   <v type="int" >       12      116      148      154      155 </v>
   <v type="int" >       12      116      148      149      155 </v>
   <v type="int" >       12      117      124      125      156 </v>
   <v type="int" >       12      117      118      125      156 </v>
   <v type="int" >       12      117      118      150      156 </v>
   <v type="int" >       12      117      124      155      156 </v>
   <v type="int" >       12      117      149      155      156 </v>
   <v type="int" >       12      117      149      150      156 </v>
   <v type="int" >       12      118      125      126      157 </v>
   <v type="int" >       12      118      119      126      157 </v>
   <v type="int" >       12      118      119      151      157 </v>
   <v type="int" >       12      118      125      156      157 </v>
   <v type="int" >       12      118      150      156      157 </v>
   <v type="int" >       12      118      150      151      157 </v>
   <v type="int" >       12      119      126      127      158 </v>
   <v type="int" >       12      119      120      127      158 </v>
   <v type="int" >       12      119      120      152      158 </v>
   <v type="int" >       12      119      126      157      158 </v>
   <v type="int" >       12      119      151      157      158 </v>
   <v type="int" >       12      119      151      152      158 </v>
   <v type="int" >       12      120      127      128      144 </v>
   <v type="int" >       12      120      121      128      144 </v>
   <v type="int" >       12      120      121      144      145 </v>
   <v type="int" >       12      120      127      144      158 </v>
   <v type="int" >       12      120      144      152      158 </v>
   <v type="int" >       12      120      144      145      152 </v>
   <v type="int" >       12      122      123      129      159 </v>
   <v type="int" >       12      122      123      154      159 </v>
   <v type="int" >       12      122      153      154      159 </v>
   <v type="int" >       12      123      129      130      160 </v>
   <v type="int" >       12      123      124      130      160 </v>
   <v type="int" >       12      123      124      155      160 </v>
   <v type="int" >       12      123      129      159      160 </v>
   <v type="int" >       12      123      154      159      160 </v>
   <v type="int" >       12      123      154      155      160 </v>
   <v type="int" >       12      124      130      131      161 </v>
   <v type="int" >       12      124      125      131      161 </v>
   <v type="int" >       12      124      125      156      161 </v>
   <v type="int" >       12      124      130      160      161 </v>
   <v type="int" >       12      124      155      160      161 </v>
   <v type="int" >       12      124      155      156      161 </v>
   <v type="int" >       12      125      131      132      162 </v>
   <v type="int" >       12      125      126      132      162 </v>
   <v type="int" >       12      125      126      157      162 </v>
   <v type="int" >       12      125      131      161      162 </v>
   <v type="int" >       12      125      156      161      162 </v>
   <v type="int" >       12      125      156      157      162 </v>
   <v type="int" >       12      126      132      133      163 </v>
   <v type="int" >       12      126      127      133      163 </v>
   <v type="int" >       12      126      127      158      163 </v>
   <v type="int" >       12      126      132      162      163 </v>
   <v type="int" >       12      126      157      162      163 </v>
   <v type="int" >       12      126      157      158      163 </v>
   <v type="int" >       12      127      133      134      142 </v>
   <v type="int" >       12      127      128      134      142 </v>
   <v type="int" >       12      127      128      142      144 </v>
   <v type="int" >       12      127      133      142      163 </v>
   <v type="int" >       12      127      142      158      163 </v>
   <v type="int" >       12      127      142      144      158 </v>
   <v type="int" >       12      129      130      135      164 </v>
   <v type="int" >       12      129      130      160      164 </v>
   <v type="int" >       12      129      159      160      164 </v>
   <v type="int" >       12      130      135      136      165 </v>
   <v type="int" >       12      130      131      136      165 </v>
   <v type="int" >       12      130      131      161      165 </v>
   <v type="int" >       12      130      135      164      165 </v>
   <v type="int" >       12      130      160      164      165 </v>
   <v type="int" >       12      130      160      161      165 </v>
   <v type="int" >       12      131      136      137      166 </v>
   <v type="int" >       12      131      132      137      166 </v>
   <v type="int" >       12      131      132      162      166 </v>
   <v type="int" >       12      131      136      165      166 </v>
   <v type="int" >       12      131      161      165      166 </v>
   <v type="int" >       12      131      161      162      166 </v>
   <v type="int" >       12      132      137      138      167 </v>
   <v type="int" >       12      132      133      138      167 </v>
   <v type="int" >       12      132      133      163      167 </v>
   <v type="int" >       12      132      137      166      167 </v>
   <v type="int" >       12      132      162      166      167 </v>
   <v type="int" >       12      132      162      163      167 </v>
   <v type="int" >       12      133      138      138      139 </v>
   <v type="int" >       12      133      134      138      139 </v>
   <v type="int" >       12      133      134      138      142 </v>
   <v type="int" >       12      133      138      138      167 </v>
   <v type="int" >       12      133      138      163      167 </v>
   <v type="int" >       12      133      138      142      163 </v>
   <v type="int" >       12      135      136      140      168 </v>
   <v type="int" >       12      135      136      165      168 </v>
   <v type="int" >       12      135      164      165      168 </v>
   <v type="int" >       12      136      140      141      169 </v>
   <v type="int" >       12      136      137      141      169 </v>
   <v type="int" >       12      136      137      166      169 </v>
   <v type="int" >       12      136      140      168      169 </v>
   <v type="int" >       12      136      165      168      169 </v>
   <v type="int" >       12      136      165      166      169 </v>
   <v type="int" >       12      137      141      142      163 </v>
   <v type="int" >       12      137      138      142      163 </v>
   <v type="int" >       12      137      138      163      167 </v>
   <v type="int" >       12      137      141      163      169 </v>
   <v type="int" >       12      137      163      166      169 </v>
   <v type="int" >       12      137      163      166      167 </v>
   <v type="int" >       12      140      141      143      170 </v>
   <v type="int" >       12      140      141      169      170 </v>
   <v type="int" >       12      140      168      169      170 </v>
   <v type="int" >       12      141      143      144      158 </v>
   <v type="int" >       12      141      142      144      158 </v>
   <v type="int" >       12      141      142      158      163 </v>
   <v type="int" >       12      141      143      158      170 </v>
   <v type="int" >       12      141      158      169      170 </v>
   <v type="int" >       12      141      158      163      169 </v>
   <v type="int" >       12      143      144      145      152 </v>
   <v type="int" >       12      143      144      152      158 </v>
   <v type="int" >       12      143      152      158      170 </v>
   <v type="int" >       12      146      147      153      171 </v>
   <v type="int" >       12      147      153      154      172 </v>
   <v type="int" >       12      147      148      154      172 </v>
   <v type="int" >       12      147      153      171      172 </v>
   <v type="int" >       12      148      154      155      173 </v>
   <v type="int" >       12      148      149      155      173 </v>
   <v type="int" >       12      148      154      172      173 </v>
   <v type="int" >       12      149      155      156      174 </v>
   <v type="int" >       12      149      150      156      174 </v>
   <v type="int" >       12      149      155      173      174 </v>
   <v type="int" >       12      150      156      157      175 </v>
   <v type="int" >       12      150      151      157      175 </v>
   <v type="int" >       12      150      156      174      175 </v>
   <v type="int" >       12      151      157      158      170 </v>
   <v type="int" >       12      151      152      158      170 </v>
   <v type="int" >       12      151      157      170      175 </v>
   <v type="int" >       12      153      154      159      176 </v>
   <v type="int" >       12      153      154      172      176 </v>
   <v type="int" >       12      153      171      172      176 </v>
   <v type="int" >       12      154      159      160      177 </v>
   <v type="int" >       12      154      155      160      177 </v>
   <v type="int" >       12      154      155      173      177 </v>
   <v type="int" >       12      154      159      176      177 </v>
   <v type="int" >       12      154      172      176      177 </v>
   <v type="int" >       12      154      172      173      177 </v>
   <v type="int" >       12      155      160      161      178 </v>
   <v type="int" >       12      155      156      161      178 </v>
   <v type="int" >       12      155      156      174      178 </v>
   <v type="int" >       12      155      160      177      178 </v>
   <v type="int" >       12      155      173      177      178 </v>
   <v type="int" >       12      155      173      174      178 </v>
   <v type="int" >       12      156      161      162      179 </v>
   <v type="int" >       12      156      157      162      179 </v>
   <v type="int" >       12      156      157      175      179 </v>
   <v type="int" >       12      156      161      178      179 </v>
   <v type="int" >       12      156      174      178      179 </v>
   <v type="int" >       12      156      174      175      179 </v>
   <v type="int" >       12      157      162      163      169 </v>
   <v type="int" >       12      157      158      163      169 </v>
   <v type="int" >       12      157      158      169      170 </v>
   <v type="int" >       12      157      162      169      179 </v>
   <v type="int" >       12      157      169      175      179 </v>
   <v type="int" >       12      157      169      170      175 </v>
   <v type="int" >       12      159      160      164      180 </v>
   <v type="int" >       12      159      160      177      180 </v>
   <v type="int" >       12      159      176      177      180 </v>
   <v type="int" >       12      160      164      165      181 </v>
   <v type="int" >       12      160      161      165      181 </v>
   <v type="int" >       12      160      161      178      181 </v>
   <v type="int" >       12      160      164      180      181 </v>
   <v type="int" >       12      160      177      180      181 </v>
   <v type="int" >       12      160      177      178      181 </v>
   <v type="int" >       12      161      165      166      182 </v>
   <v type="int" >       12      161      162      166      182 </v>
   <v type="int" >       12      161      162      179      182 </v>
   <v type="int" >       12      161      165      181      182 </v>
   <v type="int" >       12      161      178      181      182 </v>
   <v type="int" >       12      161      178      179      182 </v>
   <v type="int" >       12      162      166      166      167 </v>
   <v type="int" >       12      162      163      166      167 </v>
   <v type="int" >       12      162      163      166      169 </v>
   <v type="int" >       12      162      166      166      182 </v>
   <v type="int" >       12      162      166      179      182 </v>
   <v type="int" >       12      162      166      169      179 </v>
   <v type="int" >       12      164      165      168      183 </v>
   <v type="int" >       12      164      165      181      183 </v>
   <v type="int" >       12      164      180      181      183 </v>
   <v type="int" >       12      165      168      169      179 </v>
   <v type="int" >       12      165      166      169      179 </v>
   <v type="int" >       12      165      166      179      182 </v>
   <v type="int" >       12      165      168      179      183 </v>
   <v type="int" >       12      165      179      181      183 </v>
   <v type="int" >       12      165      179      181      182 </v>
   <v type="int" >       12      168      169      170      175 </v>
   <v type="int" >       12      168      169      175      179 </v>
   <v type="int" >       12      168      175      179      183 </v>
   <v type="int" >       12      171      172      176      184 </v>
   <v type="int" >       12      172      176      177      185 </v>
   <v type="int" >       12      172      173      177      185 </v>
   <v type="int" >       12      172      176      184      185 </v>
   <v type="int" >       12      173      177      178      186 </v>
   <v type="int" >       12      173      174      178      186 </v>
   <v type="int" >       12      173      177      185      186 </v>
   <v type="int" >       12      174      178      179      183 </v>
   <v type="int" >       12      174      175      179      183 </v>
   <v type="int" >       12      174      178      183      186 </v>
   <v type="int" >       12      176      177      180      187 </v>
   <v type="int" >       12      176      177      185      187 </v>
   <v type="int" >       12      176      184      185      187 </v>
   <v type="int" >       12      177      180      181      188 </v>
   <v type="int" >       12      177      178      181      188 </v>
   <v type="int" >       12      177      178      186      188 </v>
   <v type="int" >       12      177      180      187      188 </v>
   <v type="int" >       12      177      185      187      188 </v>
   <v type="int" >       12      177      185      186      188 </v>
   <v type="int" >       12      178      181      181      182 </v>
   <v type="int" >       12      178      179      181      182 </v>
   <v type="int" >       12      178      179      181      183 </v>
   <v type="int" >       12      178      181      181      188 </v>
   <v type="int" >       12      178      181      186      188 </v>
   <v type="int" >       12      178      181      183      186 </v>
   <v type="int" >       12      180      181      183      186 </v>
   <v type="int" >       12      180      181      186      188 </v>
   <v type="int" >       12      180      186      187      188 </v>
   <v type="int" >       12      184      185      187      189 </v>
   <v type="int" >       12      185      187      187      188 </v>
   <v type="int" >       12      185      186      187      188 </v>
   <v type="int" >       12      185      187      187      189 </v>
  </varray>
  <i name="volumeweight">      0.00009645 </i>
 </kpoints>
 <parameters>
  <separator name="general" >
   <i type="string" name="SYSTEM">unknown system</i>
   <i type="logical" name="LCOMPAT"> F  </i>
  </separator>
  <separator name="electronic" >
   <i type="string" name="PREC">accura</i>
   <i name="ENMAX">    400.00000000</i>
   <i name="ENAUG">    644.87300000</i>
   <i name="EDIFF">      0.00000100</i>
   <i type="int" name="IALGO">    38</i>
   <i type="int" name="IWAVPR">    10</i>
   <i type="int" name="NBANDS">    24</i>
   <i name="NELECT">     32.00000000</i>
   <i type="int" name="TURBO">     0</i>
[...]
       <r>   -5.9719    1.0000 </r>
       <r>   -5.9719    1.0000 </r>
       <r>   -3.2548    1.0000 </r>
       <r>   -3.2441    1.0000 </r>
       <r>   -3.2441    1.0000 </r>
       <r>   -2.1277    1.0000 </r>
       <r>    6.1947    1.0000 </r>
       <r>    6.1947    1.0000 </r>
       <r>    6.3690    1.0000 </r>
       <r>    6.5079    1.0000 </r>
       <r>    6.5079    1.0000 </r>
       <r>    6.6781    1.0000 </r>
       <r>    6.9558    1.0000 </r>
       <r>    6.9954    1.0000 </r>
       <r>   17.6357    0.0000 </r>
       <r>   17.6357    0.0000 </r>
       <r>   17.8207    0.0000 </r>
       <r>   17.8517    0.0000 </r>
       <r>   18.2361    0.0000 </r>
       <r>   18.3636    0.0000 </r>
       <r>   18.6551    0.0000 </r>
       <r>   18.6564    0.0000 </r>
      </set>
      <set comment="kpoint 187">
       <r>   -6.3324    1.0000 </r>
       <r>   -6.0881    1.0000 </r>
       <r>   -6.0785    1.0000 </r>
       <r>   -6.0785    1.0000 </r>
       <r>   -3.3718    1.0000 </r>
       <r>   -3.3693    1.0000 </r>
       <r>   -3.3693    1.0000 </r>
       <r>   -3.3594    1.0000 </r>
       <r>    6.6156    1.0000 </r>
       <r>    6.6156    1.0000 </r>
       <r>    6.6375    1.0000 </r>
       <r>    6.8017    1.0000 </r>
       <r>    6.8205    1.0000 </r>
       <r>    6.8512    1.0000 </r>
       <r>    6.8512    1.0000 </r>
       <r>    7.0119    1.0000 </r>
       <r>   17.8780    0.0000 </r>
       <r>   17.8780    0.0000 </r>
       <r>   17.9313    0.0000 </r>
       <r>   18.1967    0.0000 </r>
       <r>   18.2646    0.0000 </r>
       <r>   18.2647    0.0000 </r>
       <r>   18.2949    0.0000 </r>
       <r>   18.3376    0.0000 </r>
      </set>
      <set comment="kpoint 188">
       <r>   -6.5420    1.0000 </r>
       <r>   -6.5420    1.0000 </r>
       <r>   -6.0829    1.0000 </r>
       <r>   -5.8025    1.0000 </r>
       <r>   -3.5237    1.0000 </r>
       <r>   -3.5001    1.0000 </r>
       <r>   -2.7982    1.0000 </r>
       <r>   -2.7982    1.0000 </r>
       <r>    6.2602    1.0000 </r>
       <r>    6.4614    1.0000 </r>
       <r>    6.6601    1.0000 </r>
       <r>    6.7454    1.0000 </r>
       <r>    6.7454    1.0000 </r>
       <r>    6.7935    1.0000 </r>
       <r>    6.7935    1.0000 </r>
       <r>    6.8035    1.0000 </r>
       <r>   17.8288    0.0000 </r>
       <r>   17.8288    0.0000 </r>
       <r>   17.9820    0.0000 </r>
       <r>   18.1076    0.0000 </r>
       <r>   18.1098    0.0000 </r>
       <r>   18.2986    0.0000 </r>
       <r>   18.2990    0.0000 </r>
       <r>   18.4727    0.0000 </r>
      </set>
      <set comment="kpoint 189">
       <r>   -6.1975    1.0000 </r>
       <r>   -5.9168    1.0000 </r>
       <r>   -5.9168    1.0000 </r>
       <r>   -5.9168    1.0000 </r>
       <r>   -3.6423    1.0000 </r>
       <r>   -3.6423    1.0000 </r>
       <r>   -3.6423    1.0000 </r>
       <r>   -3.6198    1.0000 </r>
       <r>    6.8314    1.0000 </r>
       <r>    6.8314    1.0000 </r>
       <r>    6.8314    1.0000 </r>
       <r>    6.8764    1.0000 </r>
       <r>    6.8764    1.0000 </r>
       <r>    6.8764    1.0000 </r>
       <r>    7.0301    1.0000 </r>
       <r>    7.0301    1.0000 </r>
       <r>   17.8439    0.0000 </r>
       <r>   17.8439    0.0000 </r>
       <r>   17.8439    0.0000 </r>
       <r>   18.2041    0.0000 </r>
       <r>   18.2042    0.0000 </r>
       <r>   18.2517    0.0000 </r>
       <r>   18.2518    0.0000 </r>
       <r>   18.2523    0.0000 </r>
      </set>
     </set>
    </set>
   </array>
  </eigenvalues>
  <separator name="orbital magnetization" >
   <v name="MAGDIPOLOUT">      0.00000000      0.00000000      0.00000000</v>
  </separator>
  <dos>
   <i name="efermi">      9.75208451 </i>
   <total>
    <array>
     <dimension dim="1">gridpoints</dimension>
     <dimension dim="2">spin</dimension>
     <field>energy</field>
     <field>total</field>
     <field>integrated</field>
     <set>
      <set comment="spin 1">
       <r>   -13.3885     0.0000     0.0000 </r>
       <r>   -13.2668     0.0000     0.0000 </r>
       <r>   -13.1451     0.0000     0.0000 </r>
       <r>   -13.0233     0.0000     0.0000 </r>
       <r>   -12.9016     0.0000     0.0000 </r>
       <r>   -12.7799     0.0000     0.0000 </r>
       <r>   -12.6582     0.0000     0.0000 </r>
       <r>   -12.5365     0.0000     0.0000 </r>
       <r>   -12.4148     0.0000     0.0000 </r>
       <r>   -12.2931     0.0000     0.0000 </r>
       <r>   -12.1714     0.0000     0.0000 </r>
       <r>   -12.0496     0.0000     0.0000 </r>
       <r>   -11.9279     0.0000     0.0000 </r>
       <r>   -11.8062     0.0000     0.0000 </r>
       <r>   -11.6845     0.0354     0.0005 </r>
       <r>   -11.5628     0.1544     0.0150 </r>
       <r>   -11.4411     0.2411     0.0390 </r>
       <r>   -11.3194     0.2730     0.0700 </r>
       <r>   -11.1977     0.3204     0.1061 </r>
       <r>   -11.0759     0.3603     0.1480 </r>
       <r>   -10.9542     0.3896     0.1936 </r>
       <r>   -10.8325     0.4207     0.2428 </r>
       <r>   -10.7108     0.4589     0.2963 </r>
       <r>   -10.5891     0.4820     0.3538 </r>
       <r>   -10.4674     0.5054     0.4139 </r>
       <r>   -10.3457     0.5313     0.4769 </r>
       <r>   -10.2240     0.5596     0.5433 </r>
       <r>   -10.1022     0.5867     0.6131 </r>
       <r>    -9.9805     0.6059     0.6856 </r>
       <r>    -9.8588     0.6267     0.7606 </r>
       <r>    -9.7371     0.6503     0.8383 </r>
       <r>    -9.6154     0.6750     0.9189 </r>
       <r>    -9.4937     0.7020     1.0027 </r>
       <r>    -9.3720     0.7169     1.0894 </r>
       <r>    -9.2503     0.7337     1.1778 </r>
       <r>    -9.1285     0.7509     1.2680 </r>
       <r>    -9.0068     0.7702     1.3606 </r>
       <r>    -8.8851     0.7900     1.4555 </r>
       <r>    -8.7634     0.8129     1.5531 </r>
       <r>    -8.6417     0.8343     1.6533 </r>
       <r>    -8.5200     0.8505     1.7559 </r>
       <r>    -8.3983     0.8710     1.8607 </r>
       <r>    -8.2766     0.8904     1.9678 </r>
       <r>    -8.1548     0.9094     2.0774 </r>
       <r>    -8.0331     0.9287     2.1892 </r>
       <r>    -7.9114     0.9477     2.3034 </r>
       <r>    -7.7897     1.0169     2.4232 </r>
       <r>    -7.6680     1.0822     2.5500 </r>
       <r>    -7.5463     1.0981     2.6830 </r>
       <r>    -7.4246     1.0851     2.8162 </r>
       <r>    -7.3029     1.0478     2.9462 </r>
       <r>    -7.1811     1.0311     3.0712 </r>
       <r>    -7.0594     1.0605     3.1986 </r>
       <r>    -6.9377     1.0760     3.3288 </r>
       <r>    -6.8160     1.0827     3.4601 </r>
       <r>    -6.6943     1.1341     3.5947 </r>
       <r>    -6.5726     1.1855     3.7369 </r>
       <r>    -6.4509     1.2615     3.8835 </r>
       <r>    -6.3292     1.2995     4.0415 </r>
       <r>    -6.2074     1.3350     4.2006 </r>
       <r>    -6.0857     1.4445     4.3712 </r>
       <r>    -5.9640     1.5595     4.5545 </r>
       <r>    -5.8423     1.6228     4.7490 </r>
       <r>    -5.7206     1.5318     4.9410 </r>
       <r>    -5.5989     1.4028     5.1201 </r>
       <r>    -5.4772     1.4406     5.2918 </r>
       <r>    -5.3555     1.4360     5.4680 </r>
       <r>    -5.2337     1.3869     5.6382 </r>
       <r>    -5.1120     1.3762     5.8085 </r>
       <r>    -4.9903     1.2535     5.9681 </r>
       <r>    -4.8686     1.2241     6.1179 </r>
       <r>    -4.7469     1.2055     6.2665 </r>
       <r>    -4.6252     1.1834     6.4121 </r>
       <r>    -4.5035     1.1159     6.5515 </r>
       <r>    -4.3818     1.0673     6.6848 </r>
       <r>    -4.2601     1.1068     6.8182 </r>
       <r>    -4.1383     1.0264     6.9541 </r>
       <r>    -4.0166     1.0097     7.0784 </r>
       <r>    -3.8949     0.9759     7.1991 </r>
       <r>    -3.7732     0.9419     7.3158 </r>
       <r>    -3.6515     0.9166     7.4294 </r>
       <r>    -3.5298     0.8710     7.5372 </r>
       <r>    -3.4081     1.0163     7.6548 </r>
       <r>    -3.2864     0.9621     7.7743 </r>
       <r>    -3.1646     1.0074     7.8991 </r>
       <r>    -3.0429     1.0037     8.0213 </r>
       <r>    -2.9212     0.9976     8.1404 </r>
       <r>    -2.7995     0.9958     8.2633 </r>
       <r>    -2.6778     0.9488     8.3819 </r>
       <r>    -2.5561     0.9511     8.4959 </r>
       <r>    -2.4344     1.0398     8.6166 </r>
       <r>    -2.3127     1.2425     8.7539 </r>
       <r>    -2.1909     1.4367     8.9155 </r>
       <r>    -2.0692     1.6993     9.1060 </r>
       <r>    -1.9475     2.0238     9.3304 </r>
       <r>    -1.8258     2.5338     9.6094 </r>
       <r>    -1.7041     2.7660     9.9387 </r>
       <r>    -1.5824     2.8511    10.2786 </r>
       <r>    -1.4607     2.1679    10.5733 </r>
       <r>    -1.3390     1.7888    10.8093 </r>
       <r>    -1.2172     1.6600    11.0186 </r>
       <r>    -1.0955     1.5557    11.2141 </r>
       <r>    -0.9738     1.4690    11.3980 </r>
       <r>    -0.8521     1.3994    11.5724 </r>
       <r>    -0.7304     1.3648    11.7402 </r>
       <r>    -0.6087     1.3359    11.9046 </r>
       <r>    -0.4870     1.2953    12.0649 </r>
       <r>    -0.3653     1.2674    12.2205 </r>
       <r>    -0.2435     1.1336    12.3787 </r>
       <r>    -0.1218     1.1051    12.5148 </r>
       <r>    -0.0001     1.0907    12.6483 </r>
       <r>     0.1216     1.0807    12.7804 </r>
       <r>     0.2433     1.0731    12.9115 </r>
       <r>     0.3650     1.0012    13.0400 </r>
       <r>     0.4867     1.1271    13.1624 </r>
       <r>     0.6084     1.4379    13.3197 </r>
       <r>     0.7302     1.7174    13.5117 </r>
       <r>     0.8519     2.0003    13.7378 </r>
       <r>     0.9736     2.2574    14.0048 </r>
       <r>     1.0953     2.2384    14.2790 </r>
       <r>     1.2170     2.1201    14.5396 </r>
       <r>     1.3387     2.1928    14.8024 </r>
       <r>     1.4604     2.2507    15.0727 </r>
       <r>     1.5821     2.0468    15.3384 </r>
       <r>     1.7039     1.5687    15.5624 </r>
       <r>     1.8256     1.4570    15.7406 </r>
       <r>     1.9473     1.7016    15.9342 </r>
       <r>     2.0690     2.0088    16.1588 </r>
       <r>     2.1907     2.2296    16.4181 </r>
       <r>     2.3124     2.3557    16.6995 </r>
       <r>     2.4341     2.4065    16.9881 </r>
       <r>     2.5558     2.2901    17.2724 </r>
       <r>     2.6776     2.3339    17.5531 </r>
       <r>     2.7993     2.4846    17.8432 </r>
       <r>     2.9210     2.7246    18.1626 </r>
       <r>     3.0427     3.0159    18.5111 </r>
       <r>     3.1644     2.8875    18.8873 </r>
       <r>     3.2861     2.3613    19.2075 </r>
       <r>     3.4078     2.7266    19.4950 </r>
       <r>     3.5295     2.7201    19.8394 </r>
       <r>     3.6513     2.7536    20.1771 </r>
       <r>     3.7730     3.1246    20.5272 </r>
       <r>     3.8947     3.7955    20.9543 </r>
       <r>     4.0164     3.7223    21.4353 </r>
       <r>     4.1381     3.2339    21.8513 </r>
       <r>     4.2598     2.8490    22.2308 </r>
       <r>     4.3815     2.5761    22.5538 </r>
       <r>     4.5032     2.7455    22.8734 </r>
       <r>     4.6250     2.9167    23.2366 </r>
       <r>     4.7467     2.7805    23.5729 </r>
       <r>     4.8684     2.9575    23.9215 </r>
       <r>     4.9901     2.9206    24.2813 </r>
       <r>     5.1118     2.9836    24.6387 </r>
       <r>     5.2335     3.0370    25.0073 </r>
       <r>     5.3552     3.0863    25.3803 </r>
       <r>     5.4769     2.9005    25.7441 </r>
       <r>     5.5987     2.6199    26.0758 </r>
       <r>     5.7204     2.3082    26.3670 </r>
       <r>     5.8421     2.4284    26.6583 </r>
       <r>     5.9638     2.5486    26.9595 </r>
       <r>     6.0855     2.6993    27.2831 </r>
       <r>     6.2072     2.8396    27.6281 </r>
       <r>     6.3289     2.7582    27.9663 </r>
       <r>     6.4506     2.6307    28.2953 </r>
       <r>     6.5723     2.5915    28.6090 </r>
       <r>     6.6941     2.3443    28.9132 </r>
       <r>     6.8158     2.6802    29.2179 </r>
       <r>     6.9375     2.3145    29.5283 </r>
       <r>     7.0592     2.0029    29.7862 </r>
       <r>     7.1809     1.7758    30.0123 </r>
       <r>     7.3026     1.5659    30.2151 </r>
       <r>     7.4243     1.4251    30.3965 </r>
       <r>     7.5460     1.3395    30.5644 </r>
       <r>     7.6678     1.2544    30.7225 </r>
       <r>     7.7895     1.1795    30.8711 </r>
       <r>     7.9112     1.0554    31.0072 </r>
       <r>     8.0329     0.9499    31.1291 </r>
       <r>     8.1546     0.8921    31.2408 </r>
       <r>     8.2763     0.8428    31.3465 </r>
       <r>     8.3980     0.8023    31.4469 </r>
       <r>     8.5197     0.7183    31.5392 </r>
       <r>     8.6415     0.6377    31.6217 </r>
       <r>     8.7632     0.5661    31.6950 </r>
       <r>     8.8849     0.5466    31.7623 </r>
       <r>     9.0066     0.4436    31.8239 </r>
       <r>     9.1283     0.3582    31.8721 </r>
       <r>     9.2500     0.3845    31.9165 </r>
       <r>     9.3717     0.2462    31.9603 </r>
       <r>     9.4934     0.1409    31.9834 </r>
       <r>     9.6152     0.0511    31.9988 </r>
       <r>     9.7369     0.0000    32.0000 </r>
       <r>     9.8586     0.0000    32.0000 </r>
       <r>     9.9803     0.0000    32.0000 </r>
       <r>    10.1020     0.0000    32.0000 </r>
       <r>    10.2237     0.0000    32.0000 </r>
       <r>    10.3454     0.0000    32.0000 </r>
       <r>    10.4671     0.0000    32.0000 </r>
       <r>    10.5889     0.0000    32.0000 </r>
       <r>    10.7106     0.0000    32.0000 </r>
       <r>    10.8323     0.0000    32.0000 </r>
       <r>    10.9540     0.0000    32.0000 </r>
       <r>    11.0757     0.0000    32.0000 </r>
       <r>    11.1974     0.0000    32.0000 </r>
       <r>    11.3191     0.0000    32.0000 </r>
       <r>    11.4408     0.0000    32.0000 </r>
       <r>    11.5626     0.0000    32.0000 </r>
       <r>    11.6843     0.0000    32.0000 </r>
       <r>    11.8060     0.0000    32.0000 </r>
       <r>    11.9277     0.0000    32.0000 </r>
       <r>    12.0494     0.0000    32.0000 </r>
       <r>    12.1711     0.0000    32.0000 </r>
       <r>    12.2928     0.0000    32.0000 </r>
       <r>    12.4145     0.0000    32.0000 </r>
       <r>    12.5363     0.0000    32.0000 </r>
       <r>    12.6580     0.0000    32.0000 </r>
       <r>    12.7797     0.0000    32.0000 </r>
       <r>    12.9014     0.0000    32.0000 </r>
       <r>    13.0231     0.0000    32.0000 </r>
       <r>    13.1448     0.0000    32.0000 </r>
       <r>    13.2665     0.0000    32.0000 </r>
       <r>    13.3882     0.0000    32.0000 </r>
       <r>    13.5100     0.0000    32.0000 </r>
       <r>    13.6317     0.0000    32.0000 </r>
       <r>    13.7534     0.0000    32.0000 </r>
       <r>    13.8751     0.0552    32.0018 </r>
       <r>    13.9968     0.2179    32.0177 </r>
       <r>    14.1185     0.4985    32.0600 </r>
       <r>    14.2402     0.6493    32.1317 </r>
       <r>    14.3619     0.6159    32.2068 </r>
       <r>    14.4837     0.7261    32.2883 </r>
       <r>    14.6054     0.8147    32.3823 </r>
       <r>    14.7271     1.1134    32.4968 </r>
       <r>    14.8488     1.2259    32.6371 </r>
       <r>    14.9705     1.4696    32.7987 </r>
       <r>    15.0922     1.5252    32.9859 </r>
       <r>    15.2139     1.5326    33.1696 </r>
       <r>    15.3356     1.5294    33.3548 </r>
       <r>    15.4574     1.5766    33.5437 </r>
       <r>    15.5791     1.6793    33.7422 </r>
       <r>    15.7008     1.8329    33.9545 </r>
       <r>    15.8225     2.1436    34.1982 </r>
       <r>    15.9442     2.2753    34.4705 </r>
       <r>    16.0659     2.1043    34.7374 </r>
       <r>    16.1876     2.1229    34.9927 </r>
       <r>    16.3093     2.1100    35.2504 </r>
       <r>    16.4311     2.1278    35.5078 </r>
       <r>    16.5528     2.2748    35.7750 </r>
       <r>    16.6745     2.4407    36.0618 </r>
       <r>    16.7962     2.6325    36.3708 </r>
       <r>    16.9179     2.7697    36.6998 </r>
       <r>    17.0396     2.8479    37.0408 </r>
       <r>    17.1613     3.0099    37.3964 </r>
       <r>    17.2830     3.1639    37.7714 </r>
       <r>    17.4047     3.3021    38.1624 </r>
       <r>    17.5265     3.7762    38.5867 </r>
       <r>    17.6482     4.0532    39.0620 </r>
       <r>    17.7699     4.4955    39.5748 </r>
       <r>    17.8916     4.0852    40.1250 </r>
       <r>    18.0133     3.4820    40.5798 </r>
       <r>    18.1350     3.0278    40.9772 </r>
       <r>    18.2567     3.4719    41.3752 </r>
       <r>    18.3784     4.1260    41.8410 </r>
       <r>    18.5002     3.8407    42.3260 </r>
       <r>    18.6219     3.7253    42.7842 </r>
       <r>    18.7436     3.7472    43.2335 </r>
       <r>    18.8653     3.5237    43.6881 </r>
       <r>    18.9870     3.1417    44.0987 </r>
       <r>    19.1087     2.7943    44.4562 </r>
       <r>    19.2304     2.6583    44.7884 </r>
       <r>    19.3521     2.6090    45.1066 </r>
       <r>    19.4739     2.7006    45.4284 </r>
       <r>    19.5956     2.7160    45.7593 </r>
       <r>    19.7173     2.8991    46.1001 </r>
       <r>    19.8390     2.7983    46.4501 </r>
       <r>    19.9607     2.6554    46.7823 </r>
       <r>    20.0824     2.4949    47.0983 </r>
       <r>    20.2041     2.0443    47.3777 </r>
       <r>    20.3258     1.6187    47.6022 </r>
       <r>    20.4476     1.0724    47.7648 </r>
       <r>    20.5693     0.4919    47.8591 </r>
       <r>    20.6910     0.3395    47.9092 </r>
       <r>    20.8127     0.2174    47.9423 </r>
       <r>    20.9344     0.1528    47.9646 </r>
       <r>    21.0561     0.1042    47.9801 </r>
       <r>    21.1778     0.0662    47.9904 </r>
       <r>    21.2995     0.0387    47.9967 </r>
       <r>    21.4213     0.0106    47.9998 </r>
       <r>    21.5430     0.0000    48.0000 </r>
       <r>    21.6647     0.0000    48.0000 </r>
       <r>    21.7864     0.0000    48.0000 </r>
       <r>    21.9081     0.0000    48.0000 </r>
       <r>    22.0298     0.0000    48.0000 </r>
       <r>    22.1515     0.0000    48.0000 </r>
       <r>    22.2732     0.0000    48.0000 </r>
       <r>    22.3950     0.0000    48.0000 </r>
       <r>    22.5167     0.0000    48.0000 </r>
       <r>    22.6384     0.0000    48.0000 </r>
       <r>    22.7601     0.0000    48.0000 </r>
       <r>    22.8818     0.0000    48.0000 </r>
       <r>    23.0035     0.0000    48.0000 </r>
       <r>    23.1252     0.0000    48.0000 </r>
      </set>
     </set>
    </array>
   </total>
  </dos>
 </calculation>
 <structure name="finalpos" >
  <crystal>
   <varray name="basis" >
    <v>       3.57371000       0.00000000       0.00000000 </v>
    <v>       0.03573700       3.57353100       0.00000000 </v>
    <v>       0.03573700       0.03538100       3.57335600 </v>
   </varray>
   <i name="volume">     45.63448427 </i>
   <varray name="rec_basis" >
    <v>       0.27982125      -0.00279834      -0.00277077 </v>
    <v>       0.00000000       0.27983527      -0.00277074 </v>
    <v>       0.00000000       0.00000000       0.27984897 </v>
   </varray>
  </crystal>
  <varray name="positions" >
   <v>       0.25000000       0.75000000       0.25000000 </v>
   <v>       0.00000000       0.00000000       0.50000000 </v>
   <v>       0.25000000       0.25000000       0.75000000 </v>
   <v>       0.00000000       0.50000000       0.00000000 </v>
   <v>       0.75000000       0.75000000       0.75000000 </v>
   <v>       0.50000000       0.00000000       0.00000000 </v>
   <v>       0.75000000       0.25000000       0.25000000 </v>
   <v>       0.50000000       0.50000000       0.50000000 </v>
  </varray>
 </structure>
</modeling>
