  64  64   0   0
  0.5780014E+01  0.7179999E-09  0.7179998E-09  0.7179999E-09  0.5000000E-15
  1.000000000000000E-004
  CAR 
 unknown system                          
     22.67297833    -13.38473386  301      9.81990634      1.00000000
    -13.385  0.0000E+00  0.0000E+00
    -13.265  0.0000E+00  0.0000E+00
    -13.144  0.0000E+00  0.0000E+00
    -13.024  0.0000E+00  0.0000E+00
    -12.904  0.0000E+00  0.0000E+00
    -12.784  0.0000E+00  0.0000E+00
    -12.664  0.0000E+00  0.0000E+00
    -12.543  0.0000E+00  0.0000E+00
    -12.423  0.0000E+00  0.0000E+00
    -12.303  0.0000E+00  0.0000E+00
    -12.183  0.0000E+00  0.0000E+00
    -12.063  0.3118E-14  0.3747E-15
    -11.942  0.1372E-06  0.1649E-07
    -11.822  0.2979E-02  0.3581E-03
    -11.702  0.2351E+00  0.2862E-01
    -11.582  0.1222E+01  0.1755E+00
    -11.462  0.1411E+01  0.3451E+00
    -11.341  0.2823E+01  0.6843E+00
    -11.221  0.1547E+01  0.8703E+00
    -11.101  0.3529E+01  0.1294E+01
    -10.981  0.2884E+01  0.1641E+01
    -10.861  0.3786E+01  0.2096E+01
    -10.741  0.2397E+01  0.2384E+01
    -10.620  0.4566E+01  0.2933E+01
    -10.500  0.4363E+01  0.3458E+01
    -10.380  0.4962E+01  0.4054E+01
    -10.260  0.2530E+01  0.4358E+01
    -10.140  0.4631E+01  0.4915E+01
    -10.019  0.6213E+01  0.5661E+01
     -9.899  0.5487E+01  0.6321E+01
     -9.779  0.4561E+01  0.6869E+01
     -9.659  0.4322E+01  0.7388E+01
     -9.539  0.6260E+01  0.8141E+01
     -9.418  0.5641E+01  0.8819E+01
     -9.298  0.5151E+01  0.9438E+01
     -9.178  0.7332E+01  0.1032E+02
     -9.058  0.6706E+01  0.1113E+02
     -8.938  0.6426E+01  0.1190E+02
     -8.817  0.4927E+01  0.1249E+02
     -8.697  0.5499E+01  0.1315E+02
     -8.577  0.7450E+01  0.1405E+02
     -8.457  0.8489E+01  0.1507E+02
     -8.337  0.8579E+01  0.1610E+02
     -8.216  0.6227E+01  0.1685E+02
     -8.096  0.6377E+01  0.1761E+02
     -7.976  0.8099E+01  0.1859E+02
     -7.856  0.5661E+01  0.1927E+02
     -7.736  0.9101E+01  0.2036E+02
     -7.615  0.8968E+01  0.2144E+02
     -7.495  0.9542E+01  0.2258E+02
     -7.375  0.6239E+01  0.2333E+02
     -7.255  0.9924E+01  0.2453E+02
     -7.135  0.9864E+01  0.2571E+02
     -7.015  0.8362E+01  0.2672E+02
     -6.894  0.7217E+01  0.2759E+02
     -6.774  0.8466E+01  0.2860E+02
     -6.654  0.1067E+02  0.2989E+02
     -6.534  0.9947E+01  0.3108E+02
     -6.414  0.1298E+02  0.3264E+02
     -6.293  0.1069E+02  0.3393E+02
     -6.173  0.1160E+02  0.3532E+02
     -6.053  0.1242E+02  0.3681E+02
     -5.933  0.8083E+01  0.3779E+02
     -5.813  0.1284E+02  0.3933E+02
     -5.692  0.1105E+02  0.4066E+02
     -5.572  0.1178E+02  0.4207E+02
     -5.452  0.1149E+02  0.4345E+02
     -5.332  0.1194E+02  0.4489E+02
     -5.212  0.1419E+02  0.4660E+02
     -5.091  0.7642E+01  0.4751E+02
     -4.971  0.1032E+02  0.4875E+02
     -4.851  0.9770E+01  0.4993E+02
     -4.731  0.1104E+02  0.5126E+02
     -4.611  0.7291E+01  0.5213E+02
     -4.490  0.8757E+01  0.5318E+02
     -4.370  0.6277E+01  0.5394E+02
     -4.250  0.8581E+01  0.5497E+02
     -4.130  0.1107E+02  0.5630E+02
     -4.010  0.9972E+01  0.5750E+02
     -3.890  0.9354E+01  0.5862E+02
     -3.769  0.6501E+01  0.5941E+02
     -3.649  0.5292E+01  0.6004E+02
     -3.529  0.7032E+01  0.6089E+02
     -3.409  0.6687E+01  0.6169E+02
     -3.289  0.6564E+01  0.6248E+02
     -3.168  0.1059E+02  0.6375E+02
     -3.048  0.7600E+01  0.6467E+02
     -2.928  0.9608E+01  0.6582E+02
     -2.808  0.1132E+02  0.6718E+02
     -2.688  0.9755E+01  0.6835E+02
     -2.567  0.7944E+01  0.6931E+02
     -2.447  0.7897E+01  0.7026E+02
     -2.327  0.1076E+02  0.7155E+02
     -2.207  0.1148E+02  0.7293E+02
     -2.087  0.1267E+02  0.7445E+02
     -1.966  0.1309E+02  0.7603E+02
     -1.846  0.1961E+02  0.7839E+02
     -1.726  0.2615E+02  0.8153E+02
     -1.606  0.2113E+02  0.8407E+02
     -1.486  0.1571E+02  0.8596E+02
     -1.365  0.1848E+02  0.8818E+02
     -1.245  0.8825E+01  0.8924E+02
     -1.125  0.1055E+02  0.9051E+02
     -1.005  0.1012E+02  0.9172E+02
     -0.885  0.1138E+02  0.9309E+02
     -0.765  0.9342E+01  0.9421E+02
     -0.644  0.1042E+02  0.9547E+02
     -0.524  0.1094E+02  0.9678E+02
     -0.404  0.1421E+02  0.9849E+02
     -0.284  0.1286E+02  0.1000E+03
     -0.164  0.8742E+01  0.1011E+03
     -0.043  0.3372E+01  0.1015E+03
      0.077  0.6590E+01  0.1023E+03
      0.197  0.8975E+01  0.1034E+03
      0.317  0.1145E+02  0.1047E+03
      0.437  0.1073E+02  0.1060E+03
      0.558  0.9241E+01  0.1071E+03
      0.678  0.9337E+01  0.1083E+03
      0.798  0.1774E+02  0.1104E+03
      0.918  0.2236E+02  0.1131E+03
      1.038  0.1989E+02  0.1155E+03
      1.159  0.1454E+02  0.1172E+03
      1.279  0.1254E+02  0.1187E+03
      1.399  0.1382E+02  0.1204E+03
      1.519  0.1363E+02  0.1220E+03
      1.639  0.2062E+02  0.1245E+03
      1.760  0.2169E+02  0.1271E+03
      1.880  0.1481E+02  0.1289E+03
      2.000  0.1464E+02  0.1307E+03
      2.120  0.1629E+02  0.1326E+03
      2.240  0.2004E+02  0.1350E+03
      2.360  0.1943E+02  0.1374E+03
      2.481  0.1650E+02  0.1393E+03
      2.601  0.1817E+02  0.1415E+03
      2.721  0.1892E+02  0.1438E+03
      2.841  0.1540E+02  0.1456E+03
      2.961  0.2352E+02  0.1485E+03
      3.082  0.2651E+02  0.1517E+03
      3.202  0.2249E+02  0.1544E+03
      3.322  0.2392E+02  0.1572E+03
      3.442  0.2279E+02  0.1600E+03
      3.562  0.2096E+02  0.1625E+03
      3.683  0.2256E+02  0.1652E+03
      3.803  0.2624E+02  0.1684E+03
      3.923  0.3243E+02  0.1723E+03
      4.043  0.2434E+02  0.1752E+03
      4.163  0.2541E+02  0.1782E+03
      4.284  0.2537E+02  0.1813E+03
      4.404  0.1728E+02  0.1834E+03
      4.524  0.2109E+02  0.1859E+03
      4.644  0.2951E+02  0.1894E+03
      4.764  0.2261E+02  0.1922E+03
      4.885  0.2372E+02  0.1950E+03
      5.005  0.2233E+02  0.1977E+03
      5.125  0.2511E+02  0.2007E+03
      5.245  0.2142E+02  0.2033E+03
      5.365  0.2417E+02  0.2062E+03
      5.485  0.1960E+02  0.2086E+03
      5.606  0.2183E+02  0.2112E+03
      5.726  0.2248E+02  0.2139E+03
      5.846  0.1689E+02  0.2159E+03
      5.966  0.2599E+02  0.2190E+03
      6.086  0.2404E+02  0.2219E+03
      6.207  0.2122E+02  0.2245E+03
      6.327  0.2007E+02  0.2269E+03
      6.447  0.1819E+02  0.2291E+03
      6.567  0.1645E+02  0.2310E+03
      6.687  0.1982E+02  0.2334E+03
      6.808  0.2005E+02  0.2358E+03
      6.928  0.2707E+02  0.2391E+03
      7.048  0.8532E+01  0.2401E+03
      7.168  0.8323E+01  0.2411E+03
      7.288  0.1368E+02  0.2428E+03
      7.409  0.1236E+02  0.2443E+03
      7.529  0.1080E+02  0.2455E+03
      7.649  0.1169E+02  0.2470E+03
      7.769  0.8714E+01  0.2480E+03
      7.889  0.6954E+01  0.2488E+03
      8.010  0.6414E+01  0.2496E+03
      8.130  0.8293E+01  0.2506E+03
      8.250  0.7343E+01  0.2515E+03
      8.370  0.6324E+01  0.2522E+03
      8.490  0.3358E+01  0.2527E+03
      8.610  0.6280E+01  0.2534E+03
      8.731  0.5487E+01  0.2541E+03
      8.851  0.3959E+01  0.2545E+03
      8.971  0.2097E+01  0.2548E+03
      9.091  0.3036E+01  0.2552E+03
      9.211  0.3870E+01  0.2556E+03
      9.332  0.1673E+01  0.2558E+03
      9.452  0.9851E+00  0.2559E+03
      9.572  0.4566E+00  0.2560E+03
      9.692  0.2033E-01  0.2560E+03
      9.812  0.4624E-05  0.2560E+03
      9.933  0.5771E-12  0.2560E+03
     10.053  0.0000E+00  0.2560E+03
     10.173  0.0000E+00  0.2560E+03
     10.293  0.0000E+00  0.2560E+03
     10.413  0.0000E+00  0.2560E+03
     10.534  0.0000E+00  0.2560E+03
     10.654  0.0000E+00  0.2560E+03
     10.774  0.0000E+00  0.2560E+03
     10.894  0.0000E+00  0.2560E+03
     11.014  0.0000E+00  0.2560E+03
     11.135  0.0000E+00  0.2560E+03
     11.255  0.0000E+00  0.2560E+03
     11.375  0.0000E+00  0.2560E+03
     11.495  0.0000E+00  0.2560E+03
     11.615  0.0000E+00  0.2560E+03
     11.735  0.0000E+00  0.2560E+03
     11.856  0.0000E+00  0.2560E+03
     11.976  0.0000E+00  0.2560E+03
     12.096  0.0000E+00  0.2560E+03
     12.216  0.0000E+00  0.2560E+03
     12.336  0.0000E+00  0.2560E+03
     12.457  0.0000E+00  0.2560E+03
     12.577  0.0000E+00  0.2560E+03
     12.697  0.0000E+00  0.2560E+03
     12.817  0.0000E+00  0.2560E+03
     12.937  0.0000E+00  0.2560E+03
     13.058  0.0000E+00  0.2560E+03
     13.178  0.0000E+00  0.2560E+03
     13.298  0.4297E-08  0.2560E+03
     13.418  0.1285E-02  0.2560E+03
     13.538  0.3888E+00  0.2560E+03
     13.659  0.1100E+01  0.2562E+03
     13.779  0.1584E+01  0.2564E+03
     13.899  0.6361E+01  0.2571E+03
     14.019  0.6003E+01  0.2579E+03
     14.139  0.5054E+01  0.2585E+03
     14.260  0.4729E+01  0.2590E+03
     14.380  0.7723E+01  0.2600E+03
     14.500  0.5785E+01  0.2607E+03
     14.620  0.7922E+01  0.2616E+03
     14.740  0.1180E+02  0.2630E+03
     14.860  0.1535E+02  0.2649E+03
     14.981  0.1178E+02  0.2663E+03
     15.101  0.1282E+02  0.2678E+03
     15.221  0.1441E+02  0.2696E+03
     15.341  0.9546E+01  0.2707E+03
     15.461  0.1220E+02  0.2722E+03
     15.582  0.1490E+02  0.2740E+03
     15.702  0.1891E+02  0.2762E+03
     15.822  0.2172E+02  0.2788E+03
     15.942  0.1966E+02  0.2812E+03
     16.062  0.1818E+02  0.2834E+03
     16.183  0.1669E+02  0.2854E+03
     16.303  0.1880E+02  0.2877E+03
     16.423  0.2186E+02  0.2903E+03
     16.543  0.2004E+02  0.2927E+03
     16.663  0.1555E+02  0.2946E+03
     16.784  0.1612E+02  0.2965E+03
     16.904  0.1976E+02  0.2989E+03
     17.024  0.3625E+02  0.3032E+03
     17.144  0.4183E+02  0.3083E+03
     17.264  0.2940E+02  0.3118E+03
     17.385  0.2395E+02  0.3147E+03
     17.505  0.2536E+02  0.3177E+03
     17.625  0.3673E+02  0.3221E+03
     17.745  0.3644E+02  0.3265E+03
     17.865  0.3340E+02  0.3305E+03
     17.985  0.2472E+02  0.3335E+03
     18.106  0.2906E+02  0.3370E+03
     18.226  0.3008E+02  0.3406E+03
     18.346  0.3186E+02  0.3444E+03
     18.466  0.3621E+02  0.3488E+03
     18.586  0.2953E+02  0.3523E+03
     18.707  0.2437E+02  0.3553E+03
     18.827  0.2643E+02  0.3585E+03
     18.947  0.2420E+02  0.3614E+03
     19.067  0.2508E+02  0.3644E+03
     19.187  0.2514E+02  0.3674E+03
     19.308  0.3031E+02  0.3710E+03
     19.428  0.2230E+02  0.3737E+03
     19.548  0.2095E+02  0.3762E+03
     19.668  0.2511E+02  0.3793E+03
     19.788  0.1397E+02  0.3809E+03
     19.909  0.8713E+01  0.3820E+03
     20.029  0.4807E+01  0.3826E+03
     20.149  0.2139E+01  0.3828E+03
     20.269  0.1946E+01  0.3830E+03
     20.389  0.2677E+01  0.3834E+03
     20.510  0.9297E+00  0.3835E+03
     20.630  0.7842E+00  0.3836E+03
     20.750  0.1600E+01  0.3838E+03
     20.870  0.1480E+01  0.3839E+03
     20.990  0.1765E+00  0.3840E+03
     21.110  0.2504E+00  0.3840E+03
     21.231  0.1095E-01  0.3840E+03
     21.351  0.5421E-06  0.3840E+03
     21.471  0.1226E-13  0.3840E+03
     21.591  0.0000E+00  0.3840E+03
     21.711  0.0000E+00  0.3840E+03
     21.832  0.0000E+00  0.3840E+03
     21.952  0.0000E+00  0.3840E+03
     22.072  0.0000E+00  0.3840E+03
     22.192  0.0000E+00  0.3840E+03
     22.312  0.0000E+00  0.3840E+03
     22.433  0.0000E+00  0.3840E+03
     22.553  0.0000E+00  0.3840E+03
     22.673  0.0000E+00  0.3840E+03
