  64   64
1 1
    42.773360004749996     1.942450869260000     1.982505512390000
     1.942450869260000    42.851068892659995     2.022560635960000
     1.982505512390000     2.022560635960000    42.933642475789995
1 2
    -0.161625661170000     0.001455492980000     0.001485520480000
     0.001455492980000    -0.092730445060000     0.000294870050000
     0.001485520480000     0.000294870050000    -0.092718434060000
1 3
    -0.092816203600000     0.002831953580000     0.000265082770000
     0.002831953580000    -0.161539902630000     0.001491045540000
     0.000265082770000     0.001491045540000    -0.092718434060000
1 4
    -0.113717145250000    -0.011483957320000    -0.002235126990000
    -0.011483957320000    -0.114176566000000    -0.002280288350000
    -0.002235126990000    -0.002280288350000     0.566473832120000
1 5
    -0.092816203600000     0.000207309860000     0.002836757980000
     0.000207309860000    -0.092807916010000     0.002894050450000
     0.002836757980000     0.002894050450000    -0.161450420680000
1 6
    -0.113717145250000    -0.002000311940000    -0.011527076810000
    -0.002000311940000     0.566283337660000     0.011609472270000
    -0.011527076810000     0.011609472270000    -0.113986071540000
1 7
     0.566091401880000     0.011598542260000     0.011837801380000
     0.011598542260000    -0.113525089360000    -0.011292622090000
     0.011837801380000    -0.011292622090000    -0.113986071540000
1 8
    -0.051974119310000     0.002184560680000     0.002229601930000
     0.002184560680000    -0.051886679230000     0.002274643180000
     0.002229601930000     0.002274643180000    -0.051793834200000
1 9
     0.166160654440000     0.107899617400000    -0.031179715230000
     0.107899617400000     0.082611778110000    -0.098653789820000
    -0.031179715230000    -0.098653789820000     0.134892057810000
1 10
    -0.072763478770000     0.082982918010000     0.205712757330000
     0.082982918010000    -0.060802564640000    -0.200414104680000
     0.205712757330000    -0.200414104680000    -0.337216752260000
1 11
    -8.594945484500000     1.496662003710000     1.527524268210000
     1.496662003710000    -8.448336215750000    -1.422609504420000
     1.527524268210000    -1.422609504420000    -8.506414445370000
1 12
     0.038676260770000     0.080406798730000     0.082064797170000
     0.080406798730000     0.158443226610000     0.008178890450000
     0.082064797170000     0.008178890450000     0.158777132410000
1 13
    -0.371916411150000     0.207992565240000     0.212281453120000
     0.207992565240000    -0.103328230800000    -0.117144844430000
     0.212281453120000    -0.117144844430000    -0.108110650670000
1 14
     0.034597325170000     0.029683384850000     0.030295585520000
     0.029683384850000     0.031736665300000    -0.033400549130000
     0.030295585520000    -0.033400549130000     0.030373056470000
1 15
     0.166160654440000    -0.033375205920000     0.107240814050000
    -0.033375205920000     0.138896164880000    -0.097504937670000
     0.107240814050000    -0.097504937670000     0.078607791150000
1 16
    -0.072763478770000     0.203976447170000     0.087163947110000
     0.203976447170000    -0.328923156760000    -0.205887036940000
     0.087163947110000    -0.205887036940000    -0.069096160140000
1 17
     1.347334885880000    -0.665594849840000     0.680706729710000
     0.694148480030000    -1.449112376470000     1.480347942850000
    -0.651564320300000     1.450842320800000    -1.389280060410000
1 18
     0.051605982160000    -0.036987033730000     0.041154610510000
     0.041900853940000    -0.082434375640000    -0.072759034700000
    -0.036139537570000    -0.069610351050000    -0.085340437090000
1 19
     1.390758374290000    -0.648821368230000    -0.662200541240000
     0.795773911360000    -1.529518694760000    -1.632188842870000
     0.812183339560000    -1.632188842870000    -1.596152359680000
1 20
     0.058025261110000    -0.031738707170000    -0.032393186560000
     0.038868676990000    -0.082931270710000     0.079378897350000
     0.039670171020000     0.079378897350000    -0.079690702910000
1 21
     1.390758374290000     0.795773911360000     0.812183339560000
    -0.648821368230000    -1.529518694760000    -1.632188842870000
    -0.662200541240000    -1.632188842870000    -1.596152359680000
1 22
     0.058025261110000     0.038868676990000     0.039670171020000
    -0.031738707170000    -0.082931270710000     0.079378897350000
    -0.032393186560000     0.079378897350000    -0.079690702910000
1 23
     1.347334885880000     0.694148480030000    -0.651564320300000
    -0.665594849840000    -1.449112376470000     1.450842320800000
     0.680706729710000     1.480347942850000    -1.389280060410000
1 24
     0.051605982160000     0.041900853940000    -0.036139537570000
    -0.036987033730000    -0.082434375640000    -0.069610351050000
     0.041154610510000    -0.072759034700000    -0.085340437090000
1 25
    -9.846410610249999    -3.118179793740000    -3.182478760480000
    -3.118179793740000    -9.971161420430001    -3.246777607110000
    -3.182478760480000    -3.246777607110000   -10.103710852799999
1 26
     0.066552951000000    -0.084743370280000    -0.086490850670000
    -0.084743370280000     0.154139084760000     0.017068351660000
    -0.086490850670000     0.017068351660000     0.154835842870000
1 27
     0.157493036400000    -0.082924184220000     0.018794692690000
    -0.082924184220000     0.063198999360000    -0.086132082100000
     0.018794692690000    -0.086132082100000     0.154835842870000
1 28
    -0.069281730090000    -0.115980257870000    -0.225101994520000
    -0.115980257870000    -0.073921939720000    -0.229649959670000
    -0.225101994520000    -0.229649959670000    -0.339217184310000
1 29
     0.157493036400000     0.020483078960000    -0.082523377150000
     0.020483078960000     0.158312546930000    -0.084190624060000
    -0.082523377150000    -0.084190624060000     0.059722295300000
1 30
    -0.069281730090000    -0.222688263960000    -0.120549962930000
    -0.222688263960000    -0.329735220470000    -0.234871741920000
    -0.120549962930000    -0.234871741920000    -0.083403903560000
1 31
    -0.320725288930000    -0.227718110430000    -0.232413810880000
    -0.227718110430000    -0.078291661630000    -0.125223322920000
    -0.232413810880000    -0.125223322920000    -0.083403903560000
1 32
     0.037733757600000    -0.030236371290000    -0.030859862300000
    -0.030236371290000     0.036524009680000    -0.031483353310000
    -0.030859862300000    -0.031483353310000     0.035238712570000
1 33
    -1.531289116160000     0.737321418980000    -1.618618454740000
    -0.707273860610000     1.392528555470000    -0.694711795930000
    -1.648106060290000     0.779377214820000    -1.596152359680000
1 34
    -1.448565035200000     0.638219498750000     1.466437883640000
    -0.721523831120000     1.346787184280000     0.710177399750000
     1.463583469490000    -0.622417226600000    -1.389280060410000
1 35
    -0.083017509690000     0.036047293090000     0.080010916170000
    -0.034560091070000     0.058111500090000    -0.030799086640000
     0.078569596170000     0.041249857740000    -0.079690702910000
1 36
    -0.082479056560000     0.039218557420000    -0.073567495110000
    -0.039669330250000     0.051650542970000     0.039691190270000
    -0.068873596310000    -0.037524405870000    -0.085340437090000
1 37
    -1.448565035200000    -0.721523831120000     1.463583469490000
     0.638219498750000     1.346787184280000    -0.622417226600000
     1.466437883640000     0.710177399750000    -1.389280060410000
1 38
    -1.531289116160000    -0.707273860610000    -1.648106060290000
     0.737321418980000     1.392528555470000     0.779377214820000
    -1.618618454740000    -0.694711795930000    -1.596152359680000
1 39
    -0.082479056560000    -0.039669330250000    -0.068873596310000
     0.039218557420000     0.051650542970000    -0.037524405870000
    -0.073567495110000     0.039691190270000    -0.085340437090000
1 40
    -0.083017509690000    -0.034560091070000     0.078569596170000
     0.036047293090000     0.058111500090000     0.041249857740000
     0.080010916170000    -0.030799086640000    -0.079690702910000
1 41
     0.140241877320000    -0.098917791600000    -0.035919856380000
    -0.098917791600000     0.074347849780000     0.103422637260000
    -0.035919856380000     0.103422637260000     0.169074883370000
1 42
    -0.111753707080000    -0.125692592690000     0.210675582420000
    -0.125692592690000    -0.116782472560000     0.214932040600000
     0.210675582420000     0.214932040600000    -0.354819233090000
1 43
    -8.508250086500000    -1.483152030910000     1.468433751510000
    -1.483152030910000    -8.567586948810000     1.498101882390000
     1.468433751510000     1.498101882390000    -8.473859110309998
1 44
     0.078330096830000    -0.100156245810000     0.104120356250000
    -0.100156245810000     0.136259510160000    -0.033844235470000
     0.104120356250000    -0.033844235470000     0.169074883370000
1 45
    -0.336978093690000    -0.211600789750000     0.194413168860000
    -0.211600789750000    -0.072482541480000     0.082870014610000
     0.194413168860000     0.082870014610000    -0.061322160500000
1 46
     0.030550699160000    -0.034596844730000     0.028902429630000
    -0.034596844730000     0.029166551520000     0.029486404450000
     0.028902429630000     0.029486404450000     0.036989796260000
1 47
     0.155179717800000     0.004846198280000     0.082853439430000
     0.004846198280000     0.155373695450000     0.084527412500000
     0.082853439430000     0.084527412500000     0.045343326650000
1 48
    -0.064126008340000    -0.206142631020000     0.078965238510000
    -0.206142631020000    -0.345334626830000     0.196031771220000
     0.078965238510000     0.196031771220000    -0.061322160500000
1 49
    -1.448565035200000     1.478003515760000    -0.691504738820000
     1.453107595400000    -1.389931056610000     0.654314599080000
     0.668013745130000    -0.678280027270000     1.347438300590000
1 50
    -1.531289116160000    -1.633328686770000    -0.740761369380000
    -1.633328566660000    -1.596634961660000    -0.755727555820000
     0.704135025980000     0.718361334820000     1.393011397670000
1 51
    -1.531289116160000    -1.633328566660000     0.704135025980000
    -1.633328686770000    -1.596634961660000     0.718361334820000
    -0.740761369380000    -0.755727555820000     1.393011397670000
1 52
    -1.448565035200000     1.453107595400000     0.668013745130000
     1.478003515760000    -1.389931056610000    -0.678280027270000
    -0.691504738820000     0.654314599080000     1.347438300590000
1 53
    -0.082479056560000    -0.068049641710000    -0.041066569880000
    -0.074352654180000    -0.085327585320000     0.036895149580000
     0.037709014940000    -0.040320566670000     0.051637691200000
1 54
    -0.083017509690000     0.079258547130000    -0.032949415970000
     0.079258547130000    -0.079846485580000    -0.033615185700000
     0.037672621610000     0.038433758680000     0.058267282760000
1 55
    -0.083017509690000     0.079258547130000     0.037672621610000
     0.079258547130000    -0.079846485580000     0.038433758680000
    -0.032949415970000    -0.033615185700000     0.058267282760000
1 56
    -0.082479056560000    -0.074352654180000     0.037709014940000
    -0.068049641710000    -0.085327585320000    -0.040320566670000
    -0.041066569880000     0.036895149580000     0.051637691200000
1 57
    -8.508250086500000     1.498396272000000    -1.452875302660000
     1.498396272000000    -8.535031493640000     1.498766330910000
    -1.452875302660000     1.498766330910000    -8.506414445370000
1 58
     0.078330096830000     0.106142648320000    -0.098010480660000
     0.106142648320000     0.170442335720000    -0.033146516480000
    -0.098010480660000    -0.033146516480000     0.134892057810000
1 59
     0.155179717800000     0.082737293060000     0.006536025870000
     0.082737293060000     0.041939769580000     0.082212052030000
     0.006536025870000     0.082212052030000     0.158777132410000
1 60
    -0.064126008340000     0.083155756300000    -0.204488235880000
     0.083155756300000    -0.069440035070000     0.201663368790000
    -0.204488235880000     0.201663368790000    -0.337216752260000
1 61
     0.140241877320000    -0.033893720790000    -0.099630284120000
    -0.033893720790000     0.164815062110000     0.105269208400000
    -0.099630284120000     0.105269208400000     0.078607791150000
1 62
    -0.111753707080000     0.213196811430000    -0.121366951150000
     0.213196811430000    -0.363490934870000     0.209896188630000
    -0.121366951150000     0.209896188630000    -0.108110650670000
1 63
    -0.336978093690000     0.198691126730000    -0.207589115750000
     0.198691126730000    -0.064708541840000     0.083028679920000
    -0.207589115750000     0.083028679920000    -0.069096160140000
1 64
     0.030550699160000     0.029602550820000    -0.033999898030000
     0.029602550820000     0.035783291310000     0.029621408090000
    -0.033999898030000     0.029621408090000     0.030373056470000
2 1
    -0.161625661170000     0.001455492980000     0.001485520480000
     0.001455492980000    -0.092730445060000     0.000294870050000
     0.001485520480000     0.000294870050000    -0.092718434060000
2 2
    42.773360004749996     1.942450869260000     1.982505512390000
     1.942450869260000    42.851068892659995     2.022560635960000
     1.982505512390000     2.022560635960000    42.933642475789995
2 3
    -0.113717145250000    -0.011483957320000    -0.002235126990000
    -0.011483957320000    -0.114176566000000    -0.002280288350000
    -0.002235126990000    -0.002280288350000     0.566473832120000
2 4
    -0.092816203600000     0.002831953580000     0.000265082770000
     0.002831953580000    -0.161539902630000     0.001491045540000
     0.000265082770000     0.001491045540000    -0.092718434060000
2 5
    -0.113717145250000    -0.002000311940000    -0.011527076810000
    -0.002000311940000     0.566283337660000     0.011609472270000
    -0.011527076810000     0.011609472270000    -0.113986071540000
2 6
    -0.092816203600000     0.000207309860000     0.002836757980000
     0.000207309860000    -0.092807916010000     0.002894050450000
     0.002836757980000     0.002894050450000    -0.161450420680000
2 7
    -0.051974119310000     0.002184560680000     0.002229601930000
     0.002184560680000    -0.051886679230000     0.002274643180000
     0.002229601930000     0.002274643180000    -0.051793834200000
2 8
     0.566091401880000     0.011598542260000     0.011837801380000
     0.011598542260000    -0.113525089360000    -0.011292622090000
     0.011837801380000    -0.011292622090000    -0.113986071540000
2 9
    -0.072763478770000     0.082982918010000     0.205712757330000
     0.082982918010000    -0.060802564640000    -0.200414104680000
     0.205712757330000    -0.200414104680000    -0.337216752260000
2 10
     0.166160654440000     0.107899617400000    -0.031179715230000
     0.107899617400000     0.082611778110000    -0.098653789820000
    -0.031179715230000    -0.098653789820000     0.134892057810000
2 11
     0.038676260770000     0.080406798730000     0.082064797170000
     0.080406798730000     0.158443226610000     0.008178890450000
     0.082064797170000     0.008178890450000     0.158777132410000
2 12
    -8.594945484500000     1.496662003710000     1.527524268210000
     1.496662003710000    -8.448336215750000    -1.422609504420000
     1.527524268210000    -1.422609504420000    -8.506414445370000
2 13
     0.034597325170000     0.029683384850000     0.030295585520000
     0.029683384850000     0.031736665300000    -0.033400549130000
     0.030295585520000    -0.033400549130000     0.030373056470000
2 14
    -0.371916411150000     0.207992565240000     0.212281453120000
     0.207992565240000    -0.103328230800000    -0.117144844430000
     0.212281453120000    -0.117144844430000    -0.108110650670000
2 15
    -0.072763478770000     0.203976447170000     0.087163947110000
     0.203976447170000    -0.328923156760000    -0.205887036940000
     0.087163947110000    -0.205887036940000    -0.069096160140000
2 16
     0.166160654440000    -0.033375205920000     0.107240814050000
    -0.033375205920000     0.138896164880000    -0.097504937670000
     0.107240814050000    -0.097504937670000     0.078607791150000
2 17
     0.051605982160000    -0.036987033730000     0.041154610510000
     0.041900853940000    -0.082434375640000    -0.072759034700000
    -0.036139537570000    -0.069610351050000    -0.085340437090000
2 18
     1.347334885880000    -0.665594849840000     0.680706729710000
     0.694148480030000    -1.449112376470000     1.480347942850000
    -0.651564320300000     1.450842320800000    -1.389280060410000
2 19
     0.058025261110000    -0.031738707170000    -0.032393186560000
     0.038868676990000    -0.082931270710000     0.079378897350000
     0.039670171020000     0.079378897350000    -0.079690702910000
2 20
     1.390758374290000    -0.648821368230000    -0.662200541240000
     0.795773911360000    -1.529518694760000    -1.632188842870000
     0.812183339560000    -1.632188842870000    -1.596152359680000
2 21
     0.058025261110000     0.038868676990000     0.039670171020000
    -0.031738707170000    -0.082931270710000     0.079378897350000
    -0.032393186560000     0.079378897350000    -0.079690702910000
2 22
     1.390758374290000     0.795773911360000     0.812183339560000
    -0.648821368230000    -1.529518694760000    -1.632188842870000
    -0.662200541240000    -1.632188842870000    -1.596152359680000
2 23
     0.051605982160000     0.041900853940000    -0.036139537570000
    -0.036987033730000    -0.082434375640000    -0.069610351050000
     0.041154610510000    -0.072759034700000    -0.085340437090000
2 24
     1.347334885880000     0.694148480030000    -0.651564320300000
    -0.665594849840000    -1.449112376470000     1.450842320800000
     0.680706729710000     1.480347942850000    -1.389280060410000
2 25
     0.066552951000000    -0.084743370280000    -0.086490850670000
    -0.084743370280000     0.154139084760000     0.017068351660000
    -0.086490850670000     0.017068351660000     0.154835842870000
2 26
    -9.846410610249999    -3.118179793740000    -3.182478760480000
    -3.118179793740000    -9.971161420430001    -3.246777607110000
    -3.182478760480000    -3.246777607110000   -10.103710852799999
2 27
    -0.069281730090000    -0.115980257870000    -0.225101994520000
    -0.115980257870000    -0.073921939720000    -0.229649959670000
    -0.225101994520000    -0.229649959670000    -0.339217184310000
2 28
     0.157493036400000    -0.082924184220000     0.018794692690000
    -0.082924184220000     0.063198999360000    -0.086132082100000
     0.018794692690000    -0.086132082100000     0.154835842870000
2 29
    -0.069281730090000    -0.222688263960000    -0.120549962930000
    -0.222688263960000    -0.329735220470000    -0.234871741920000
    -0.120549962930000    -0.234871741920000    -0.083403903560000
2 30
     0.157493036400000     0.020483078960000    -0.082523377150000
     0.020483078960000     0.158312546930000    -0.084190624060000
    -0.082523377150000    -0.084190624060000     0.059722295300000
2 31
     0.037733757600000    -0.030236371290000    -0.030859862300000
    -0.030236371290000     0.036524009680000    -0.031483353310000
    -0.030859862300000    -0.031483353310000     0.035238712570000
2 32
    -0.320725288930000    -0.227718110430000    -0.232413810880000
    -0.227718110430000    -0.078291661630000    -0.125223322920000
    -0.232413810880000    -0.125223322920000    -0.083403903560000
2 33
    -1.448565035200000     0.638219498750000     1.466437883640000
    -0.721523831120000     1.346787184280000     0.710177399750000
     1.463583469490000    -0.622417226600000    -1.389280060410000
2 34
    -1.531289116160000     0.737321418980000    -1.618618454740000
    -0.707273860610000     1.392528555470000    -0.694711795930000
    -1.648106060290000     0.779377214820000    -1.596152359680000
2 35
    -0.082479056560000     0.039218557420000    -0.073567495110000
    -0.039669330250000     0.051650542970000     0.039691190270000
    -0.068873596310000    -0.037524405870000    -0.085340437090000
2 36
    -0.083017509690000     0.036047293090000     0.080010916170000
    -0.034560091070000     0.058111500090000    -0.030799086640000
     0.078569596170000     0.041249857740000    -0.079690702910000
2 37
    -1.531289116160000    -0.707273860610000    -1.648106060290000
     0.737321418980000     1.392528555470000     0.779377214820000
    -1.618618454740000    -0.694711795930000    -1.596152359680000
2 38
    -1.448565035200000    -0.721523831120000     1.463583469490000
     0.638219498750000     1.346787184280000    -0.622417226600000
     1.466437883640000     0.710177399750000    -1.389280060410000
2 39
    -0.083017509690000    -0.034560091070000     0.078569596170000
     0.036047293090000     0.058111500090000     0.041249857740000
     0.080010916170000    -0.030799086640000    -0.079690702910000
2 40
    -0.082479056560000    -0.039669330250000    -0.068873596310000
     0.039218557420000     0.051650542970000    -0.037524405870000
    -0.073567495110000     0.039691190270000    -0.085340437090000
2 41
    -0.111753707080000    -0.125692592690000     0.210675582420000
    -0.125692592690000    -0.116782472560000     0.214932040600000
     0.210675582420000     0.214932040600000    -0.354819233090000
2 42
     0.140241877320000    -0.098917791600000    -0.035919856380000
    -0.098917791600000     0.074347849780000     0.103422637260000
    -0.035919856380000     0.103422637260000     0.169074883370000
2 43
     0.078330096830000    -0.100156245810000     0.104120356250000
    -0.100156245810000     0.136259510160000    -0.033844235470000
     0.104120356250000    -0.033844235470000     0.169074883370000
2 44
    -8.508250086500000    -1.483152030910000     1.468433751510000
    -1.483152030910000    -8.567586948810000     1.498101882390000
     1.468433751510000     1.498101882390000    -8.473859110309998
2 45
     0.030550699160000    -0.034596844730000     0.028902429630000
    -0.034596844730000     0.029166551520000     0.029486404450000
     0.028902429630000     0.029486404450000     0.036989796260000
2 46
    -0.336978093690000    -0.211600789750000     0.194413168860000
    -0.211600789750000    -0.072482541480000     0.082870014610000
     0.194413168860000     0.082870014610000    -0.061322160500000
2 47
    -0.064126008340000    -0.206142631020000     0.078965238510000
    -0.206142631020000    -0.345334626830000     0.196031771220000
     0.078965238510000     0.196031771220000    -0.061322160500000
2 48
     0.155179717800000     0.004846198280000     0.082853439430000
     0.004846198280000     0.155373695450000     0.084527412500000
     0.082853439430000     0.084527412500000     0.045343326650000
2 49
    -1.531289116160000    -1.633328686770000    -0.740761369380000
    -1.633328566660000    -1.596634961660000    -0.755727555820000
     0.704135025980000     0.718361334820000     1.393011397670000
2 50
    -1.448565035200000     1.478003515760000    -0.691504738820000
     1.453107595400000    -1.389931056610000     0.654314599080000
     0.668013745130000    -0.678280027270000     1.347438300590000
2 51
    -1.448565035200000     1.453107595400000     0.668013745130000
     1.478003515760000    -1.389931056610000    -0.678280027270000
    -0.691504738820000     0.654314599080000     1.347438300590000
2 52
    -1.531289116160000    -1.633328566660000     0.704135025980000
    -1.633328686770000    -1.596634961660000     0.718361334820000
    -0.740761369380000    -0.755727555820000     1.393011397670000
2 53
    -0.083017509690000     0.079258547130000    -0.032949415970000
     0.079258547130000    -0.079846485580000    -0.033615185700000
     0.037672621610000     0.038433758680000     0.058267282760000
2 54
    -0.082479056560000    -0.068049641710000    -0.041066569880000
    -0.074352654180000    -0.085327585320000     0.036895149580000
     0.037709014940000    -0.040320566670000     0.051637691200000
2 55
    -0.082479056560000    -0.074352654180000     0.037709014940000
    -0.068049641710000    -0.085327585320000    -0.040320566670000
    -0.041066569880000     0.036895149580000     0.051637691200000
2 56
    -0.083017509690000     0.079258547130000     0.037672621610000
     0.079258547130000    -0.079846485580000     0.038433758680000
    -0.032949415970000    -0.033615185700000     0.058267282760000
2 57
     0.078330096830000     0.106142648320000    -0.098010480660000
     0.106142648320000     0.170442335720000    -0.033146516480000
    -0.098010480660000    -0.033146516480000     0.134892057810000
2 58
    -8.508250086500000     1.498396272000000    -1.452875302660000
     1.498396272000000    -8.535031493640000     1.498766330910000
    -1.452875302660000     1.498766330910000    -8.506414445370000
2 59
    -0.064126008340000     0.083155756300000    -0.204488235880000
     0.083155756300000    -0.069440035070000     0.201663368790000
    -0.204488235880000     0.201663368790000    -0.337216752260000
2 60
     0.155179717800000     0.082737293060000     0.006536025870000
     0.082737293060000     0.041939769580000     0.082212052030000
     0.006536025870000     0.082212052030000     0.158777132410000
2 61
    -0.111753707080000     0.213196811430000    -0.121366951150000
     0.213196811430000    -0.363490934870000     0.209896188630000
    -0.121366951150000     0.209896188630000    -0.108110650670000
2 62
     0.140241877320000    -0.033893720790000    -0.099630284120000
    -0.033893720790000     0.164815062110000     0.105269208400000
    -0.099630284120000     0.105269208400000     0.078607791150000
2 63
     0.030550699160000     0.029602550820000    -0.033999898030000
     0.029602550820000     0.035783291310000     0.029621408090000
    -0.033999898030000     0.029621408090000     0.030373056470000
2 64
    -0.336978093690000     0.198691126730000    -0.207589115750000
     0.198691126730000    -0.064708541840000     0.083028679920000
    -0.207589115750000     0.083028679920000    -0.069096160140000
3 1
    -0.092816203600000     0.002831953580000     0.000265082770000
     0.002831953580000    -0.161539902630000     0.001491045540000
     0.000265082770000     0.001491045540000    -0.092718434060000
3 2
    -0.113717145250000    -0.011483957320000    -0.002235126990000
    -0.011483957320000    -0.114176566000000    -0.002280288350000
    -0.002235126990000    -0.002280288350000     0.566473832120000
3 3
    42.773360004749996     1.942450869260000     1.982505512390000
     1.942450869260000    42.851068892659995     2.022560635960000
     1.982505512390000     2.022560635960000    42.933642475789995
3 4
    -0.161625661170000     0.001455492980000     0.001485520480000
     0.001455492980000    -0.092730445060000     0.000294870050000
     0.001485520480000     0.000294870050000    -0.092718434060000
3 5
     0.566091401880000     0.011598542260000     0.011837801380000
     0.011598542260000    -0.113525089360000    -0.011292622090000
     0.011837801380000    -0.011292622090000    -0.113986071540000
3 6
    -0.051974119310000     0.002184560680000     0.002229601930000
     0.002184560680000    -0.051886679230000     0.002274643180000
     0.002229601930000     0.002274643180000    -0.051793834200000
3 7
    -0.092816203600000     0.000207309860000     0.002836757980000
     0.000207309860000    -0.092807916010000     0.002894050450000
     0.002836757980000     0.002894050450000    -0.161450420680000
3 8
    -0.113717145250000    -0.002000311940000    -0.011527076810000
    -0.002000311940000     0.566283337660000     0.011609472270000
    -0.011527076810000     0.011609472270000    -0.113986071540000
3 9
    -8.594945484500000     1.496662003710000     1.527524268210000
     1.496662003710000    -8.448336215750000    -1.422609504420000
     1.527524268210000    -1.422609504420000    -8.506414445370000
3 10
     0.038676260770000     0.080406798730000     0.082064797170000
     0.080406798730000     0.158443226610000     0.008178890450000
     0.082064797170000     0.008178890450000     0.158777132410000
3 11
     0.166160654440000     0.107899617400000    -0.031179715230000
     0.107899617400000     0.082611778110000    -0.098653789820000
    -0.031179715230000    -0.098653789820000     0.134892057810000
3 12
    -0.072763478770000     0.082982918010000     0.205712757330000
     0.082982918010000    -0.060802564640000    -0.200414104680000
     0.205712757330000    -0.200414104680000    -0.337216752260000
3 13
     0.166160654440000    -0.033375205920000     0.107240814050000
    -0.033375205920000     0.138896164880000    -0.097504937670000
     0.107240814050000    -0.097504937670000     0.078607791150000
3 14
    -0.072763478770000     0.203976447170000     0.087163947110000
     0.203976447170000    -0.328923156760000    -0.205887036940000
     0.087163947110000    -0.205887036940000    -0.069096160140000
3 15
    -0.371916411150000     0.207992565240000     0.212281453120000
     0.207992565240000    -0.103328230800000    -0.117144844430000
     0.212281453120000    -0.117144844430000    -0.108110650670000
3 16
     0.034597325170000     0.029683384850000     0.030295585520000
     0.029683384850000     0.031736665300000    -0.033400549130000
     0.030295585520000    -0.033400549130000     0.030373056470000
3 17
     1.390758374290000    -0.648821368230000    -0.662200541240000
     0.795773911360000    -1.529518694760000    -1.632188842870000
     0.812183339560000    -1.632188842870000    -1.596152359680000
3 18
     0.058025261110000    -0.031738707170000    -0.032393186560000
     0.038868676990000    -0.082931270710000     0.079378897350000