       N       E                     dE             d eps       ncg     rms          rms(c)
DAV:   1     0.506030308502E+03    0.50603E+03   -0.11345E+05 12288   0.106E+03
DAV:   2    -0.558535330852E+03   -0.10646E+04   -0.10142E+04 16032   0.231E+02
DAV:   3    -0.599901167392E+03   -0.41366E+02   -0.41113E+02 16384   0.427E+01
DAV:   4    -0.600360044930E+03   -0.45888E+00   -0.45793E+00 16512   0.492E+00
DAV:   5    -0.600368863464E+03   -0.88185E-02   -0.88149E-02 15264   0.636E-01    0.263E+01
DAV:   6    -0.585934963902E+03    0.14434E+02   -0.95992E+00 14432   0.622E+00    0.145E+01
DAV:   7    -0.581064195878E+03    0.48708E+01   -0.11060E+01 15200   0.688E+00    0.195E+00
DAV:   8    -0.581124416508E+03   -0.60221E-01   -0.26834E-01 15264   0.104E+00    0.214E-01
DAV:   9    -0.581126631334E+03   -0.22148E-02   -0.38512E-03 16096   0.149E-01    0.836E-02
DAV:  10    -0.581127099456E+03   -0.46812E-03   -0.38526E-04 14528   0.516E-02    0.912E-03
DAV:  11    -0.581127109868E+03   -0.10411E-04   -0.13113E-05 16128   0.887E-03    0.278E-03
DAV:  12    -0.581127109940E+03   -0.72265E-07   -0.39485E-07 15936   0.151E-03    0.481E-04
DAV:  13    -0.581127110017E+03   -0.77232E-07   -0.11185E-08 12576   0.269E-04    0.172E-04
DAV:  14    -0.581127110042E+03   -0.24464E-07   -0.27143E-09 10752   0.155E-04    0.111E-04
DAV:  15    -0.581127110048E+03   -0.63192E-08   -0.37240E-10  9504   0.468E-05
   1 F= -.58112711E+03 E0= -.58112711E+03  d E =-.568685E-14
 Linear response reoptimize wavefunctions
DAV:   1    -0.581127110046E+03    0.18854E-08   -0.55676E-11  9216   0.194E-05
DAV:   2    -0.581127110046E+03   -0.27376E-09   -0.57541E-12  9216   0.896E-06
DAV:   3    -0.581127110046E+03    0.18372E-09    0.42751E-13  9216   0.431E-06
 Linear response DOF=           1
 Linear response progress:
  Degree of freedom:   1/  1
       N       E                     dE             d eps       ncg     rms          rms(c)
RMM:   1    -0.145035212960E+00   -0.14504E+00    0.37733E-03 73290   0.735E-01
RMM:   2    -0.123486739405E+00    0.21548E-01   -0.71653E-03 44346   0.191E-01    0.177E-01
RMM:   3    -0.123344507087E+00    0.14223E-03   -0.87901E-04 46663   0.499E-02    0.901E-02
RMM:   4    -0.123600447015E+00   -0.25594E-03   -0.23949E-04 46853   0.272E-02    0.274E-02
RMM:   5    -0.123681815443E+00   -0.81368E-04   -0.16292E-05 47423   0.766E-03    0.655E-03
RMM:   6    -0.123664841559E+00    0.16974E-04   -0.29000E-06 48042   0.197E-03    0.136E-03
RMM:   7    -0.123656585156E+00    0.82564E-05   -0.36450E-06 48835   0.622E-04    0.382E-04
RMM:   8    -0.123656140870E+00    0.44429E-06   -0.43220E-06 50323   0.269E-04    0.867E-05
RMM:   9    -0.123655899387E+00    0.24148E-06   -0.41653E-06 52704   0.170E-04    0.376E-05
RMM:  10    -0.123656015601E+00   -0.11621E-06   -0.46167E-06 54253   0.161E-04    0.115E-05
RMM:  11    -0.123656056703E+00   -0.41103E-07   -0.50004E-06 54760   0.157E-04    0.461E-06
 Linear response finished
