 vasp.5.4.4.18Apr17-6-g9f103f2a35 (build Mar 12 2022 03:36:41) complex          
  
 executed on IFC19.0.3.199_CrayMP date 2022.12.02  01:47:08
 running on   32 total cores
 distrk:  each k-point on   32 cores,    1 groups
 distr:  one band on NCORES_PER_BAND=   1 cores,   32 groups


--------------------------------------------------------------------------------------------------------


 INCAR:
 POTCAR:   PAW_PBE C 08Apr2002                    

 ----------------------------------------------------------------------------- 
|                                                                             |
|           W    W    AA    RRRRR   N    N  II  N    N   GGGG   !!!           |
|           W    W   A  A   R    R  NN   N  II  NN   N  G    G  !!!           |
|           W    W  A    A  R    R  N N  N  II  N N  N  G       !!!           |
|           W WW W  AAAAAA  RRRRR   N  N N  II  N  N N  G  GGG   !            |
|           WW  WW  A    A  R   R   N   NN  II  N   NN  G    G                |
|           W    W  A    A  R    R  N    N  II  N    N   GGGG   !!!           |
|                                                                             |
|      For optimal performance we recommend to set                            |
|        NCORE= 4 - approx SQRT( number of cores)                             |
|      NCORE specifies how many cores store one orbital (NPAR=cpu/NCORE).     |
|      This setting can  greatly improve the performance of VASP for DFT.     |
|      The default,   NCORE=1            might be grossly inefficient         |
|      on modern multi-core architectures or massively parallel machines.     |
|      Do your own testing !!!!                                               |
|      Unfortunately you need to use the default for GW and RPA calculations. |
|      (for HF NCORE is supported but not extensively tested yet)             |
|                                                                             |
 ----------------------------------------------------------------------------- 

 POTCAR:   PAW_PBE C 08Apr2002                    
   VRHFIN =C: s2p2                                                              
   LEXCH  = PE                                                                  
   EATOM  =   147.1560 eV,   10.8157 Ry                                         
                                                                                
   TITEL  = PAW_PBE C 08Apr2002                                                 
   LULTRA =        F    use ultrasoft PP ?                                      
   IUNSCR =        0    unscreen: 0-lin 1-nonlin 2-no                           
   RPACOR =     .000    partial core radius                                     
   POMASS =   12.011; ZVAL   =    4.000    mass and valenz                      
   RCORE  =    1.500    outmost cutoff radius                                   
   RWIGS  =    1.630; RWIGS  =     .863    wigner-seitz radius (au A)           
   ENMAX  =  400.000; ENMIN  =  300.000 eV                                      
   ICORE  =        2    local potential                                         
   LCOR   =        T    correct aug charges                                     
   LPAW   =        T    paw PP                                                  
   EAUG   =  644.873                                                            
   DEXC   =     .000                                                            
   RMAX   =    2.266    core radius for proj-oper                               
   RAUG   =    1.300    factor for augmentation sphere                          
   RDEP   =    1.501    radius for radial grids                                 
   RDEPT  =    1.300    core radius for aug-charge                              
   QCUT   =   -5.516; QGAM   =   11.032    optimization parameters              
                                                                                
   Description                                                                  
     l     E      TYP  RCUT    TYP  RCUT                                        
     0   .000     23  1.200                                                     
     0   .000     23  1.200                                                     
     1   .000     23  1.500                                                     
     1  2.500     23  1.500                                                     
     2   .000      7  1.500                                                     
  local pseudopotential read in
  atomic valenz-charges read in
  non local Contribution for L=           0  read in
    real space projection operators read in
  non local Contribution for L=           0  read in
    real space projection operators read in
  non local Contribution for L=           1  read in
    real space projection operators read in
  non local Contribution for L=           1  read in
    real space projection operators read in
    PAW grid and wavefunctions read in
 
   number of l-projection  operators is LMAX  =           4
   number of lm-projection operators is LMMAX =           8
 

 ----------------------------------------------------------------------------- 
|                                                                             |
|  ADVICE TO THIS USER RUNNING 'VASP/VAMP'   (HEAR YOUR MASTER'S VOICE ...):  |
|                                                                             |
|      You have a (more or less) 'large supercell' and for larger cells       |
|      it might be more efficient to use real space projection operators      |
|      So try LREAL= Auto  in the INCAR   file.                               |
|      Mind: If you want to do a very accurate calculations keep the          |
|      reciprocal projection scheme          (i.e. LREAL=.FALSE.)             |
|                                                                             |
 ----------------------------------------------------------------------------- 

 PAW_PBE C 08Apr2002                    :
 energy of atom  1       EATOM= -147.1560
 kinetic energy error for atom=    0.0288 (will be added to EATOM!!)
 
 
 POSCAR: generated by phonopy                    
  positions in direct lattice
  No initial velocities read in
 exchange correlation table for  LEXCH =        8
   RHO(1)=    0.500       N(1)  =     2000
   RHO(2)=  100.500       N(2)  =     4000
 


--------------------------------------------------------------------------------------------------------


 ion  position               nearest neighbor table
   1  0.125  0.375  0.125-  25 1.52  43 1.56  57 1.56  11 1.56
   2  0.625  0.375  0.125-  26 1.52  44 1.56  58 1.56  12 1.56
   3  0.125  0.875  0.125-  27 1.52  41 1.56  59 1.56   9 1.56
   4  0.625  0.875  0.125-  28 1.52  42 1.56  60 1.56  10 1.56
   5  0.125  0.375  0.625-  29 1.52  47 1.56  61 1.56  15 1.56
   6  0.625  0.375  0.625-  30 1.52  48 1.56  62 1.56  16 1.56
   7  0.125  0.875  0.625-  31 1.52  45 1.56  63 1.56  13 1.56
   8  0.625  0.875  0.625-  32 1.52  46 1.56  64 1.56  14 1.56
   9  0.000  0.000  0.250-  17 1.52  36 1.56  50 1.56   3 1.56
  10  0.500  0.000  0.250-  18 1.52  35 1.56  49 1.56   4 1.56
  11  0.000  0.500  0.250-  19 1.52  34 1.56  52 1.56   1 1.56
  12  0.500  0.500  0.250-  20 1.52  33 1.56  51 1.56   2 1.56
  13  0.000  0.000  0.750-  21 1.52  40 1.56  54 1.56   7 1.56
  14  0.500  0.000  0.750-  22 1.52  39 1.56  53 1.56   8 1.56
  15  0.000  0.500  0.750-  23 1.52  38 1.56  56 1.56   5 1.56
  16  0.500  0.500  0.750-  24 1.52  37 1.56  55 1.56   6 1.56
  17  0.125  0.125  0.375-   9 1.52  45 1.56  57 1.56  29 1.56
  18  0.625  0.125  0.375-  10 1.52  46 1.56  58 1.56  30 1.56
  19  0.125  0.625  0.375-  11 1.52  47 1.56  59 1.56  31 1.56
  20  0.625  0.625  0.375-  12 1.52  48 1.56  60 1.56  32 1.56
  21  0.125  0.125  0.875-  13 1.52  41 1.56  61 1.56  25 1.56
  22  0.625  0.125  0.875-  14 1.52  42 1.56  62 1.56  26 1.56
  23  0.125  0.625  0.875-  15 1.52  43 1.56  63 1.56  27 1.56
  24  0.625  0.625  0.875-  16 1.52  44 1.56  64 1.56  28 1.56
  25  0.000  0.250  0.000-   1 1.52  38 1.56  50 1.56  21 1.56
  26  0.500  0.250  0.000-   2 1.52  37 1.56  49 1.56  22 1.56
  27  0.000  0.750  0.000-   3 1.52  40 1.56  52 1.56  23 1.56
  28  0.500  0.750  0.000-   4 1.52  39 1.56  51 1.56  24 1.56
  29  0.000  0.250  0.500-   5 1.52  34 1.56  54 1.56  17 1.56
  30  0.500  0.250  0.500-   6 1.52  33 1.56  53 1.56  18 1.56
  31  0.000  0.750  0.500-   7 1.52  36 1.56  56 1.56  19 1.56
  32  0.500  0.750  0.500-   8 1.52  35 1.56  55 1.56  20 1.56
  33  0.375  0.375  0.375-  57 1.52  30 1.56  12 1.56  47 1.56
  34  0.875  0.375  0.375-  58 1.52  29 1.56  11 1.56  48 1.56
  35  0.375  0.875  0.375-  59 1.52  32 1.56  10 1.56  45 1.56
  36  0.875  0.875  0.375-  60 1.52  31 1.56   9 1.56  46 1.56
  37  0.375  0.375  0.875-  61 1.52  26 1.56  16 1.56  43 1.56
  38  0.875  0.375  0.875-  62 1.52  25 1.56  15 1.56  44 1.56
  39  0.375  0.875  0.875-  63 1.52  28 1.56  14 1.56  41 1.56
  40  0.875  0.875  0.875-  64 1.52  27 1.56  13 1.56  42 1.56
  41  0.250  0.000  0.000-  49 1.52  21 1.56   3 1.56  39 1.56
  42  0.750  0.000  0.000-  50 1.52  22 1.56   4 1.56  40 1.56
  43  0.250  0.500  0.000-  51 1.52  23 1.56   1 1.56  37 1.56
  44  0.750  0.500  0.000-  52 1.52  24 1.56   2 1.56  38 1.56
  45  0.250  0.000  0.500-  53 1.52  17 1.56   7 1.56  35 1.56
  46  0.750  0.000  0.500-  54 1.52  18 1.56   8 1.56  36 1.56
  47  0.250  0.500  0.500-  55 1.52  19 1.56   5 1.56  33 1.56
  48  0.750  0.500  0.500-  56 1.52  20 1.56   6 1.56  34 1.56
  49  0.375  0.125  0.125-  41 1.52  26 1.56  10 1.56  57 1.56
  50  0.875  0.125  0.125-  42 1.52  25 1.56   9 1.56  58 1.56
  51  0.375  0.625  0.125-  43 1.52  28 1.56  12 1.56  59 1.56
  52  0.875  0.625  0.125-  44 1.52  27 1.56  11 1.56  60 1.56
  53  0.375  0.125  0.625-  45 1.52  30 1.56  14 1.56  61 1.56
  54  0.875  0.125  0.625-  46 1.52  29 1.56  13 1.56  62 1.56
  55  0.375  0.625  0.625-  47 1.52  32 1.56  16 1.56  63 1.56
  56  0.875  0.625  0.625-  48 1.52  31 1.56  15 1.56  64 1.56
  57  0.250  0.250  0.250-  33 1.52  17 1.56   1 1.56  49 1.56
  58  0.750  0.250  0.250-  34 1.52  18 1.56   2 1.56  50 1.56
  59  0.250  0.750  0.250-  35 1.52  19 1.56   3 1.56  51 1.56
  60  0.750  0.750  0.250-  36 1.52  20 1.56   4 1.56  52 1.56
  61  0.250  0.250  0.750-  37 1.52  21 1.56   5 1.56  53 1.56
  62  0.750  0.250  0.750-  38 1.52  22 1.56   6 1.56  54 1.56
  63  0.250  0.750  0.750-  39 1.52  23 1.56   7 1.56  55 1.56
  64  0.750  0.750  0.750-  40 1.52  24 1.56   8 1.56  56 1.56
 
  LATTYP: Found a trigonal (rhomboedric) cell.
 ALAT       =     7.1799983352
 COS(alpha) =    -0.0199999451
  
  Lattice vectors:
  
 A1 = (   7.1799987179,   0.0000000000,   0.0000000000)
 A2 = (  -0.1435995725,   7.1785621998,   0.0000000000)
 A3 = (  -0.1435995725,  -0.1465007364,   7.1770674174)


Analysis of symmetry for initial positions (statically):
=====================================================================
 Subroutine PRICEL returns following result:
 
  LATTYP: Found a trigonal (rhomboedric) cell.
 ALAT       =     2.5129995584
 COS(alpha) =     0.4795919048
  
  Lattice vectors:
  
 A1 = (  -0.0717997863,   1.7580153659,   1.7942668543)
 A2 = (   1.7590997863,  -0.0366251841,   1.7942668543)
 A3 = (   1.7590997863,   1.7946405500,   0.0000000000)
 
  32 primitive cells build up your supercell.
 

 Routine SETGRP: Setting up the symmetry group for a 
 trigonal (rhombohedral) supercell.


 Subroutine GETGRP returns: Found 12 space group operations
 (whereof  6 operations were pure point group operations)
 out of a pool of 12 trial point group operations.


The static configuration has the point symmetry C_3v.
 The point group associated with its full space group is D_3d.


Analysis of symmetry for dynamics (positions and initial velocities):
=====================================================================
 Subroutine PRICEL returns following result:
 
  LATTYP: Found a trigonal (rhomboedric) cell.
 ALAT       =     2.5129995584
 COS(alpha) =     0.4795919048
  
  Lattice vectors:
  
 A1 = (  -0.0717997863,   1.7580153659,   1.7942668543)
 A2 = (   1.7590997863,  -0.0366251841,   1.7942668543)
 A3 = (   1.7590997863,   1.7946405500,   0.0000000000)
 
  32 primitive cells build up your supercell.
 

 Routine SETGRP: Setting up the symmetry group for a 
 trigonal (rhombohedral) supercell.


 Subroutine GETGRP returns: Found 12 space group operations
 (whereof  6 operations were pure point group operations)
 out of a pool of 12 trial point group operations.


The dynamic configuration has the point symmetry C_3v.
 The point group associated with its full space group is D_3d.


 Subroutine INISYM returns: Found 12 space group operations
 (whereof  6 operations are pure point group operations),
 and found    32 'primitive' translations

 
 
 KPOINTS: kpt_density=3000                        

Automatic generation of k-mesh.
Space group operators:
 irot       det(A)        alpha          n_x          n_y          n_z        tau_x        tau_y        tau_z
    1     1.000000     0.000000     1.000000     0.000000     0.000000     0.000000     0.000000     0.000000
    2    -1.000000   179.999999     0.000000    -0.714286     0.699854     0.000000     0.000000     0.000000
    3     1.000000   120.000000    -0.565685    -0.577115    -0.589015     0.000000     0.000000     0.000000
    4    -1.000000   180.000000    -0.714143     0.700000    -0.000000     0.000000     0.000000     0.000000
    5     1.000000   120.000000     0.565685     0.577115     0.589015     0.000000     0.000000     0.000000
    6    -1.000000   180.000000     0.714143     0.014286    -0.699854     0.000000     0.000000     0.000000
    7    -1.000000     0.000000     1.000000     0.000000     0.000000     0.125000     0.125000     0.125000
    8     1.000000   179.999999     0.000000    -0.714286     0.699854     0.125000     0.125000     0.125000
    9    -1.000000   120.000000    -0.565685    -0.577115    -0.589015     0.125000     0.125000     0.125000
   10     1.000000   180.000000    -0.714143     0.700000    -0.000000     0.125000     0.125000     0.125000
   11    -1.000000   120.000000     0.565685     0.577115     0.589015     0.125000     0.125000     0.125000
   12     1.000000   180.000000     0.714143     0.014286    -0.699854     0.125000     0.125000     0.125000
 
 Subroutine IBZKPT returns following result:
 ===========================================
 
 Found     32 irreducible k-points:
 
 Following reciprocal coordinates:
            Coordinates               Weight
  0.000000  0.000000  0.000000      1.000000
  0.166667  0.000000 -0.000000      6.000000
  0.333333  0.000000 -0.000000      6.000000
  0.500000  0.000000 -0.000000      3.000000
  0.166667  0.166667 -0.000000      6.000000
  0.333333  0.166667  0.000000     12.000000
  0.500000  0.166667 -0.000000     12.000000
 -0.333333  0.166667  0.000000     12.000000
 -0.166667  0.166667  0.000000      6.000000
  0.333333  0.333333 -0.000000      6.000000
  0.500000  0.333333  0.000000     12.000000
 -0.333333  0.333333 -0.000000      6.000000
  0.500000  0.500000  0.000000      3.000000
  0.166667  0.166667  0.166667      2.000000
  0.333333  0.166667  0.166667      6.000000
  0.500000  0.166667  0.166667      6.000000
 -0.333333  0.166667  0.166667      6.000000
 -0.166667  0.166667  0.166667      6.000000
  0.333333  0.333333  0.166667      6.000000
  0.500000  0.333333  0.166667     12.000000
 -0.333333  0.333333  0.166667     12.000000
 -0.166667  0.333333  0.166667     12.000000
  0.500000  0.500000  0.166667      6.000000
 -0.333333  0.500000  0.166667     12.000000
 -0.166667  0.500000  0.166667      6.000000
 -0.333333 -0.333333  0.166667      6.000000
  0.333333  0.333333  0.333333      2.000000
  0.500000  0.333333  0.333333      6.000000
 -0.333333  0.333333  0.333333      6.000000
  0.500000  0.500000  0.333333      6.000000
 -0.333333  0.500000  0.333333      6.000000
  0.500000  0.500000  0.500000      1.000000
 
 Following cartesian coordinates:
            Coordinates               Weight
  0.000000  0.000000  0.000000      1.000000
  0.023213  0.000464  0.000474      6.000000
  0.046425  0.000929  0.000948      6.000000
  0.069638  0.001393  0.001422      3.000000
  0.023213  0.023682  0.000948      6.000000
  0.046425  0.024146  0.001422     12.000000
  0.069638  0.024610  0.001896     12.000000
 -0.046425  0.022289 -0.000474     12.000000
 -0.023213  0.022753 -0.000000      6.000000
  0.046425  0.047363  0.001896      6.000000
  0.069638  0.047828  0.002370     12.000000
 -0.046425  0.045506 -0.000000      6.000000
  0.069638  0.071045  0.002844      3.000000
  0.023213  0.023682  0.024170      2.000000
  0.046425  0.024146  0.024644      6.000000
  0.069638  0.024610  0.025118      6.000000
 -0.046425  0.022289  0.022748      6.000000
 -0.023213  0.022753  0.023222      6.000000
  0.046425  0.047363  0.025118      6.000000
  0.069638  0.047828  0.025592     12.000000
 -0.046425  0.045506  0.023222     12.000000
 -0.023213  0.045970  0.023696     12.000000
  0.069638  0.071045  0.026066      6.000000
 -0.046425  0.068723  0.023696     12.000000
 -0.023213  0.069187  0.024170      6.000000
 -0.046425 -0.047363  0.021326      6.000000
  0.046425  0.047363  0.048340      2.000000
  0.069638  0.047828  0.048814      6.000000
 -0.046425  0.045506  0.046444      6.000000
  0.069638  0.071045  0.049288      6.000000
 -0.046425  0.068723  0.046918      6.000000
  0.069638  0.071045  0.072510      1.000000
 
 
 Subroutine IBZKPT_HF returns following result:
 ==============================================
 
 Found    216 k-points in 1st BZ
 the following    216 k-points will be used (e.g. in the exchange kernel)
 Following reciprocal coordinates:   # in IRBZ
  0.000000  0.000000  0.000000    0.00462963   1 t-inv F
  0.166667  0.000000 -0.000000    0.00462963   2 t-inv F
  0.333333  0.000000 -0.000000    0.00462963   3 t-inv F
  0.500000  0.000000 -0.000000    0.00462963   4 t-inv F
  0.166667  0.166667 -0.000000    0.00462963   5 t-inv F
  0.333333  0.166667  0.000000    0.00462963   6 t-inv F
  0.500000  0.166667 -0.000000    0.00462963   7 t-inv F
 -0.333333  0.166667  0.000000    0.00462963   8 t-inv F
 -0.166667  0.166667  0.000000    0.00462963   9 t-inv F
  0.333333  0.333333 -0.000000    0.00462963  10 t-inv F
  0.500000  0.333333  0.000000    0.00462963  11 t-inv F
 -0.333333  0.333333 -0.000000    0.00462963  12 t-inv F
  0.500000  0.500000  0.000000    0.00462963  13 t-inv F
  0.166667  0.166667  0.166667    0.00462963  14 t-inv F
  0.333333  0.166667  0.166667    0.00462963  15 t-inv F
  0.500000  0.166667  0.166667    0.00462963  16 t-inv F
 -0.333333  0.166667  0.166667    0.00462963  17 t-inv F
 -0.166667  0.166667  0.166667    0.00462963  18 t-inv F
  0.333333  0.333333  0.166667    0.00462963  19 t-inv F
  0.500000  0.333333  0.166667    0.00462963  20 t-inv F
 -0.333333  0.333333  0.166667    0.00462963  21 t-inv F
 -0.166667  0.333333  0.166667    0.00462963  22 t-inv F
  0.500000  0.500000  0.166667    0.00462963  23 t-inv F
 -0.333333  0.500000  0.166667    0.00462963  24 t-inv F
 -0.166667  0.500000  0.166667    0.00462963  25 t-inv F
 -0.333333 -0.333333  0.166667    0.00462963  26 t-inv F
  0.333333  0.333333  0.333333    0.00462963  27 t-inv F
  0.500000  0.333333  0.333333    0.00462963  28 t-inv F
 -0.333333  0.333333  0.333333    0.00462963  29 t-inv F
  0.500000  0.500000  0.333333    0.00462963  30 t-inv F
 -0.333333  0.500000  0.333333    0.00462963  31 t-inv F
  0.500000  0.500000  0.500000    0.00462963  32 t-inv F
 -0.000000  0.166667  0.000000    0.00462963   2 t-inv F
  0.000000 -0.000000  0.166667    0.00462963   2 t-inv F
 -0.166667 -0.000000  0.000000    0.00462963   2 t-inv F
  0.000000 -0.166667 -0.000000    0.00462963   2 t-inv F
 -0.000000  0.000000 -0.166667    0.00462963   2 t-inv F
 -0.000000  0.333333  0.000000    0.00462963   3 t-inv F
  0.000000 -0.000000  0.333333    0.00462963   3 t-inv F
 -0.333333 -0.000000  0.000000    0.00462963   3 t-inv F
  0.000000 -0.333333 -0.000000    0.00462963   3 t-inv F
 -0.000000  0.000000 -0.333333    0.00462963   3 t-inv F
 -0.000000  0.500000  0.000000    0.00462963   4 t-inv F
  0.000000 -0.000000  0.500000    0.00462963   4 t-inv F
  0.166667 -0.000000  0.166667    0.00462963   5 t-inv F
 -0.000000  0.166667  0.166667    0.00462963   5 t-inv F
 -0.166667 -0.166667  0.000000    0.00462963   5 t-inv F
 -0.166667  0.000000 -0.166667    0.00462963   5 t-inv F
  0.000000 -0.166667 -0.166667    0.00462963   5 t-inv F
  0.333333  0.000000  0.166667    0.00462963   6 t-inv F
  0.000000  0.333333  0.166667    0.00462963   6 t-inv F
  0.166667  0.333333  0.000000    0.00462963   6 t-inv F
  0.166667  0.000000  0.333333    0.00462963   6 t-inv F
  0.000000  0.166667  0.333333    0.00462963   6 t-inv F
 -0.333333 -0.166667 -0.000000    0.00462963   6 t-inv F
 -0.333333 -0.000000 -0.166667    0.00462963   6 t-inv F
 -0.000000 -0.333333 -0.166667    0.00462963   6 t-inv F
 -0.166667 -0.333333 -0.000000    0.00462963   6 t-inv F
 -0.166667 -0.000000 -0.333333    0.00462963   6 t-inv F
 -0.000000 -0.166667 -0.333333    0.00462963   6 t-inv F
  0.500000 -0.000000  0.166667    0.00462963   7 t-inv F
 -0.000000  0.500000  0.166667    0.00462963   7 t-inv F
  0.166667  0.500000 -0.000000    0.00462963   7 t-inv F
  0.166667 -0.000000  0.500000    0.00462963   7 t-inv F
 -0.000000  0.166667  0.500000    0.00462963   7 t-inv F
 -0.500000 -0.166667  0.000000    0.00462963   7 t-inv F
 -0.500000  0.000000 -0.166667    0.00462963   7 t-inv F
  0.000000 -0.500000 -0.166667    0.00462963   7 t-inv F
 -0.166667 -0.500000  0.000000    0.00462963   7 t-inv F
 -0.166667  0.000000 -0.500000    0.00462963   7 t-inv F
  0.000000 -0.166667 -0.500000    0.00462963   7 t-inv F
 -0.333333  0.000000  0.166667    0.00462963   8 t-inv F
  0.000000 -0.333333  0.166667    0.00462963   8 t-inv F
  0.166667 -0.333333  0.000000    0.00462963   8 t-inv F
  0.166667  0.000000 -0.333333    0.00462963   8 t-inv F
  0.000000  0.166667 -0.333333    0.00462963   8 t-inv F
  0.333333 -0.166667 -0.000000    0.00462963   8 t-inv F
  0.333333 -0.000000 -0.166667    0.00462963   8 t-inv F
 -0.000000  0.333333 -0.166667    0.00462963   8 t-inv F
 -0.166667  0.333333 -0.000000    0.00462963   8 t-inv F
 -0.166667 -0.000000  0.333333    0.00462963   8 t-inv F
 -0.000000 -0.166667  0.333333    0.00462963   8 t-inv F
 -0.166667  0.000000  0.166667    0.00462963   9 t-inv F
  0.000000 -0.166667  0.166667    0.00462963   9 t-inv F
  0.166667 -0.166667  0.000000    0.00462963   9 t-inv F
  0.166667  0.000000 -0.166667    0.00462963   9 t-inv F
  0.000000  0.166667 -0.166667    0.00462963   9 t-inv F
  0.333333 -0.000000  0.333333    0.00462963  10 t-inv F
 -0.000000  0.333333  0.333333    0.00462963  10 t-inv F
 -0.333333 -0.333333  0.000000    0.00462963  10 t-inv F
 -0.333333  0.000000 -0.333333    0.00462963  10 t-inv F
  0.000000 -0.333333 -0.333333    0.00462963  10 t-inv F
  0.500000  0.000000  0.333333    0.00462963  11 t-inv F
  0.000000  0.500000  0.333333    0.00462963  11 t-inv F
  0.333333  0.500000  0.000000    0.00462963  11 t-inv F
  0.333333  0.000000  0.500000    0.00462963  11 t-inv F
  0.000000  0.333333  0.500000    0.00462963  11 t-inv F
 -0.500000 -0.333333 -0.000000    0.00462963  11 t-inv F
 -0.500000 -0.000000 -0.333333    0.00462963  11 t-inv F
 -0.000000 -0.500000 -0.333333    0.00462963  11 t-inv F
 -0.333333 -0.500000 -0.000000    0.00462963  11 t-inv F
 -0.333333 -0.000000 -0.500000    0.00462963  11 t-inv F
 -0.000000 -0.333333 -0.500000    0.00462963  11 t-inv F
 -0.333333 -0.000000  0.333333    0.00462963  12 t-inv F
 -0.000000 -0.333333  0.333333    0.00462963  12 t-inv F
  0.333333 -0.333333 -0.000000    0.00462963  12 t-inv F
  0.333333 -0.000000 -0.333333    0.00462963  12 t-inv F
 -0.000000  0.333333 -0.333333    0.00462963  12 t-inv F
  0.500000  0.000000  0.500000    0.00462963  13 t-inv F
  0.000000  0.500000  0.500000    0.00462963  13 t-inv F
 -0.166667 -0.166667 -0.166667    0.00462963  14 t-inv F
  0.166667  0.333333  0.166667    0.00462963  15 t-inv F
  0.166667  0.166667  0.333333    0.00462963  15 t-inv F
 -0.333333 -0.166667 -0.166667    0.00462963  15 t-inv F
 -0.166667 -0.333333 -0.166667    0.00462963  15 t-inv F
 -0.166667 -0.166667 -0.333333    0.00462963  15 t-inv F
  0.166667  0.500000  0.166667    0.00462963  16 t-inv F
  0.166667  0.166667  0.500000    0.00462963  16 t-inv F
 -0.500000 -0.166667 -0.166667    0.00462963  16 t-inv F
 -0.166667 -0.500000 -0.166667    0.00462963  16 t-inv F
 -0.166667 -0.166667 -0.500000    0.00462963  16 t-inv F
  0.166667 -0.333333  0.166667    0.00462963  17 t-inv F
  0.166667  0.166667 -0.333333    0.00462963  17 t-inv F
  0.333333 -0.166667 -0.166667    0.00462963  17 t-inv F
 -0.166667  0.333333 -0.166667    0.00462963  17 t-inv F
 -0.166667 -0.166667  0.333333    0.00462963  17 t-inv F
  0.166667 -0.166667  0.166667    0.00462963  18 t-inv F
  0.166667  0.166667 -0.166667    0.00462963  18 t-inv F
  0.166667 -0.166667 -0.166667    0.00462963  18 t-inv F
 -0.166667  0.166667 -0.166667    0.00462963  18 t-inv F
 -0.166667 -0.166667  0.166667    0.00462963  18 t-inv F
  0.333333  0.166667  0.333333    0.00462963  19 t-inv F
  0.166667  0.333333  0.333333    0.00462963  19 t-inv F
 -0.333333 -0.333333 -0.166667    0.00462963  19 t-inv F
 -0.333333 -0.166667 -0.333333    0.00462963  19 t-inv F
 -0.166667 -0.333333 -0.333333    0.00462963  19 t-inv F
  0.500000  0.166667  0.333333    0.00462963  20 t-inv F
  0.166667  0.500000  0.333333    0.00462963  20 t-inv F
  0.333333  0.500000  0.166667    0.00462963  20 t-inv F
  0.333333  0.166667  0.500000    0.00462963  20 t-inv F
  0.166667  0.333333  0.500000    0.00462963  20 t-inv F
 -0.500000 -0.333333 -0.166667    0.00462963  20 t-inv F
 -0.500000 -0.166667 -0.333333    0.00462963  20 t-inv F
 -0.166667 -0.500000 -0.333333    0.00462963  20 t-inv F
 -0.333333 -0.500000 -0.166667    0.00462963  20 t-inv F
 -0.333333 -0.166667 -0.500000    0.00462963  20 t-inv F
 -0.166667 -0.333333 -0.500000    0.00462963  20 t-inv F
 -0.333333  0.166667  0.333333    0.00462963  21 t-inv F
  0.166667 -0.333333  0.333333    0.00462963  21 t-inv F
  0.333333 -0.333333  0.166667    0.00462963  21 t-inv F
  0.333333  0.166667 -0.333333    0.00462963  21 t-inv F
  0.166667  0.333333 -0.333333    0.00462963  21 t-inv F
  0.333333 -0.333333 -0.166667    0.00462963  21 t-inv F
  0.333333 -0.166667 -0.333333    0.00462963  21 t-inv F
 -0.166667  0.333333 -0.333333    0.00462963  21 t-inv F
 -0.333333  0.333333 -0.166667    0.00462963  21 t-inv F
 -0.333333 -0.166667  0.333333    0.00462963  21 t-inv F
 -0.166667 -0.333333  0.333333    0.00462963  21 t-inv F
 -0.166667  0.166667  0.333333    0.00462963  22 t-inv F
  0.166667 -0.166667  0.333333    0.00462963  22 t-inv F
  0.333333 -0.166667  0.166667    0.00462963  22 t-inv F
  0.333333  0.166667 -0.166667    0.00462963  22 t-inv F
  0.166667  0.333333 -0.166667    0.00462963  22 t-inv F
  0.166667 -0.333333 -0.166667    0.00462963  22 t-inv F
  0.166667 -0.166667 -0.333333    0.00462963  22 t-inv F
 -0.166667  0.166667 -0.333333    0.00462963  22 t-inv F
 -0.333333  0.166667 -0.166667    0.00462963  22 t-inv F
 -0.333333 -0.166667  0.166667    0.00462963  22 t-inv F
 -0.166667 -0.333333  0.166667    0.00462963  22 t-inv F
  0.500000  0.166667  0.500000    0.00462963  23 t-inv F
  0.166667  0.500000  0.500000    0.00462963  23 t-inv F
 -0.500000 -0.500000 -0.166667    0.00462963  23 t-inv F
 -0.500000 -0.166667 -0.500000    0.00462963  23 t-inv F
 -0.166667 -0.500000 -0.500000    0.00462963  23 t-inv F
 -0.333333  0.166667  0.500000    0.00462963  24 t-inv F
  0.166667 -0.333333  0.500000    0.00462963  24 t-inv F
  0.500000 -0.333333  0.166667    0.00462963  24 t-inv F
  0.500000  0.166667 -0.333333    0.00462963  24 t-inv F
  0.166667  0.500000 -0.333333    0.00462963  24 t-inv F
  0.333333 -0.500000 -0.166667    0.00462963  24 t-inv F
  0.333333 -0.166667 -0.500000    0.00462963  24 t-inv F
 -0.166667  0.333333 -0.500000    0.00462963  24 t-inv F
 -0.500000  0.333333 -0.166667    0.00462963  24 t-inv F
 -0.500000 -0.166667  0.333333    0.00462963  24 t-inv F
 -0.166667 -0.500000  0.333333    0.00462963  24 t-inv F
 -0.166667  0.166667  0.500000    0.00462963  25 t-inv F
  0.166667 -0.166667  0.500000    0.00462963  25 t-inv F
  0.500000 -0.166667  0.166667    0.00462963  25 t-inv F
  0.500000  0.166667 -0.166667    0.00462963  25 t-inv F
  0.166667  0.500000 -0.166667    0.00462963  25 t-inv F
 -0.333333  0.166667 -0.333333    0.00462963  26 t-inv F
  0.166667 -0.333333 -0.333333    0.00462963  26 t-inv F
  0.333333  0.333333 -0.166667    0.00462963  26 t-inv F
  0.333333 -0.166667  0.333333    0.00462963  26 t-inv F
 -0.166667  0.333333  0.333333    0.00462963  26 t-inv F
 -0.333333 -0.333333 -0.333333    0.00462963  27 t-inv F
  0.333333  0.500000  0.333333    0.00462963  28 t-inv F
  0.333333  0.333333  0.500000    0.00462963  28 t-inv F
 -0.500000 -0.333333 -0.333333    0.00462963  28 t-inv F
 -0.333333 -0.500000 -0.333333    0.00462963  28 t-inv F
 -0.333333 -0.333333 -0.500000    0.00462963  28 t-inv F
  0.333333 -0.333333  0.333333    0.00462963  29 t-inv F
  0.333333  0.333333 -0.333333    0.00462963  29 t-inv F
  0.333333 -0.333333 -0.333333    0.00462963  29 t-inv F
 -0.333333  0.333333 -0.333333    0.00462963  29 t-inv F
 -0.333333 -0.333333  0.333333    0.00462963  29 t-inv F
  0.500000  0.333333  0.500000    0.00462963  30 t-inv F
  0.333333  0.500000  0.500000    0.00462963  30 t-inv F
 -0.500000 -0.500000 -0.333333    0.00462963  30 t-inv F
 -0.500000 -0.333333 -0.500000    0.00462963  30 t-inv F
 -0.333333 -0.500000 -0.500000    0.00462963  30 t-inv F
 -0.333333  0.333333  0.500000    0.00462963  31 t-inv F
  0.333333 -0.333333  0.500000    0.00462963  31 t-inv F
  0.500000 -0.333333  0.333333    0.00462963  31 t-inv F
  0.500000  0.333333 -0.333333    0.00462963  31 t-inv F
  0.333333  0.500000 -0.333333    0.00462963  31 t-inv F


--------------------------------------------------------------------------------------------------------




 Dimension of arrays:
   k-points           NKPTS =     32   k-points in BZ     NKDIM =     32   number of bands    NBANDS=    192
   number of dos      NEDOS =    301   number of ions     NIONS =     64
   non local maximal  LDIM  =      4   non local SUM 2l+1 LMDIM =      8
   total plane-waves  NPLWV = 110592
   max r-space proj   IRMAX =      1   max aug-charges    IRDMAX=  28420
   dimension x,y,z NGX =    48 NGY =   48 NGZ =   48
   dimension x,y,z NGXF=    96 NGYF=   96 NGZF=   96
   support grid    NGXF=   192 NGYF=  192 NGZF=  192
   ions per type =              64
   NGX,Y,Z   is equivalent  to a cutoff of  11.11, 11.11, 11.11 a.u.
   NGXF,Y,Z  is equivalent  to a cutoff of  22.23, 22.23, 22.23 a.u.

 SYSTEM =  unknown system                          
 POSCAR =  generated by phonopy                    

 Startparameter for this run:
   NWRITE =      2    write-flag & timer
   PREC   = accura    normal or accurate (medium, high low for compatibility)
   ISTART =      0    job   : 0-new  1-cont  2-samecut
   ICHARG =      2    charge: 1-file 2-atom 10-const
   ISPIN  =      1    spin polarized calculation?
   LNONCOLLINEAR =      F non collinear calculations
   LSORBIT =      F    spin-orbit coupling
   INIWAV =      1    electr: 0-lowe 1-rand  2-diag
   LASPH  =      F    aspherical Exc in radial PAW
   METAGGA=      F    non-selfconsistent MetaGGA calc.

 Electronic Relaxation 1
   ENCUT  =  400.0 eV  29.40 Ry    5.42 a.u.  11.71 11.71 11.71*2*pi/ulx,y,z
   ENINI  =  400.0     initial cutoff
   ENAUG  =  644.9 eV  augmentation charge cutoff
   NELM   =     60;   NELMIN=  2; NELMDL= -5     # of ELM steps 
   EDIFF  = 0.1E-07   stopping-criterion for ELM
   LREAL  =      F    real-space projection
   NLSPLINE    = F    spline interpolate recip. space projectors
   LCOMPAT=      F    compatible to vasp.4.4
   GGA_COMPAT  = T    GGA compatible to vasp.4.4-vasp.4.6
   LMAXPAW     = -100 max onsite density
   LMAXMIX     =    2 max onsite mixed and CHGCAR
   VOSKOWN=      0    Vosko Wilk Nusair interpolation
   ROPT   =    0.00000
 Ionic relaxation
   EDIFFG = 0.1E-06   stopping-criterion for IOM
   NSW    =      1    number of steps for IOM
   NBLOCK =      1;   KBLOCK =      1    inner block; outer block 
   IBRION =      8    ionic relax: 0-MD 1-quasi-New 2-CG
   NFREE  =      0    steps in history (QN), initial steepest desc. (CG)
   ISIF   =      2    stress and relaxation
   IWAVPR =     11    prediction:  0-non 1-charg 2-wave 3-comb
   ISYM   =      2    0-nonsym 1-usesym 2-fastsym
   LCORR  =      T    Harris-Foulkes like correction to forces

   POTIM  = 0.5000    time-step for ionic-motion
   TEIN   =    0.0    initial temperature
   TEBEG  =    0.0;   TEEND  =   0.0 temperature during run
   SMASS  =  -3.00    Nose mass-parameter (am)
   estimated Nose-frequenzy (Omega)   =  0.10E-29 period in steps =****** mass=  -0.118E-26a.u.
   SCALEE = 1.0000    scale energy and forces
   NPACO  =    256;   APACO  = 16.0  distance and # of slots for P.C.
   PSTRESS=    0.0 pullay stress

  Mass of Ions in am
   POMASS =  12.01
  Ionic Valenz
   ZVAL   =   4.00
  Atomic Wigner-Seitz radii
   RWIGS  =  -1.00
  virtual crystal weights 
   VCA    =   1.00
   NELECT =     256.0000    total number of electrons
   NUPDOWN=      -1.0000    fix difference up-down

 DOS related values:
   EMIN   =  10.00;   EMAX   =-10.00  energy-range for DOS
   EFERMI =   0.00
   ISMEAR =     0;   SIGMA  =   0.06  broadening in eV -4-tet -1-fermi 0-gaus

 Electronic relaxation 2 (details)
   IALGO  =     38    algorithm
   LDIAG  =      T    sub-space diagonalisation (order eigenvalues)
   LSUBROT=      F    optimize rotation matrix (better conditioning)
   TURBO    =      0    0=normal 1=particle mesh
   IRESTART =      0    0=no restart 2=restart with 2 vectors
   NREBOOT  =      0    no. of reboots
   NMIN     =      0    reboot dimension
   EREF     =   0.00    reference energy to select bands
   IMIX   =      4    mixing-type and parameters
     AMIX     =   0.40;   BMIX     =  1.00
     AMIX_MAG =   1.60;   BMIX_MAG =  1.00
     AMIN     =   0.10
     WC   =   100.;   INIMIX=   1;  MIXPRE=   1;  MAXMIX= -45

 Intra band minimization:
   WEIMIN = 0.0010     energy-eigenvalue tresh-hold
   EBREAK =  0.13E-10  absolut break condition
   DEPER  =   0.30     relativ break condition  

   TIME   =   0.40     timestep for ELM

  volume/ion in A,a.u.               =       5.78        39.01
  Fermi-wavevector in a.u.,A,eV,Ry     =   1.448055  2.736428 28.529576  2.096865
  Thomas-Fermi vector in A             =   2.565940
 
 Write flags
   LWAVE        =      F    write WAVECAR
   LDOWNSAMPLE  =      F    k-point downsampling of WAVECAR
   LCHARG       =      F    write CHGCAR
   LVTOT        =      F    write LOCPOT, total local potential
   LVHAR        =      F    write LOCPOT, Hartree potential only
   LELF         =      F    write electronic localiz. function (ELF)
   LORBIT       =      0    0 simple, 1 ext, 2 COOP (PROOUT), +10 PAW based schemes


 Dipole corrections
   LMONO  =      F    monopole corrections only (constant potential shift)
   LDIPOL =      F    correct potential (dipole corrections)
   IDIPOL =      0    1-x, 2-y, 3-z, 4-all directions 
   EPSILON=  1.0000000 bulk dielectric constant

 Exchange correlation treatment:
   GGA     =    --    GGA type
   LEXCH   =     8    internal setting for exchange type
   VOSKOWN=      0    Vosko Wilk Nusair interpolation
   LHFCALC =     F    Hartree Fock is set to
   LHFONE  =     F    Hartree Fock one center treatment
   AEXX    =    0.0000 exact exchange contribution

 Linear response parameters
   LEPSILON=     F    determine dielectric tensor
   LRPA    =     F    only Hartree local field effects (RPA)
   LNABLA  =     F    use nabla operator in PAW spheres
   LVEL    =     F    velocity operator in full k-point grid
   LINTERFAST=   F  fast interpolation
   KINTER  =     0    interpolate to denser k-point grid
   CSHIFT  =0.1000    complex shift for real part using Kramers Kronig
   OMEGAMAX=  -1.0    maximum frequency
   DEG_THRESHOLD= 0.2000000E-02 threshold for treating states as degnerate
   RTIME   =   -0.100 relaxation time in fs
  (WPLASMAI=    0.000 imaginary part of plasma frequency in eV, 0.658/RTIME)
   DFIELD  = 0.0000000 0.0000000 0.0000000 field for delta impulse in time
 
 Orbital magnetization related:
   ORBITALMAG=     F  switch on orbital magnetization
   LCHIMAG   =     F  perturbation theory with respect to B field
   DQ        =  0.001000  dq finite difference perturbation B field
   LLRAUG    =     F  two centre corrections for induced B field



--------------------------------------------------------------------------------------------------------


 linear response using symmetry
 charge density and potential will be updated during run
 non-spin polarized calculation
 Variant of blocked Davidson
 Davidson routine will perform the subspace rotation
 perform sub-space diagonalisation
    after iterative eigenvector-optimisation
 modified Broyden-mixing scheme, WC =      100.0
 initial mixing is a Kerker type mixing with AMIX =  0.4000 and BMIX =      1.0000
 Hartree-type preconditioning will be used
 using additional bands           64
 reciprocal scheme for non local part
 calculate Harris-corrections to forces 
   (improved forces if not selfconsistent)
 use gradient corrections 
 use of overlap-Matrix (Vanderbilt PP)
 Gauss-broadening in eV      SIGMA  =   0.06


--------------------------------------------------------------------------------------------------------


  energy-cutoff  :      400.00
  volume of cell :      369.92
      direct lattice vectors                 reciprocal lattice vectors
     7.179998718  0.000000000  0.000000000     0.139275791  0.002786065  0.002843516
    -0.143599573  7.178562200  0.000000000     0.000000000  0.139303662  0.002843514
    -0.143599573 -0.146500736  7.177067417     0.000000000  0.000000000  0.139332675

  length of vectors
     7.179998718  7.179998335  7.179998608     0.139332673  0.139332680  0.139332675


 
 k-points in units of 2pi/SCALE and weight: kpt_density=3000                        
   0.00000000  0.00000000  0.00000000       0.005
   0.02321263  0.00046434  0.00047392       0.028
   0.04642526  0.00092869  0.00094784       0.028
   0.06963790  0.00139303  0.00142176       0.014
   0.02321263  0.02368162  0.00094784       0.028
   0.04642526  0.02414597  0.00142176       0.056
   0.06963790  0.02461031  0.00189568       0.056
  -0.04642526  0.02228859 -0.00047392       0.056
  -0.02321263  0.02275293 -0.00000000       0.028
   0.04642526  0.04736324  0.00189568       0.028
   0.06963790  0.04782759  0.00236960       0.056
  -0.04642526  0.04550587 -0.00000000       0.028
   0.06963790  0.07104486  0.00284351       0.014
   0.02321263  0.02368162  0.02416995       0.009
   0.04642526  0.02414597  0.02464387       0.028
   0.06963790  0.02461031  0.02511779       0.028
  -0.04642526  0.02228859  0.02274819       0.028
  -0.02321263  0.02275293  0.02322211       0.028
   0.04642526  0.04736324  0.02511779       0.028
   0.06963790  0.04782759  0.02559171       0.056
  -0.04642526  0.04550587  0.02322211       0.056
  -0.02321263  0.04597021  0.02369603       0.056
   0.06963790  0.07104486  0.02606563       0.028
  -0.04642526  0.06872314  0.02369603       0.056
  -0.02321263  0.06918749  0.02416995       0.028
  -0.04642526 -0.04736324  0.02132644       0.028
   0.04642526  0.04736324  0.04833990       0.009
   0.06963790  0.04782759  0.04881382       0.028
  -0.04642526  0.04550587  0.04644422       0.028
   0.06963790  0.07104486  0.04928774       0.028
  -0.04642526  0.06872314  0.04691814       0.028
   0.06963790  0.07104486  0.07250985       0.005
 
 k-points in reciprocal lattice and weights: kpt_density=3000                        
   0.00000000  0.00000000  0.00000000       0.005
   0.16666667  0.00000000 -0.00000000       0.028
   0.33333333  0.00000000 -0.00000000       0.028
   0.50000000  0.00000000 -0.00000000       0.014
   0.16666667  0.16666667 -0.00000000       0.028
   0.33333333  0.16666667  0.00000000       0.056
   0.50000000  0.16666667 -0.00000000       0.056
  -0.33333333  0.16666667  0.00000000       0.056
  -0.16666667  0.16666667  0.00000000       0.028
   0.33333333  0.33333333 -0.00000000       0.028
   0.50000000  0.33333333  0.00000000       0.056
  -0.33333333  0.33333333 -0.00000000       0.028
   0.50000000  0.50000000  0.00000000       0.014
   0.16666667  0.16666667  0.16666667       0.009
   0.33333333  0.16666667  0.16666667       0.028
   0.50000000  0.16666667  0.16666667       0.028
  -0.33333333  0.16666667  0.16666667       0.028
  -0.16666667  0.16666667  0.16666667       0.028
   0.33333333  0.33333333  0.16666667       0.028
   0.50000000  0.33333333  0.16666667       0.056
  -0.33333333  0.33333333  0.16666667       0.056
  -0.16666667  0.33333333  0.16666667       0.056
   0.50000000  0.50000000  0.16666667       0.028
  -0.33333333  0.50000000  0.16666667       0.056
  -0.16666667  0.50000000  0.16666667       0.028
  -0.33333333 -0.33333333  0.16666667       0.028
   0.33333333  0.33333333  0.33333333       0.009
   0.50000000  0.33333333  0.33333333       0.028
  -0.33333333  0.33333333  0.33333333       0.028
   0.50000000  0.50000000  0.33333333       0.028
  -0.33333333  0.50000000  0.33333333       0.028
   0.50000000  0.50000000  0.50000000       0.005
 
 position of ions in fractional coordinates (direct lattice) 
   0.12500000  0.37500000  0.12500000
   0.62500000  0.37500000  0.12500000
   0.12500000  0.87500000  0.12500000
   0.62500000  0.87500000  0.12500000
   0.12500000  0.37500000  0.62500000
   0.62500000  0.37500000  0.62500000
   0.12500000  0.87500000  0.62500000
   0.62500000  0.87500000  0.62500000
   0.00000000  0.00000000  0.25000000
   0.50000000  0.00000000  0.25000000
   0.00000000  0.50000000  0.25000000
   0.50000000  0.50000000  0.25000000
   0.00000000  0.00000000  0.75000000
   0.50000000  0.00000000  0.75000000
   0.00000000  0.50000000  0.75000000
   0.50000000  0.50000000  0.75000000
   0.12500000  0.12500000  0.37500000
   0.62500000  0.12500000  0.37500000
   0.12500000  0.62500000  0.37500000
   0.62500000  0.62500000  0.37500000
   0.12500000  0.12500000  0.87500000
   0.62500000  0.12500000  0.87500000
   0.12500000  0.62500000  0.87500000
   0.62500000  0.62500000  0.87500000
   0.00000000  0.25000000  0.00000000
   0.50000000  0.25000000  0.00000000
   0.00000000  0.75000000  0.00000000
   0.50000000  0.75000000  0.00000000
   0.00000000  0.25000000  0.50000000
   0.50000000  0.25000000  0.50000000
   0.00000000  0.75000000  0.50000000
   0.50000000  0.75000000  0.50000000
   0.37500000  0.37500000  0.37500000
   0.87500000  0.37500000  0.37500000
   0.37500000  0.87500000  0.37500000
   0.87500000  0.87500000  0.37500000
   0.37500000  0.37500000  0.87500000
   0.87500000  0.37500000  0.87500000
   0.37500000  0.87500000  0.87500000
   0.87500000  0.87500000  0.87500000
   0.25000000  0.00000000  0.00000000
   0.75000000  0.00000000  0.00000000
   0.25000000  0.50000000  0.00000000
   0.75000000  0.50000000  0.00000000
   0.25000000  0.00000000  0.50000000
   0.75000000  0.00000000  0.50000000
   0.25000000  0.50000000  0.50000000
   0.75000000  0.50000000  0.50000000
   0.37500000  0.12500000  0.12500000
   0.87500000  0.12500000  0.12500000
   0.37500000  0.62500000  0.12500000
   0.87500000  0.62500000  0.12500000
   0.37500000  0.12500000  0.62500000
   0.87500000  0.12500000  0.62500000
   0.37500000  0.62500000  0.62500000
   0.87500000  0.62500000  0.62500000
   0.25000000  0.25000000  0.25000000
   0.75000000  0.25000000  0.25000000
   0.25000000  0.75000000  0.25000000
   0.75000000  0.75000000  0.25000000
   0.25000000  0.25000000  0.75000000
   0.75000000  0.25000000  0.75000000
   0.25000000  0.75000000  0.75000000
   0.75000000  0.75000000  0.75000000
 
 position of ions in cartesian coordinates  (Angst):
   0.82570005  2.67364823  0.89713343
   4.41569941  2.67364823  0.89713343
   0.75390027  6.26292933  0.89713343
   4.34389963  6.26292933  0.89713343
   0.75390027  2.60039786  4.48566714
   4.34389963  2.60039786  4.48566714
   0.68210048  6.18967896  4.48566714
   4.27209984  6.18967896  4.48566714
  -0.03589989 -0.03662518  1.79426685
   3.55409947 -0.03662518  1.79426685
  -0.10769968  3.55265592  1.79426685
   3.48229968  3.55265592  1.79426685
  -0.10769968 -0.10987555  5.38280056
   3.48229968 -0.10987555  5.38280056
  -0.17949947  3.47940555  5.38280056
   3.41049989  3.47940555  5.38280056
   0.82570005  0.84238250  2.69140028
   4.41569941  0.84238250  2.69140028
   0.75390027  4.43166360  2.69140028
   4.34389963  4.43166360  2.69140028
   0.75390027  0.76913213  6.27993399
   4.34389963  0.76913213  6.27993399
   0.68210048  4.35841323  6.27993399
   4.27209984  4.35841323  6.27993399
  -0.03589989  1.79464055  0.00000000
   3.55409947  1.79464055  0.00000000
  -0.10769968  5.38392165  0.00000000
   3.48229968  5.38392165  0.00000000
  -0.10769968  1.72139018  3.58853371
   3.48229968  1.72139018  3.58853371
  -0.17949947  5.31067128  3.58853371
   3.41049989  5.31067128  3.58853371
   2.58479984  2.63702305  2.69140028
   6.17479920  2.63702305  2.69140028
   2.51300005  6.22630415  2.69140028
   6.10299941  6.22630415  2.69140028
   2.51300005  2.56377268  6.27993399
   6.10299941  2.56377268  6.27993399
   2.44120027  6.15305378  6.27993399
   6.03119963  6.15305378  6.27993399
   1.79499968  0.00000000  0.00000000
   5.38499904  0.00000000  0.00000000
   1.72319989  3.58928110  0.00000000
   5.31319925  3.58928110  0.00000000
   1.72319989 -0.07325037  3.58853371
   5.31319925 -0.07325037  3.58853371
   1.65140011  3.51603073  3.58853371
   5.24139947  3.51603073  3.58853371
   2.65659963  0.87900768  0.89713343
   6.24659899  0.87900768  0.89713343
   2.58479984  4.46828878  0.89713343
   6.17479920  4.46828878  0.89713343
   2.58479984  0.80575731  4.48566714
   6.17479920  0.80575731  4.48566714
   2.51300005  4.39503841  4.48566714
   6.10299941  4.39503841  4.48566714
   1.72319989  1.75801537  1.79426685
   5.31319925  1.75801537  1.79426685
   1.65140011  5.34729647  1.79426685
   5.24139947  5.34729647  1.79426685
   1.65140011  1.68476500  5.38280056
   5.24139947  1.68476500  5.38280056
   1.57960032  5.27404610  5.38280056
   5.16959968  5.27404610  5.38280056
 


--------------------------------------------------------------------------------------------------------


 k-point  1 :   0.0000 0.0000 0.0000  plane waves:    6733
 k-point  2 :   0.1667 0.0000-0.0000  plane waves:    6729
 k-point  3 :   0.3333 0.0000-0.0000  plane waves:    6724
 k-point  4 :   0.5000 0.0000-0.0000  plane waves:    6718
 k-point  5 :   0.1667 0.1667-0.0000  plane waves:    6740
 k-point  6 :   0.3333 0.1667 0.0000  plane waves:    6717
 k-point  7 :   0.5000 0.1667-0.0000  plane waves:    6716
 k-point  8 :  -0.3333 0.1667 0.0000  plane waves:    6720
 k-point  9 :  -0.1667 0.1667 0.0000  plane waves:    6743
 k-point 10 :   0.3333 0.3333-0.0000  plane waves:    6726
 k-point 11 :   0.5000 0.3333 0.0000  plane waves:    6723
 k-point 12 :  -0.3333 0.3333-0.0000  plane waves:    6711
 k-point 13 :   0.5000 0.5000 0.0000  plane waves:    6732
 k-point 14 :   0.1667 0.1667 0.1667  plane waves:    6742
 k-point 15 :   0.3333 0.1667 0.1667  plane waves:    6712
 k-point 16 :   0.5000 0.1667 0.1667  plane waves:    6722
 k-point 17 :  -0.3333 0.1667 0.1667  plane waves:    6706
 k-point 18 :  -0.1667 0.1667 0.1667  plane waves:    6717
 k-point 19 :   0.3333 0.3333 0.1667  plane waves:    6703
 k-point 20 :   0.5000 0.3333 0.1667  plane waves:    6718
 k-point 21 :  -0.3333 0.3333 0.1667  plane waves:    6727
 k-point 22 :  -0.1667 0.3333 0.1667  plane waves:    6712
 k-point 23 :   0.5000 0.5000 0.1667  plane waves:    6721
 k-point 24 :  -0.3333 0.5000 0.1667  plane waves:    6721
 k-point 25 :  -0.1667 0.5000 0.1667  plane waves:    6722
 k-point 26 :  -0.3333-0.3333 0.1667  plane waves:    6707
 k-point 27 :   0.3333 0.3333 0.3333  plane waves:    6703
 k-point 28 :   0.5000 0.3333 0.3333  plane waves:    6711
 k-point 29 :  -0.3333 0.3333 0.3333  plane waves:    6734
 k-point 30 :   0.5000 0.5000 0.3333  plane waves:    6734
 k-point 31 :  -0.3333 0.5000 0.3333  plane waves:    6732
 k-point 32 :   0.5000 0.5000 0.5000  plane waves:    6704

 maximum and minimum number of plane-waves per node :      6743     6703

 maximum number of plane-waves:      6743
 maximum index in each direction: 
   IXMAX=   12   IYMAX=   12   IZMAX=   11
   IXMIN=  -12   IYMIN=  -12   IZMIN=  -12


 serial   3D FFT for wavefunctions
 parallel 3D FFT for charge:
    minimum data exchange during FFTs selected (reduces bandwidth)


 total amount of memory used by VASP MPI-rank0    83596. kBytes
=======================================================================

   base      :      30000. kBytes
   nonl-proj :      20742. kBytes
   fftplans  :       4537. kBytes
   grid      :       5806. kBytes
   one-center:        196. kBytes
   wavefun   :      22315. kBytes
 
     INWAV:  cpu time    0.0009: real time    0.0011
 Broyden mixing: mesh for mixing (old mesh)
   NGX = 23   NGY = 23   NGZ = 23
  (NGX  = 96   NGY  = 96   NGZ  = 96)
  gives a total of  12167 points

 initial charge density was supplied:
 charge density of overlapping atoms calculated
 number of electron     256.0000000 magnetization 
 keeping initial charge density in first step


--------------------------------------------------------------------------------------------------------


 Maximum index for augmentation-charges         1097 (set IRDMAX)


--------------------------------------------------------------------------------------------------------


 First call to EWALD:  gamma=   0.247
 Maximum number of real-space cells 3x 3x 3
 Maximum number of reciprocal cells 3x 3x 3

    FEWALD:  cpu time    0.0083: real time    0.0083


--------------------------------------- Iteration      1(   1)  ---------------------------------------


    POTLOK:  cpu time    0.0773: real time    0.0960
    SETDIJ:  cpu time    0.0423: real time    0.0425
     EDDAV:  cpu time   22.0990: real time   22.1142
       DOS:  cpu time    0.0076: real time    0.0076
    --------------------------------------------
      LOOP:  cpu time   22.2262: real time   22.2603

 eigenvalue-minimisations  : 12288
 total energy-change (2. order) : 0.5060303E+03  (-0.1134509E+05)
 number of electron     256.0000000 magnetization 
 augmentation part      256.0000000 magnetization 

 Free energy of the ion-electron system (eV)
  ---------------------------------------------------
  alpha Z        PSCENC =       902.20033124
  Ewald energy   TEWEN  =    -11062.44679260
  -Hartree energ DENC   =      -578.11117316
  -exchange      EXHF   =         0.00000000
  -V(xc)+E(xc)   XCENC  =       911.30569505
  PAW double counting   =      2421.21235816    -2494.84305711
  entropy T*S    EENTRO =        -0.01638394
  eigenvalues    EBANDS =       990.58700309
  atomic energy  EATOM  =      9416.14232778
  Solvation  Ediel_sol  =         0.00000000
  ---------------------------------------------------
  free energy    TOTEN  =       506.03030850 eV

  energy without entropy =      506.04669244  energy(sigma->0) =      506.03850047


--------------------------------------------------------------------------------------------------------




--------------------------------------- Iteration      1(   2)  ---------------------------------------


     EDDAV:  cpu time   27.3017: real time   27.3035
       DOS:  cpu time    0.0042: real time    0.0042
    --------------------------------------------
      LOOP:  cpu time   27.3059: real time   27.3077

 eigenvalue-minimisations  : 16032
 total energy-change (2. order) :-0.1064566E+04  (-0.1014188E+04)
 number of electron     256.0000000 magnetization 
 augmentation part      256.0000000 magnetization 

 Free energy of the ion-electron system (eV)
  ---------------------------------------------------
  alpha Z        PSCENC =       902.20033124
  Ewald energy   TEWEN  =    -11062.44679260
  -Hartree energ DENC   =      -578.11117316
  -exchange      EXHF   =         0.00000000
  -V(xc)+E(xc)   XCENC  =       911.30569505
  PAW double counting   =      2421.21235816    -2494.84305711
  entropy T*S    EENTRO =        -0.00000000
  eigenvalues    EBANDS =       -73.99502021
  atomic energy  EATOM  =      9416.14232778
  Solvation  Ediel_sol  =         0.00000000
  ---------------------------------------------------
  free energy    TOTEN  =      -558.53533085 eV

  energy without entropy =     -558.53533085  energy(sigma->0) =     -558.53533085


--------------------------------------------------------------------------------------------------------




--------------------------------------- Iteration      1(   3)  ---------------------------------------


     EDDAV:  cpu time   28.3042: real time   28.3060
       DOS:  cpu time    0.0049: real time    0.0049
    --------------------------------------------
      LOOP:  cpu time   28.3092: real time   28.3109

 eigenvalue-minimisations  : 16384
 total energy-change (2. order) :-0.4136584E+02  (-0.4111339E+02)
 number of electron     256.0000000 magnetization 
 augmentation part      256.0000000 magnetization 

 Free energy of the ion-electron system (eV)
  ---------------------------------------------------
  alpha Z        PSCENC =       902.20033124
  Ewald energy   TEWEN  =    -11062.44679260
  -Hartree energ DENC   =      -578.11117316
  -exchange      EXHF   =         0.00000000
  -V(xc)+E(xc)   XCENC  =       911.30569505
  PAW double counting   =      2421.21235816    -2494.84305711
  entropy T*S    EENTRO =        -0.00000000
  eigenvalues    EBANDS =      -115.36085675
  atomic energy  EATOM  =      9416.14232778
  Solvation  Ediel_sol  =         0.00000000
  ---------------------------------------------------
  free energy    TOTEN  =      -599.90116739 eV

  energy without entropy =     -599.90116739  energy(sigma->0) =     -599.90116739


--------------------------------------------------------------------------------------------------------




--------------------------------------- Iteration      1(   4)  ---------------------------------------


     EDDAV:  cpu time   28.4809: real time   28.4828
       DOS:  cpu time    0.0039: real time    0.0039
    --------------------------------------------
      LOOP:  cpu time   28.4848: real time   28.4867

 eigenvalue-minimisations  : 16512
 total energy-change (2. order) :-0.4588775E+00  (-0.4579260E+00)
 number of electron     256.0000000 magnetization 
 augmentation part      256.0000000 magnetization 

 Free energy of the ion-electron system (eV)
  ---------------------------------------------------
  alpha Z        PSCENC =       902.20033124
  Ewald energy   TEWEN  =    -11062.44679260
  -Hartree energ DENC   =      -578.11117316
  -exchange      EXHF   =         0.00000000
  -V(xc)+E(xc)   XCENC  =       911.30569505
  PAW double counting   =      2421.21235816    -2494.84305711
  entropy T*S    EENTRO =        -0.00000000
  eigenvalues    EBANDS =      -115.81973428
  atomic energy  EATOM  =      9416.14232778
  Solvation  Ediel_sol  =         0.00000000
  ---------------------------------------------------
  free energy    TOTEN  =      -600.36004493 eV

  energy without entropy =     -600.36004493  energy(sigma->0) =     -600.36004493


--------------------------------------------------------------------------------------------------------




--------------------------------------- Iteration      1(   5)  ---------------------------------------


     EDDAV:  cpu time   26.4589: real time   26.4606
       DOS:  cpu time    0.0136: real time    0.0136
    CHARGE:  cpu time    0.6549: real time    0.6551
    MIXING:  cpu time    0.0038: real time    0.0038
    --------------------------------------------
      LOOP:  cpu time   27.1313: real time   27.1331

 eigenvalue-minimisations  : 15264
 total energy-change (2. order) :-0.8818534E-02  (-0.8814859E-02)
 number of electron     255.9999995 magnetization 
 augmentation part        6.1932135 magnetization 

 Broyden mixing:
  rms(total) = 0.26327E+01    rms(broyden)= 0.26322E+01
  rms(prec ) = 0.38488E+01
  weight for this iteration     100.00

 Free energy of the ion-electron system (eV)
  ---------------------------------------------------
  alpha Z        PSCENC =       902.20033124
  Ewald energy   TEWEN  =    -11062.44679260
  -Hartree energ DENC   =      -578.11117316
  -exchange      EXHF   =         0.00000000
  -V(xc)+E(xc)   XCENC  =       911.30569505
  PAW double counting   =      2421.21235816    -2494.84305711
  entropy T*S    EENTRO =        -0.00000000
  eigenvalues    EBANDS =      -115.82855282
  atomic energy  EATOM  =      9416.14232778
  Solvation  Ediel_sol  =         0.00000000
  ---------------------------------------------------
  free energy    TOTEN  =      -600.36886346 eV

  energy without entropy =     -600.36886346  energy(sigma->0) =     -600.36886346


--------------------------------------------------------------------------------------------------------




--------------------------------------- Iteration      1(   6)  ---------------------------------------


    POTLOK:  cpu time    0.0574: real time    0.0634
    SETDIJ:  cpu time    0.0400: real time    0.0400
     EDDAV:  cpu time   25.4108: real time   25.4121
       DOS:  cpu time    0.0038: real time    0.0038
    CHARGE:  cpu time    0.6492: real time    0.6493
    MIXING:  cpu time    0.0042: real time    0.0042
    --------------------------------------------
      LOOP:  cpu time   26.1655: real time   26.1728

 eigenvalue-minimisations  : 14432
 total energy-change (2. order) : 0.1443390E+02  (-0.9599213E+00)
 number of electron     255.9999995 magnetization 
 augmentation part        6.0511636 magnetization 

 Broyden mixing:
  rms(total) = 0.14473E+01    rms(broyden)= 0.14473E+01
  rms(prec ) = 0.20959E+01
  weight for this iteration     100.00

 eigenvalues of (default mixing * dielectric matrix)
  average eigenvalue GAMMA=   2.1733
  2.1733

 Free energy of the ion-electron system (eV)
  ---------------------------------------------------
  alpha Z        PSCENC =       902.20033124
  Ewald energy   TEWEN  =    -11062.44679260
  -Hartree energ DENC   =      -697.81655601
  -exchange      EXHF   =         0.00000000
  -V(xc)+E(xc)   XCENC  =       922.48001696
  PAW double counting   =      3125.80622078    -3203.58873964
  entropy T*S    EENTRO =        -0.00000000
  eigenvalues    EBANDS =        11.28822759
  atomic energy  EATOM  =      9416.14232778
  Solvation  Ediel_sol  =         0.00000000
  ---------------------------------------------------
  free energy    TOTEN  =      -585.93496390 eV

  energy without entropy =     -585.93496390  energy(sigma->0) =     -585.93496390


--------------------------------------------------------------------------------------------------------




--------------------------------------- Iteration      1(   7)  ---------------------------------------


    POTLOK:  cpu time    0.0575: real time    0.0579
    SETDIJ:  cpu time    0.0395: real time    0.0395
     EDDAV:  cpu time   25.9266: real time   25.9279
       DOS:  cpu time    0.0041: real time    0.0041
    CHARGE:  cpu time    0.6489: real time    0.6490
    MIXING:  cpu time    0.0042: real time    0.0042
    --------------------------------------------
      LOOP:  cpu time   26.6809: real time   26.6825

 eigenvalue-minimisations  : 15200
 total energy-change (2. order) : 0.4870768E+01  (-0.1105996E+01)
 number of electron     255.9999995 magnetization 
 augmentation part        5.9019476 magnetization 

 Broyden mixing:
  rms(total) = 0.19541E+00    rms(broyden)= 0.19446E+00
  rms(prec ) = 0.23947E+00
  weight for this iteration     100.00

 eigenvalues of (default mixing * dielectric matrix)
  average eigenvalue GAMMA=   2.2736
  2.0197  2.5276

 Free energy of the ion-electron system (eV)
  ---------------------------------------------------
  alpha Z        PSCENC =       902.20033124
  Ewald energy   TEWEN  =    -11062.44679260
  -Hartree energ DENC   =      -851.17366852
  -exchange      EXHF   =         0.00000000
  -V(xc)+E(xc)   XCENC  =       936.97352045
  PAW double counting   =      4083.98495773    -4165.71374636
  entropy T*S    EENTRO =        -0.00000000
  eigenvalues    EBANDS =       158.96887441
  atomic energy  EATOM  =      9416.14232778
  Solvation  Ediel_sol  =         0.00000000
  ---------------------------------------------------
  free energy    TOTEN  =      -581.06419588 eV

  energy without entropy =     -581.06419588  energy(sigma->0) =     -581.06419588


--------------------------------------------------------------------------------------------------------




--------------------------------------- Iteration      1(   8)  ---------------------------------------


    POTLOK:  cpu time    0.0575: real time    0.0578
    SETDIJ:  cpu time    0.0397: real time    0.0397
     EDDAV:  cpu time   26.9941: real time   26.9955
       DOS:  cpu time    0.0069: real time    0.0069
    CHARGE:  cpu time    0.6450: real time    0.6450
    MIXING:  cpu time    0.0047: real time    0.0047
    --------------------------------------------
      LOOP:  cpu time   27.7480: real time   27.7497

 eigenvalue-minimisations  : 15264
 total energy-change (2. order) :-0.6022063E-01  (-0.2683353E-01)
 number of electron     255.9999995 magnetization 
 augmentation part        5.9100914 magnetization 

 Broyden mixing:
  rms(total) = 0.21447E-01    rms(broyden)= 0.21155E-01
  rms(prec ) = 0.26032E-01
  weight for this iteration     100.00

 eigenvalues of (default mixing * dielectric matrix)
  average eigenvalue GAMMA=   2.0953
  1.4623  2.6783  2.1452

 Free energy of the ion-electron system (eV)
  ---------------------------------------------------
  alpha Z        PSCENC =       902.20033124
  Ewald energy   TEWEN  =    -11062.44679260
  -Hartree energ DENC   =      -853.95919864
  -exchange      EXHF   =         0.00000000
  -V(xc)+E(xc)   XCENC  =       937.26635390
  PAW double counting   =      4148.05394830    -4228.73564108
  entropy T*S    EENTRO =        -0.00000000
  eigenvalues    EBANDS =       160.35425459
  atomic energy  EATOM  =      9416.14232778
  Solvation  Ediel_sol  =         0.00000000
  ---------------------------------------------------
  free energy    TOTEN  =      -581.12441651 eV

  energy without entropy =     -581.12441651  energy(sigma->0) =     -581.12441651


--------------------------------------------------------------------------------------------------------




--------------------------------------- Iteration      1(   9)  ---------------------------------------


    POTLOK:  cpu time    0.0590: real time    0.0593
    SETDIJ:  cpu time    0.0406: real time    0.0406
     EDDAV:  cpu time   26.7194: real time   26.7208
       DOS:  cpu time    0.0040: real time    0.0040
    CHARGE:  cpu time    0.6477: real time    0.6477
    MIXING:  cpu time    0.0048: real time    0.0048
    --------------------------------------------
      LOOP:  cpu time   27.4755: real time   27.4772

 eigenvalue-minimisations  : 16096
 total energy-change (2. order) :-0.2214825E-02  (-0.3851207E-03)
 number of electron     255.9999995 magnetization 
 augmentation part        5.9089980 magnetization 

 Broyden mixing:
  rms(total) = 0.83617E-02    rms(broyden)= 0.83399E-02
  rms(prec ) = 0.10565E-01
  weight for this iteration     100.00

 eigenvalues of (default mixing * dielectric matrix)
  average eigenvalue GAMMA=   2.0088
  0.9497  2.7192  2.3965  1.9697

 Free energy of the ion-electron system (eV)
  ---------------------------------------------------
  alpha Z        PSCENC =       902.20033124
  Ewald energy   TEWEN  =    -11062.44679260
  -Hartree energ DENC   =      -853.61964858
  -exchange      EXHF   =         0.00000000
  -V(xc)+E(xc)   XCENC  =       937.23310038
  PAW double counting   =      4144.52469302    -4225.11103370
  entropy T*S    EENTRO =        -0.00000000
  eigenvalues    EBANDS =       159.95039113
  atomic energy  EATOM  =      9416.14232778
  Solvation  Ediel_sol  =         0.00000000
  ---------------------------------------------------
  free energy    TOTEN  =      -581.12663133 eV

  energy without entropy =     -581.12663133  energy(sigma->0) =     -581.12663133


--------------------------------------------------------------------------------------------------------




--------------------------------------- Iteration      1(  10)  ---------------------------------------


    POTLOK:  cpu time    0.0612: real time    0.0615
    SETDIJ:  cpu time    0.0466: real time    0.0466
     EDDAV:  cpu time   25.0607: real time   25.0620
       DOS:  cpu time    0.0038: real time    0.0038
    CHARGE:  cpu time    0.6544: real time    0.6545
    MIXING:  cpu time    0.0046: real time    0.0046
    --------------------------------------------
      LOOP:  cpu time   25.8314: real time   25.8330

 eigenvalue-minimisations  : 14528
 total energy-change (2. order) :-0.4681226E-03  (-0.3852650E-04)
 number of electron     255.9999995 magnetization 
 augmentation part        5.9087205 magnetization 

 Broyden mixing:
  rms(total) = 0.91160E-03    rms(broyden)= 0.89734E-03
  rms(prec ) = 0.13182E-02
  weight for this iteration     100.00

 eigenvalues of (default mixing * dielectric matrix)
  average eigenvalue GAMMA=   1.9554
  2.9340  2.5507  2.0608  0.9820  1.2494

 Free energy of the ion-electron system (eV)
  ---------------------------------------------------
  alpha Z        PSCENC =       902.20033124
  Ewald energy   TEWEN  =    -11062.44679260
  -Hartree energ DENC   =      -854.01458531
  -exchange      EXHF   =         0.00000000
  -V(xc)+E(xc)   XCENC  =       937.26747860
  PAW double counting   =      4141.22154588    -4221.82069106
  entropy T*S    EENTRO =        -0.00000000
  eigenvalues    EBANDS =       160.32328602
  atomic energy  EATOM  =      9416.14232778
  Solvation  Ediel_sol  =         0.00000000
  ---------------------------------------------------
  free energy    TOTEN  =      -581.12709946 eV

  energy without entropy =     -581.12709946  energy(sigma->0) =     -581.12709946


--------------------------------------------------------------------------------------------------------




--------------------------------------- Iteration      1(  11)  ---------------------------------------


    POTLOK:  cpu time    0.0727: real time    0.0731
    SETDIJ:  cpu time    0.0397: real time    0.0397
     EDDAV:  cpu time   27.8028: real time   27.8042
       DOS:  cpu time    0.0040: real time    0.0040
    CHARGE:  cpu time    0.6572: real time    0.6572
    MIXING:  cpu time    0.0095: real time    0.0095
    --------------------------------------------
      LOOP:  cpu time   28.5859: real time   28.5877

 eigenvalue-minimisations  : 16128
 total energy-change (2. order) :-0.1041147E-04  (-0.1311275E-05)
 number of electron     255.9999995 magnetization 
 augmentation part        5.9085490 magnetization 

 Broyden mixing:
  rms(total) = 0.27850E-03    rms(broyden)= 0.27414E-03
  rms(prec ) = 0.34580E-03
  weight for this iteration     100.00

 eigenvalues of (default mixing * dielectric matrix)
  average eigenvalue GAMMA=   1.9658
  2.9196  2.5232  2.0286  2.3384  0.9994  0.9857

 Free energy of the ion-electron system (eV)
  ---------------------------------------------------
  alpha Z        PSCENC =       902.20033124
  Ewald energy   TEWEN  =    -11062.44679260
  -Hartree energ DENC   =      -854.13480772
  -exchange      EXHF   =         0.00000000
  -V(xc)+E(xc)   XCENC  =       937.27850302
  PAW double counting   =      4141.32687752    -4221.93034719
  entropy T*S    EENTRO =        -0.00000000
  eigenvalues    EBANDS =       160.43679809
  atomic energy  EATOM  =      9416.14232778
  Solvation  Ediel_sol  =         0.00000000
  ---------------------------------------------------
  free energy    TOTEN  =      -581.12710987 eV

  energy without entropy =     -581.12710987  energy(sigma->0) =     -581.12710987


--------------------------------------------------------------------------------------------------------




--------------------------------------- Iteration      1(  12)  ---------------------------------------


    POTLOK:  cpu time    0.0574: real time    0.0577
    SETDIJ:  cpu time    0.0394: real time    0.0394
     EDDAV:  cpu time   26.9445: real time   26.9459
       DOS:  cpu time    0.0043: real time    0.0043
    CHARGE:  cpu time    0.6451: real time    0.6452
    MIXING:  cpu time    0.0048: real time    0.0048
    --------------------------------------------
      LOOP:  cpu time   27.6955: real time   27.6973

 eigenvalue-minimisations  : 15936
 total energy-change (2. order) :-0.7226481E-07  (-0.3948492E-07)
 number of electron     255.9999995 magnetization 
 augmentation part        5.9085603 magnetization 

 Broyden mixing:
  rms(total) = 0.48138E-04    rms(broyden)= 0.46297E-04
  rms(prec ) = 0.60169E-04
  weight for this iteration     100.00

 eigenvalues of (default mixing * dielectric matrix)
  average eigenvalue GAMMA=   1.9211
  2.8633  2.5091  2.5091  2.0491  0.9994  0.9994  1.5184

 Free energy of the ion-electron system (eV)
  ---------------------------------------------------
  alpha Z        PSCENC =       902.20033124
  Ewald energy   TEWEN  =    -11062.44679260
  -Hartree energ DENC   =      -854.12166313
  -exchange      EXHF   =         0.00000000
  -V(xc)+E(xc)   XCENC  =       937.27728065
  PAW double counting   =      4141.38137165    -4221.98340630
  entropy T*S    EENTRO =        -0.00000000
  eigenvalues    EBANDS =       160.42344077
  atomic energy  EATOM  =      9416.14232778
  Solvation  Ediel_sol  =         0.00000000
  ---------------------------------------------------
  free energy    TOTEN  =      -581.12710994 eV

  energy without entropy =     -581.12710994  energy(sigma->0) =     -581.12710994


--------------------------------------------------------------------------------------------------------




--------------------------------------- Iteration      1(  13)  ---------------------------------------


    POTLOK:  cpu time    0.0583: real time    0.0587
    SETDIJ:  cpu time    0.0405: real time    0.0405
     EDDAV:  cpu time   23.8844: real time   23.8856
       DOS:  cpu time    0.0039: real time    0.0039
    CHARGE:  cpu time    0.6438: real time    0.6439
    MIXING:  cpu time    0.0053: real time    0.0053
    --------------------------------------------
      LOOP:  cpu time   24.6362: real time   24.6378

 eigenvalue-minimisations  : 12576
 total energy-change (2. order) :-0.7723247E-07  (-0.1118545E-08)
 number of electron     255.9999995 magnetization 
 augmentation part        5.9085594 magnetization 

 Broyden mixing:
  rms(total) = 0.17183E-04    rms(broyden)= 0.13350E-04
  rms(prec ) = 0.16360E-04
  weight for this iteration     100.00
  WARNING: grid for Broyden might be to small

 eigenvalues of (default mixing * dielectric matrix)
  average eigenvalue GAMMA=   1.9222
  2.9598  2.5923  2.0316  2.4066  2.3121  0.9975  0.9975  1.0803

 Free energy of the ion-electron system (eV)
  ---------------------------------------------------
  alpha Z        PSCENC =       902.20033124
  Ewald energy   TEWEN  =    -11062.44679260
  -Hartree energ DENC   =      -854.11822692
  -exchange      EXHF   =         0.00000000
  -V(xc)+E(xc)   XCENC  =       937.27696185
  PAW double counting   =      4141.37931574    -4221.98115274
  entropy T*S    EENTRO =        -0.00000000
  eigenvalues    EBANDS =       160.42012564
  atomic energy  EATOM  =      9416.14232778
  Solvation  Ediel_sol  =         0.00000000
  ---------------------------------------------------
  free energy    TOTEN  =      -581.12711002 eV

  energy without entropy =     -581.12711002  energy(sigma->0) =     -581.12711002


--------------------------------------------------------------------------------------------------------




--------------------------------------- Iteration      1(  14)  ---------------------------------------


    POTLOK:  cpu time    0.0604: real time    0.0608
    SETDIJ:  cpu time    0.0403: real time    0.0403
     EDDAV:  cpu time   21.3912: real time   21.3922
       DOS:  cpu time    0.0037: real time    0.0037
    CHARGE:  cpu time    0.6700: real time    0.6700
    MIXING:  cpu time    0.0055: real time    0.0055
    --------------------------------------------
      LOOP:  cpu time   22.1710: real time   22.1725

 eigenvalue-minimisations  : 10752
 total energy-change (2. order) :-0.2446359E-07  (-0.2714333E-09)
 number of electron     255.9999995 magnetization 
 augmentation part        5.9085603 magnetization 

 Broyden mixing:
  rms(total) = 0.11142E-04    rms(broyden)= 0.30018E-05
  rms(prec ) = 0.40363E-05
  weight for this iteration     100.00
  WARNING: grid for Broyden might be to small

 eigenvalues of (default mixing * dielectric matrix)
  average eigenvalue GAMMA=   1.8486
  2.9361  2.6283  2.4839  2.0641  2.0641  1.5063  0.9971  0.9971  0.9607

 Free energy of the ion-electron system (eV)
  ---------------------------------------------------
  alpha Z        PSCENC =       902.20033124
  Ewald energy   TEWEN  =    -11062.44679260
  -Hartree energ DENC   =      -854.11773413
  -exchange      EXHF   =         0.00000000
  -V(xc)+E(xc)   XCENC  =       937.27691944
  PAW double counting   =      4141.38215558    -4221.98388754
  entropy T*S    EENTRO =        -0.00000000
  eigenvalues    EBANDS =       160.41957018
  atomic energy  EATOM  =      9416.14232778
  Solvation  Ediel_sol  =         0.00000000
  ---------------------------------------------------
  free energy    TOTEN  =      -581.12711004 eV

  energy without entropy =     -581.12711004  energy(sigma->0) =     -581.12711004


--------------------------------------------------------------------------------------------------------




--------------------------------------- Iteration      1(  15)  ---------------------------------------


    POTLOK:  cpu time    0.0621: real time    0.0624
    SETDIJ:  cpu time    0.0394: real time    0.0394
     EDDAV:  cpu time   20.2489: real time   20.2499
       DOS:  cpu time    0.0042: real time    0.0042
    --------------------------------------------
      LOOP:  cpu time   20.3545: real time   20.3559

 eigenvalue-minimisations  :  9504
 total energy-change (2. order) :-0.6319169E-08  (-0.3723999E-10)
 number of electron     255.9999995 magnetization 
 augmentation part        5.9085603 magnetization 

 Free energy of the ion-electron system (eV)
  ---------------------------------------------------
  alpha Z        PSCENC =       902.20033124
  Ewald energy   TEWEN  =    -11062.44679260
  -Hartree energ DENC   =      -854.11809674
  -exchange      EXHF   =         0.00000000
  -V(xc)+E(xc)   XCENC  =       937.27695330
  PAW double counting   =      4141.38351095    -4221.98527318
  entropy T*S    EENTRO =        -0.00000000
  eigenvalues    EBANDS =       160.41992921
  atomic energy  EATOM  =      9416.14232778
  Solvation  Ediel_sol  =         0.00000000
  ---------------------------------------------------
  free energy    TOTEN  =      -581.12711005 eV

  energy without entropy =     -581.12711005  energy(sigma->0) =     -581.12711005


--------------------------------------------------------------------------------------------------------




 average (electrostatic) potential at core
  the test charge radii are     0.6991
  (the norm of the test charge is              1.0000)
       1 -45.6506       2 -45.6506       3 -45.6506       4 -45.6506       5 -45.6506
       6 -45.6506       7 -45.6506       8 -45.6506       9 -45.6506      10 -45.6506
      11 -45.6506      12 -45.6506      13 -45.6506      14 -45.6506      15 -45.6506
      16 -45.6506      17 -45.6506      18 -45.6506      19 -45.6506      20 -45.6506
      21 -45.6506      22 -45.6506      23 -45.6506      24 -45.6506      25 -45.6506
      26 -45.6506      27 -45.6506      28 -45.6506      29 -45.6506      30 -45.6506
      31 -45.6506      32 -45.6506      33 -45.6506      34 -45.6506      35 -45.6506
      36 -45.6506      37 -45.6506      38 -45.6506      39 -45.6506      40 -45.6506
      41 -45.6506      42 -45.6506      43 -45.6506      44 -45.6506      45 -45.6506
      46 -45.6506      47 -45.6506      48 -45.6506      49 -45.6506      50 -45.6506
      51 -45.6506      52 -45.6506      53 -45.6506      54 -45.6506      55 -45.6506
      56 -45.6506      57 -45.6506      58 -45.6506      59 -45.6506      60 -45.6506
      61 -45.6506      62 -45.6506      63 -45.6506      64 -45.6506
 
 
 
 E-fermi :   9.8203     XC(G=0): -13.1288     alpha+bet :-17.3684


 k-point     1 :       0.0000    0.0000    0.0000
  band No.  band energies     occupation 
      1     -11.7457      2.00000
      2      -9.4914      2.00000
      3      -9.4914      2.00000
      4      -9.4914      2.00000
      5      -9.4914      2.00000
      6      -9.4914      2.00000
      7      -9.4914      2.00000
      8      -7.4456      2.00000
      9      -7.4456      2.00000
     10      -7.4456      2.00000
     11      -7.4456      2.00000
     12      -7.4456      2.00000
     13      -7.4456      2.00000
     14      -7.2392      2.00000
     15      -7.2392      2.00000
     16      -7.2392      2.00000
     17      -7.2392      2.00000
     18      -7.2392      2.00000
     19      -7.2392      2.00000
     20      -6.2213      2.00000
     21      -6.2213      2.00000
     22      -6.2213      2.00000
     23      -5.6435      2.00000
     24      -3.7195      2.00000
     25      -3.6713      2.00000
     26      -3.6713      2.00000
     27      -3.6713      2.00000
     28      -3.2753      2.00000
     29      -3.2753      2.00000
     30      -3.2753      2.00000
     31      -3.0321      2.00000
     32      -3.0321      2.00000
     33      -3.0321      2.00000
     34      -2.6520      2.00000
     35      -2.6520      2.00000
     36      -2.6520      2.00000
     37      -2.6520      2.00000
     38      -2.6520      2.00000
     39      -2.6520      2.00000
     40      -2.1304      2.00000
     41      -2.1304      2.00000
     42      -2.1304      2.00000
     43      -2.1304      2.00000
     44      -2.1304      2.00000
     45      -2.1304      2.00000
     46       0.7863      2.00000
     47       0.7863      2.00000
     48       0.7863      2.00000
     49       0.7863      2.00000
     50       0.7863      2.00000
     51       0.7863      2.00000
     52       0.9425      2.00000
     53       0.9425      2.00000
     54       0.9425      2.00000
     55       0.9425      2.00000
     56       0.9425      2.00000
     57       0.9425      2.00000
     58       1.3291      2.00000
     59       1.3291      2.00000
     60       1.3291      2.00000
     61       1.3291      2.00000
     62       1.3291      2.00000
     63       1.3291      2.00000
     64       1.3326      2.00000
     65       1.3326      2.00000
     66       1.3326      2.00000
     67       1.3326      2.00000
     68       1.3326      2.00000
     69       1.3326      2.00000
     70       1.9389      2.00000
     71       1.9389      2.00000
     72       1.9389      2.00000
     73       1.9389      2.00000
     74       1.9389      2.00000
     75       1.9389      2.00000
     76       2.1033      2.00000
     77       2.1033      2.00000
[...]
      4.343900  0.769132  6.279934     0.000000   -0.065360    0.064039  
      0.682100  4.358413  6.279934    -0.000000    0.065360   -0.064039  
      4.272100  4.358413  6.279934     0.000000   -0.065360    0.064039  
     -0.035900  1.794641  0.000000    -0.000000    0.125926   -0.123381  
      3.554099  1.794641  0.000000     0.000000   -0.125926    0.123381  
     -0.107700  5.383922  0.000000    -0.000000    0.125926   -0.123381  
      3.482300  5.383922  0.000000     0.000000   -0.125926    0.123381  
     -0.107700  1.721390  3.588534    -0.000000    0.125926   -0.123381  
      3.482300  1.721390  3.588534     0.000000   -0.125926    0.123381  
     -0.179499  5.310671  3.588534    -0.000000    0.125926   -0.123381  
      3.410500  5.310671  3.588534     0.000000   -0.125926    0.123381  
      2.584800  2.637023  2.691400     0.000000   -0.108037    0.105854  
      6.174799  2.637023  2.691400    -0.000000    0.108037   -0.105854  
      2.513000  6.226304  2.691400     0.000000   -0.108037    0.105854  
      6.102999  6.226304  2.691400    -0.000000    0.108037   -0.105854  
      2.513000  2.563773  6.279934     0.000000   -0.108037    0.105854  
      6.102999  2.563773  6.279934    -0.000000    0.108037   -0.105854  
      2.441200  6.153054  6.279934     0.000000   -0.108037    0.105854  
      6.031200  6.153054  6.279934    -0.000000    0.108037   -0.105854  
      1.795000  0.000000  0.000000    -0.000000   -0.009307    0.009119  
      5.384999  0.000000  0.000000    -0.000000    0.009307   -0.009119  
      1.723200  3.589281  0.000000     0.000000   -0.009307    0.009119  
      5.313199  3.589281  0.000000     0.000000    0.009307   -0.009119  
      1.723200 -0.073250  3.588534    -0.000000   -0.009307    0.009119  
      5.313199 -0.073250  3.588534    -0.000000    0.009307   -0.009119  
      1.651400  3.516031  3.588534     0.000000   -0.009307    0.009119  
      5.241399  3.516031  3.588534     0.000000    0.009307   -0.009119  
      2.656600  0.879008  0.897133     0.000000   -0.108037    0.105854  
      6.246599  0.879008  0.897133    -0.000000    0.108037   -0.105854  
      2.584800  4.468289  0.897133     0.000000   -0.108037    0.105854  
      6.174799  4.468289  0.897133    -0.000000    0.108037   -0.105854  
      2.584800  0.805757  4.485667     0.000000   -0.108037    0.105854  
      6.174799  0.805757  4.485667    -0.000000    0.108037   -0.105854  
      2.513000  4.395038  4.485667     0.000000   -0.108037    0.105854  
      6.102999  4.395038  4.485667    -0.000000    0.108037   -0.105854  
      1.723200  1.758015  1.794267    -0.000000   -0.009307    0.009119  
      5.313199  1.758015  1.794267    -0.000000    0.009307   -0.009119  
      1.651400  5.347296  1.794267    -0.000000   -0.009307    0.009119  
      5.241399  5.347296  1.794267    -0.000000    0.009307   -0.009119  
      1.651400  1.684765  5.382801     0.000000   -0.009307    0.009119  
      5.241399  1.684765  5.382801     0.000000    0.009307   -0.009119  
      1.579600  5.274046  5.382801     0.000000   -0.009307    0.009119  
      5.169600  5.274046  5.382801     0.000000    0.009307   -0.009119  
 
 190 f/i=    0.000004 THz     0.000022 2PiTHz    0.000119 cm-1     0.000015 meV
             X         Y         Z           dx          dy          dz
      0.825700  2.673648  0.897133    -0.096877    0.078822    0.005195  
      4.415699  2.673648  0.897133    -0.096877    0.078822    0.005195  
      0.753900  6.262929  0.897133    -0.096877    0.078822    0.005195  
      4.343900  6.262929  0.897133    -0.096877    0.078822    0.005195  
      0.753900  2.600398  4.485667    -0.096877    0.078822    0.005195  
      4.343900  2.600398  4.485667    -0.096877    0.078822    0.005195  
      0.682100  6.189679  4.485667    -0.096877    0.078822    0.005195  
      4.272100  6.189679  4.485667    -0.096877    0.078822    0.005195  
     -0.035900 -0.036625  1.794267    -0.096877    0.078822    0.005195  
      3.554099 -0.036625  1.794267    -0.096877    0.078822    0.005195  
     -0.107700  3.552656  1.794267    -0.096877    0.078822    0.005195  
      3.482300  3.552656  1.794267    -0.096877    0.078822    0.005195  
     -0.107700 -0.109876  5.382801    -0.096877    0.078822    0.005195  
      3.482300 -0.109876  5.382801    -0.096877    0.078822    0.005195  
     -0.179499  3.479406  5.382801    -0.096877    0.078822    0.005195  
      3.410500  3.479406  5.382801    -0.096877    0.078822    0.005195  
      0.825700  0.842382  2.691400    -0.096877    0.078822    0.005195  
      4.415699  0.842382  2.691400    -0.096877    0.078822    0.005195  
      0.753900  4.431664  2.691400    -0.096877    0.078822    0.005195  
      4.343900  4.431664  2.691400    -0.096877    0.078822    0.005195  
      0.753900  0.769132  6.279934    -0.096877    0.078822    0.005195  
      4.343900  0.769132  6.279934    -0.096877    0.078822    0.005195  
      0.682100  4.358413  6.279934    -0.096877    0.078822    0.005195  
      4.272100  4.358413  6.279934    -0.096877    0.078822    0.005195  
     -0.035900  1.794641  0.000000    -0.096877    0.078822    0.005195  
      3.554099  1.794641  0.000000    -0.096877    0.078822    0.005195  
     -0.107700  5.383922  0.000000    -0.096877    0.078822    0.005195  
      3.482300  5.383922  0.000000    -0.096877    0.078822    0.005195  
     -0.107700  1.721390  3.588534    -0.096877    0.078822    0.005195  
      3.482300  1.721390  3.588534    -0.096877    0.078822    0.005195  
     -0.179499  5.310671  3.588534    -0.096877    0.078822    0.005195  
      3.410500  5.310671  3.588534    -0.096877    0.078822    0.005195  
      2.584800  2.637023  2.691400    -0.096877    0.078822    0.005195  
      6.174799  2.637023  2.691400    -0.096877    0.078822    0.005195  
      2.513000  6.226304  2.691400    -0.096877    0.078822    0.005195  
      6.102999  6.226304  2.691400    -0.096877    0.078822    0.005195  
      2.513000  2.563773  6.279934    -0.096877    0.078822    0.005195  
      6.102999  2.563773  6.279934    -0.096877    0.078822    0.005195  
      2.441200  6.153054  6.279934    -0.096877    0.078822    0.005195  
      6.031200  6.153054  6.279934    -0.096877    0.078822    0.005195  
      1.795000  0.000000  0.000000    -0.096877    0.078822    0.005195  
      5.384999  0.000000  0.000000    -0.096877    0.078822    0.005195  
      1.723200  3.589281  0.000000    -0.096877    0.078822    0.005195  
      5.313199  3.589281  0.000000    -0.096877    0.078822    0.005195  
      1.723200 -0.073250  3.588534    -0.096877    0.078822    0.005195  
      5.313199 -0.073250  3.588534    -0.096877    0.078822    0.005195  
      1.651400  3.516031  3.588534    -0.096877    0.078822    0.005195  
      5.241399  3.516031  3.588534    -0.096877    0.078822    0.005195  
      2.656600  0.879008  0.897133    -0.096877    0.078822    0.005195  
      6.246599  0.879008  0.897133    -0.096877    0.078822    0.005195  
      2.584800  4.468289  0.897133    -0.096877    0.078822    0.005195  
      6.174799  4.468289  0.897133    -0.096877    0.078822    0.005195  
      2.584800  0.805757  4.485667    -0.096877    0.078822    0.005195  
      6.174799  0.805757  4.485667    -0.096877    0.078822    0.005195  
      2.513000  4.395038  4.485667    -0.096877    0.078822    0.005195  
      6.102999  4.395038  4.485667    -0.096877    0.078822    0.005195  
      1.723200  1.758015  1.794267    -0.096877    0.078822    0.005195  
      5.313199  1.758015  1.794267    -0.096877    0.078822    0.005195  
      1.651400  5.347296  1.794267    -0.096877    0.078822    0.005195  
      5.241399  5.347296  1.794267    -0.096877    0.078822    0.005195  
      1.651400  1.684765  5.382801    -0.096877    0.078822    0.005195  
      5.241399  1.684765  5.382801    -0.096877    0.078822    0.005195  
      1.579600  5.274046  5.382801    -0.096877    0.078822    0.005195  
      5.169600  5.274046  5.382801    -0.096877    0.078822    0.005195  
 
 191 f/i=    0.000004 THz     0.000026 2PiTHz    0.000140 cm-1     0.000017 meV
             X         Y         Z           dx          dy          dz
      0.825700  2.673648  0.897133     0.049268    0.066718   -0.093523  
      4.415699  2.673648  0.897133     0.049268    0.066718   -0.093523  
      0.753900  6.262929  0.897133     0.049268    0.066718   -0.093523  
      4.343900  6.262929  0.897133     0.049268    0.066718   -0.093523  
      0.753900  2.600398  4.485667     0.049268    0.066718   -0.093523  
      4.343900  2.600398  4.485667     0.049268    0.066718   -0.093523  
      0.682100  6.189679  4.485667     0.049268    0.066718   -0.093523  
      4.272100  6.189679  4.485667     0.049268    0.066718   -0.093523  
     -0.035900 -0.036625  1.794267     0.049268    0.066718   -0.093523  
      3.554099 -0.036625  1.794267     0.049268    0.066718   -0.093523  
     -0.107700  3.552656  1.794267     0.049268    0.066718   -0.093523  
      3.482300  3.552656  1.794267     0.049268    0.066718   -0.093523  
     -0.107700 -0.109876  5.382801     0.049268    0.066718   -0.093523  
      3.482300 -0.109876  5.382801     0.049268    0.066718   -0.093523  
     -0.179499  3.479406  5.382801     0.049268    0.066718   -0.093523  
      3.410500  3.479406  5.382801     0.049268    0.066718   -0.093523  
      0.825700  0.842382  2.691400     0.049268    0.066718   -0.093523  
      4.415699  0.842382  2.691400     0.049268    0.066718   -0.093523  
      0.753900  4.431664  2.691400     0.049268    0.066718   -0.093523  
      4.343900  4.431664  2.691400     0.049268    0.066718   -0.093523  
      0.753900  0.769132  6.279934     0.049268    0.066718   -0.093523  
      4.343900  0.769132  6.279934     0.049268    0.066718   -0.093523  
      0.682100  4.358413  6.279934     0.049268    0.066718   -0.093523  
      4.272100  4.358413  6.279934     0.049268    0.066718   -0.093523  
     -0.035900  1.794641  0.000000     0.049268    0.066718   -0.093523  
      3.554099  1.794641  0.000000     0.049268    0.066718   -0.093523  
     -0.107700  5.383922  0.000000     0.049268    0.066718   -0.093523  
      3.482300  5.383922  0.000000     0.049268    0.066718   -0.093523  
     -0.107700  1.721390  3.588534     0.049268    0.066718   -0.093523  
      3.482300  1.721390  3.588534     0.049268    0.066718   -0.093523  
     -0.179499  5.310671  3.588534     0.049268    0.066718   -0.093523  
      3.410500  5.310671  3.588534     0.049268    0.066718   -0.093523  
      2.584800  2.637023  2.691400     0.049268    0.066718   -0.093523  
      6.174799  2.637023  2.691400     0.049268    0.066718   -0.093523  
      2.513000  6.226304  2.691400     0.049268    0.066718   -0.093523  
      6.102999  6.226304  2.691400     0.049268    0.066718   -0.093523  
      2.513000  2.563773  6.279934     0.049268    0.066718   -0.093523  
      6.102999  2.563773  6.279934     0.049268    0.066718   -0.093523  
      2.441200  6.153054  6.279934     0.049268    0.066718   -0.093523  
      6.031200  6.153054  6.279934     0.049268    0.066718   -0.093523  
      1.795000  0.000000  0.000000     0.049268    0.066718   -0.093523  
      5.384999  0.000000  0.000000     0.049268    0.066718   -0.093523  
      1.723200  3.589281  0.000000     0.049268    0.066718   -0.093523  
      5.313199  3.589281  0.000000     0.049268    0.066718   -0.093523  
      1.723200 -0.073250  3.588534     0.049268    0.066718   -0.093523  
      5.313199 -0.073250  3.588534     0.049268    0.066718   -0.093523  
      1.651400  3.516031  3.588534     0.049268    0.066718   -0.093523  
      5.241399  3.516031  3.588534     0.049268    0.066718   -0.093523  
      2.656600  0.879008  0.897133     0.049268    0.066718   -0.093523  
      6.246599  0.879008  0.897133     0.049268    0.066718   -0.093523  
      2.584800  4.468289  0.897133     0.049268    0.066718   -0.093523  
      6.174799  4.468289  0.897133     0.049268    0.066718   -0.093523  
      2.584800  0.805757  4.485667     0.049268    0.066718   -0.093523  
      6.174799  0.805757  4.485667     0.049268    0.066718   -0.093523  
      2.513000  4.395038  4.485667     0.049268    0.066718   -0.093523  
      6.102999  4.395038  4.485667     0.049268    0.066718   -0.093523  
      1.723200  1.758015  1.794267     0.049268    0.066718   -0.093523  
      5.313199  1.758015  1.794267     0.049268    0.066718   -0.093523  
      1.651400  5.347296  1.794267     0.049268    0.066718   -0.093523  
      5.241399  5.347296  1.794267     0.049268    0.066718   -0.093523  
      1.651400  1.684765  5.382801     0.049268    0.066718   -0.093523  
      5.241399  1.684765  5.382801     0.049268    0.066718   -0.093523  
      1.579600  5.274046  5.382801     0.049268    0.066718   -0.093523  
      5.169600  5.274046  5.382801     0.049268    0.066718   -0.093523  
 
 192 f/i=    0.000005 THz     0.000029 2PiTHz    0.000155 cm-1     0.000019 meV
             X         Y         Z           dx          dy          dz
      0.825700  2.673648  0.897133    -0.061746   -0.070434   -0.082774  
      4.415699  2.673648  0.897133    -0.061746   -0.070434   -0.082774  
      0.753900  6.262929  0.897133    -0.061746   -0.070434   -0.082774  
      4.343900  6.262929  0.897133    -0.061746   -0.070434   -0.082774  
      0.753900  2.600398  4.485667    -0.061746   -0.070434   -0.082774  
      4.343900  2.600398  4.485667    -0.061746   -0.070434   -0.082774  
      0.682100  6.189679  4.485667    -0.061746   -0.070434   -0.082774  
      4.272100  6.189679  4.485667    -0.061746   -0.070434   -0.082774  
     -0.035900 -0.036625  1.794267    -0.061746   -0.070434   -0.082774  
      3.554099 -0.036625  1.794267    -0.061746   -0.070434   -0.082774  
     -0.107700  3.552656  1.794267    -0.061746   -0.070434   -0.082774  
      3.482300  3.552656  1.794267    -0.061746   -0.070434   -0.082774  
     -0.107700 -0.109876  5.382801    -0.061746   -0.070434   -0.082774  
      3.482300 -0.109876  5.382801    -0.061746   -0.070434   -0.082774  
     -0.179499  3.479406  5.382801    -0.061746   -0.070434   -0.082774  
      3.410500  3.479406  5.382801    -0.061746   -0.070434   -0.082774  
      0.825700  0.842382  2.691400    -0.061746   -0.070434   -0.082774  
      4.415699  0.842382  2.691400    -0.061746   -0.070434   -0.082774  
      0.753900  4.431664  2.691400    -0.061746   -0.070434   -0.082774  
      4.343900  4.431664  2.691400    -0.061746   -0.070434   -0.082774  
      0.753900  0.769132  6.279934    -0.061746   -0.070434   -0.082774  
      4.343900  0.769132  6.279934    -0.061746   -0.070434   -0.082774  
      0.682100  4.358413  6.279934    -0.061746   -0.070434   -0.082774  
      4.272100  4.358413  6.279934    -0.061746   -0.070434   -0.082774  
     -0.035900  1.794641  0.000000    -0.061746   -0.070434   -0.082774  
      3.554099  1.794641  0.000000    -0.061746   -0.070434   -0.082774  
     -0.107700  5.383922  0.000000    -0.061746   -0.070434   -0.082774  
      3.482300  5.383922  0.000000    -0.061746   -0.070434   -0.082774  
     -0.107700  1.721390  3.588534    -0.061746   -0.070434   -0.082774  
      3.482300  1.721390  3.588534    -0.061746   -0.070434   -0.082774  
     -0.179499  5.310671  3.588534    -0.061746   -0.070434   -0.082774  
      3.410500  5.310671  3.588534    -0.061746   -0.070434   -0.082774  
      2.584800  2.637023  2.691400    -0.061746   -0.070434   -0.082774  
      6.174799  2.637023  2.691400    -0.061746   -0.070434   -0.082774  
      2.513000  6.226304  2.691400    -0.061746   -0.070434   -0.082774  
      6.102999  6.226304  2.691400    -0.061746   -0.070434   -0.082774  
      2.513000  2.563773  6.279934    -0.061746   -0.070434   -0.082774  
      6.102999  2.563773  6.279934    -0.061746   -0.070434   -0.082774  
      2.441200  6.153054  6.279934    -0.061746   -0.070434   -0.082774  
      6.031200  6.153054  6.279934    -0.061746   -0.070434   -0.082774  
      1.795000  0.000000  0.000000    -0.061746   -0.070434   -0.082774  
      5.384999  0.000000  0.000000    -0.061746   -0.070434   -0.082774  
      1.723200  3.589281  0.000000    -0.061746   -0.070434   -0.082774  
      5.313199  3.589281  0.000000    -0.061746   -0.070434   -0.082774  
      1.723200 -0.073250  3.588534    -0.061746   -0.070434   -0.082774  
      5.313199 -0.073250  3.588534    -0.061746   -0.070434   -0.082774  
      1.651400  3.516031  3.588534    -0.061746   -0.070434   -0.082774  
      5.241399  3.516031  3.588534    -0.061746   -0.070434   -0.082774  
      2.656600  0.879008  0.897133    -0.061746   -0.070434   -0.082774  
      6.246599  0.879008  0.897133    -0.061746   -0.070434   -0.082774  
      2.584800  4.468289  0.897133    -0.061746   -0.070434   -0.082774  
      6.174799  4.468289  0.897133    -0.061746   -0.070434   -0.082774  
      2.584800  0.805757  4.485667    -0.061746   -0.070434   -0.082774  
      6.174799  0.805757  4.485667    -0.061746   -0.070434   -0.082774  
      2.513000  4.395038  4.485667    -0.061746   -0.070434   -0.082774  
      6.102999  4.395038  4.485667    -0.061746   -0.070434   -0.082774  
      1.723200  1.758015  1.794267    -0.061746   -0.070434   -0.082774  
      5.313199  1.758015  1.794267    -0.061746   -0.070434   -0.082774  
      1.651400  5.347296  1.794267    -0.061746   -0.070434   -0.082774  
      5.241399  5.347296  1.794267    -0.061746   -0.070434   -0.082774  
      1.651400  1.684765  5.382801    -0.061746   -0.070434   -0.082774  
      5.241399  1.684765  5.382801    -0.061746   -0.070434   -0.082774  
      1.579600  5.274046  5.382801    -0.061746   -0.070434   -0.082774  
      5.169600  5.274046  5.382801    -0.061746   -0.070434   -0.082774  
 


--------------------------------------------------------------------------------------------------------



 ELASTIC MODULI CONTR FROM IONIC RELAXATION (kBar)
 Direction    XX          YY          ZZ          XY          YZ          ZX
 --------------------------------------------------------------------------------
 XX         -11.4331    -12.0235    -12.9059    -19.8782    -21.6139    -20.2903
 YY         -12.0235    -13.0857    -13.8525    -21.4283    -22.1647    -22.6232
 ZZ         -12.9059    -13.8525    -14.9649    -23.6599    -23.8670    -23.3925
 XY         -19.8782    -21.4283    -23.6599    -38.7930    -36.2082    -35.4729
 YZ         -21.6139    -22.1647    -23.8670    -36.2082    -41.7203    -36.9700
 ZX         -20.2903    -22.6232    -23.3925    -35.4729    -36.9700    -40.2409
 --------------------------------------------------------------------------------



--------------------------------------------------------------------------------------------------------


     LOOP+:  cpu time 1218.3448: real time 1218.5595
    4ORBIT:  cpu time    0.0000: real time    0.0000

 total amount of memory used by VASP MPI-rank0    83596. kBytes
=======================================================================

   base      :      30000. kBytes
   nonl-proj :      20742. kBytes
   fftplans  :       4537. kBytes
   grid      :       5806. kBytes
   one-center:        196. kBytes
   wavefun   :      22315. kBytes
 
  
  
 General timing and accounting informations for this job:
 ========================================================
  
                  Total CPU time used (sec):     1230.594
                            User time (sec):     1223.694
                          System time (sec):        6.900
                         Elapsed time (sec):     1231.027
  
                   Maximum memory used (kb):      432508.
                   Average memory used (kb):           0.
  
                          Minor page faults:        39333
                          Major page faults:           36
                 Voluntary context switches:          851
