# Thermal properties / unit cell (natom)

unit:
  temperature:   K
  free_energy:   kJ/mol
  entropy:       J/K/mol
  heat_capacity: J/K/mol

natom: 8    
cutoff_frequency:    0.000
num_modes: 2654208
num_integrated_modes: 2654208

zero_point_energy:     136.3520364
high_T_entropy:        436.4350119

thermal_properties:
- temperature:         0.0000000
  free_energy:       136.3520364
  entropy:             0.0000000
  heat_capacity:       0.0000000
  energy:            136.3520364

- temperature:         2.0000000
  free_energy:       136.3520364
  entropy:             0.0000000
  heat_capacity:       0.0000000
  energy:            136.3520364

- temperature:         4.0000000
  free_energy:       136.3520364
  entropy:             0.0000092
  heat_capacity:       0.0000572
  energy:            136.3520364

- temperature:         6.0000000
  free_energy:       136.3520363
  entropy:             0.0000737
  heat_capacity:       0.0003148
  energy:            136.3520368

- temperature:         8.0000000
  free_energy:       136.3520360
  entropy:             0.0002255
  heat_capacity:       0.0008066
  energy:            136.3520378

- temperature:        10.0000000
  free_energy:       136.3520353
  entropy:             0.0004841
  heat_capacity:       0.0015971
  energy:            136.3520402

- temperature:        12.0000000
  free_energy:       136.3520340
  entropy:             0.0008724
  heat_capacity:       0.0027687
  energy:            136.3520445

- temperature:        14.0000000
  free_energy:       136.3520318
  entropy:             0.0014155
  heat_capacity:       0.0044029
  energy:            136.3520516

- temperature:        16.0000000
  free_energy:       136.3520282
  entropy:             0.0021390
  heat_capacity:       0.0065803
  energy:            136.3520625

- temperature:        18.0000000
  free_energy:       136.3520231
  entropy:             0.0030693
  heat_capacity:       0.0093815
  energy:            136.3520783

- temperature:        20.0000000
  free_energy:       136.3520158
  entropy:             0.0042327
  heat_capacity:       0.0128880
  energy:            136.3521004

- temperature:        22.0000000
  free_energy:       136.3520060
  entropy:             0.0056558
  heat_capacity:       0.0171821
  energy:            136.3521304

- temperature:        24.0000000
  free_energy:       136.3519930
  entropy:             0.0073657
  heat_capacity:       0.0223479
  energy:            136.3521698

- temperature:        26.0000000
  free_energy:       136.3519763
  entropy:             0.0093896
  heat_capacity:       0.0284707
  energy:            136.3522204

- temperature:        28.0000000
  free_energy:       136.3519552
  entropy:             0.0117551
  heat_capacity:       0.0356379
  energy:            136.3522843

- temperature:        30.0000000
  free_energy:       136.3519290
  entropy:             0.0144901
  heat_capacity:       0.0439392
  energy:            136.3523637

- temperature:        32.0000000
  free_energy:       136.3518970
  entropy:             0.0176232
  heat_capacity:       0.0534665
  energy:            136.3524609

- temperature:        34.0000000
  free_energy:       136.3518582
  entropy:             0.0211832
  heat_capacity:       0.0643149
  energy:            136.3525785

- temperature:        36.0000000
  free_energy:       136.3518119
  entropy:             0.0251996
  heat_capacity:       0.0765825
  energy:            136.3527191

- temperature:        38.0000000
  free_energy:       136.3517571
  entropy:             0.0297025
  heat_capacity:       0.0903715
  energy:            136.3528858

- temperature:        40.0000000
  free_energy:       136.3516928
  entropy:             0.0347228
  heat_capacity:       0.1057886
  energy:            136.3530817

- temperature:        42.0000000
  free_energy:       136.3516179
  entropy:             0.0402921
  heat_capacity:       0.1229455
  energy:            136.3533101

- temperature:        44.0000000
  free_energy:       136.3515312
  entropy:             0.0464429
  heat_capacity:       0.1419601
  energy:            136.3535747

- temperature:        46.0000000
  free_energy:       136.3514317
  entropy:             0.0532089
  heat_capacity:       0.1629573
  energy:            136.3538793

- temperature:        48.0000000
  free_energy:       136.3513180
  entropy:             0.0606249
  heat_capacity:       0.1860695
  energy:            136.3542279

- temperature:        50.0000000
  free_energy:       136.3511887
  entropy:             0.0687270
  heat_capacity:       0.2114378
  energy:            136.3546251

- temperature:        52.0000000
  free_energy:       136.3510426
  entropy:             0.0775527
  heat_capacity:       0.2392128
  energy:            136.3550753

- temperature:        54.0000000
  free_energy:       136.3508780
  entropy:             0.0871413
  heat_capacity:       0.2695548
  energy:            136.3555836

- temperature:        56.0000000
  free_energy:       136.3506935
  entropy:             0.0975337
  heat_capacity:       0.3026349
  energy:            136.3561553

- temperature:        58.0000000
  free_energy:       136.3504873
  entropy:             0.1087727
  heat_capacity:       0.3386344
  energy:            136.3567961

- temperature:        60.0000000
  free_energy:       136.3502578
  entropy:             0.1209031
  heat_capacity:       0.3777455
  energy:            136.3575120

- temperature:        62.0000000
  free_energy:       136.3500031
  entropy:             0.1339717
  heat_capacity:       0.4201705
  energy:            136.3583093

- temperature:        64.0000000
  free_energy:       136.3497212
  entropy:             0.1480275
  heat_capacity:       0.4661214
  energy:            136.3591950

- temperature:        66.0000000
  free_energy:       136.3494103
  entropy:             0.1631217
  heat_capacity:       0.5158193
  energy:            136.3601763

- temperature:        68.0000000
  free_energy:       136.3490680
  entropy:             0.1793074
  heat_capacity:       0.5694932
  energy:            136.3612609

- temperature:        70.0000000
  free_energy:       136.3486923
  entropy:             0.1966401
  heat_capacity:       0.6273787
  energy:            136.3624571

- temperature:        72.0000000
  free_energy:       136.3482807
  entropy:             0.2151771
  heat_capacity:       0.6897170
  energy:            136.3637734

- temperature:        74.0000000
  free_energy:       136.3478307
  entropy:             0.2349778
  heat_capacity:       0.7567531
  energy:            136.3652191

- temperature:        76.0000000
  free_energy:       136.3473399
  entropy:             0.2561033
  heat_capacity:       0.8287345
  energy:            136.3668037

- temperature:        78.0000000
  free_energy:       136.3468054
  entropy:             0.2786166
  heat_capacity:       0.9059098
  energy:            136.3685375

- temperature:        80.0000000
  free_energy:       136.3462244
  entropy:             0.3025819
  heat_capacity:       0.9885266
  energy:            136.3704310

- temperature:        82.0000000
  free_energy:       136.3455940
  entropy:             0.3280650
  heat_capacity:       1.0768306
  energy:            136.3724954

- temperature:        84.0000000
  free_energy:       136.3449111
  entropy:             0.3551327
  heat_capacity:       1.1710640
  energy:            136.3747423

- temperature:        86.0000000
  free_energy:       136.3441724
  entropy:             0.3838527
  heat_capacity:       1.2714637
  energy:            136.3771837

- temperature:        88.0000000
  free_energy:       136.3433746
  entropy:             0.4142935
  heat_capacity:       1.3782610
  energy:            136.3798324

- temperature:        90.0000000
  free_energy:       136.3425140
  entropy:             0.4465240
  heat_capacity:       1.4916794
  energy:            136.3827012

- temperature:        92.0000000
  free_energy:       136.3415872
  entropy:             0.4806134
  heat_capacity:       1.6119345
  energy:            136.3858037

- temperature:        94.0000000
  free_energy:       136.3405903
  entropy:             0.5166312
  heat_capacity:       1.7392327
  energy:            136.3891536

- temperature:        96.0000000
  free_energy:       136.3395194
  entropy:             0.5546463
  heat_capacity:       1.8737706
  energy:            136.3927654

- temperature:        98.0000000
  free_energy:       136.3383703
  entropy:             0.5947278
  heat_capacity:       2.0157343
  energy:            136.3966537

- temperature:       100.0000000
  free_energy:       136.3371390
  entropy:             0.6369439
  heat_capacity:       2.1652991
  energy:            136.4008334

- temperature:       102.0000000
  free_energy:       136.3358211
  entropy:             0.6813622
  heat_capacity:       2.3226292
  energy:            136.4053200

- temperature:       104.0000000
  free_energy:       136.3344121
  entropy:             0.7280495
  heat_capacity:       2.4878773
  energy:            136.4101292

- temperature:       106.0000000
  free_energy:       136.3329073
  entropy:             0.7770715
  heat_capacity:       2.6611847
  energy:            136.4152769

- temperature:       108.0000000
  free_energy:       136.3313022
  entropy:             0.8284929
  heat_capacity:       2.8426808
  energy:            136.4207794

- temperature:       110.0000000
  free_energy:       136.3295917
  entropy:             0.8823769
  heat_capacity:       3.0324841
  energy:            136.4266532

- temperature:       112.0000000
  free_energy:       136.3277710
  entropy:             0.9387854
  heat_capacity:       3.2307011
  energy:            136.4329150

- temperature:       114.0000000
  free_energy:       136.3258349
  entropy:             0.9977789
  heat_capacity:       3.4374276
  energy:            136.4395817

- temperature:       116.0000000
  free_energy:       136.3237781
  entropy:             1.0594162
  heat_capacity:       3.6527481
  energy:            136.4466704

- temperature:       118.0000000
  free_energy:       136.3215954
  entropy:             1.1237545
  heat_capacity:       3.8767367
  energy:            136.4541984

- temperature:       120.0000000
  free_energy:       136.3192813
  entropy:             1.1908492
  heat_capacity:       4.1094571
  energy:            136.4621832

- temperature:       122.0000000
  free_energy:       136.3168301
  entropy:             1.2607540
  heat_capacity:       4.3509627
  energy:            136.4706421

- temperature:       124.0000000
  free_energy:       136.3142363
  entropy:             1.3335207
  heat_capacity:       4.6012975
  energy:            136.4795929

- temperature:       126.0000000
  free_energy:       136.3114941
  entropy:             1.4091993
  heat_capacity:       4.8604962
  energy:            136.4890532

- temperature:       128.0000000
  free_energy:       136.3085976
  entropy:             1.4878379
  heat_capacity:       5.1285843
  energy:            136.4990408

- temperature:       130.0000000
  free_energy:       136.3055407
  entropy:             1.5694826
  heat_capacity:       5.4055788
  energy:            136.5095735

- temperature:       132.0000000
  free_energy:       136.3023176
  entropy:             1.6541778
  heat_capacity:       5.6914886
  energy:            136.5206691

- temperature:       134.0000000
  free_energy:       136.2989220
  entropy:             1.7419658
  heat_capacity:       5.9863144
  energy:            136.5323454

- temperature:       136.0000000
  free_energy:       136.2953476
  entropy:             1.8328869
  heat_capacity:       6.2900498
  energy:            136.5446203

- temperature:       138.0000000
  free_energy:       136.2915883
  entropy:             1.9269798
  heat_capacity:       6.6026807
  energy:            136.5575115

- temperature:       140.0000000
  free_energy:       136.2876376
  entropy:             2.0242809
  heat_capacity:       6.9241863
  energy:            136.5710369

- temperature:       142.0000000
  free_energy:       136.2834890
  entropy:             2.1248249
  heat_capacity:       7.2545394
  energy:            136.5852142

- temperature:       144.0000000
  free_energy:       136.2791361
  entropy:             2.2286447
  heat_capacity:       7.5937062
  energy:            136.6000609

- temperature:       146.0000000
  free_energy:       136.2745722
  entropy:             2.3357712
  heat_capacity:       7.9416469
  energy:            136.6155948

- temperature:       148.0000000
  free_energy:       136.2697908
  entropy:             2.4462335
  heat_capacity:       8.2983162
  energy:            136.6318333

- temperature:       150.0000000
  free_energy:       136.2647851
  entropy:             2.5600588
  heat_capacity:       8.6636628
  energy:            136.6487939

- temperature:       152.0000000
  free_energy:       136.2595483
  entropy:             2.6772727
  heat_capacity:       9.0376306
  energy:            136.6664937

- temperature:       154.0000000
  free_energy:       136.2540737
  entropy:             2.7978988
  heat_capacity:       9.4201581
  energy:            136.6849501

- temperature:       156.0000000
  free_energy:       136.2483544
  entropy:             2.9219591
  heat_capacity:       9.8111791
  energy:            136.7041800

- temperature:       158.0000000
  free_energy:       136.2423836
  entropy:             3.0494740
  heat_capacity:      10.2106227
  energy:            136.7242004

- temperature:       160.0000000
  free_energy:       136.2361542
  entropy:             3.1804618
  heat_capacity:      10.6184135
  energy:            136.7450281

- temperature:       162.0000000
  free_energy:       136.2296594
  entropy:             3.3149397
  heat_capacity:      11.0344718
  energy:            136.7666796

- temperature:       164.0000000
  free_energy:       136.2228921
  entropy:             3.4529227
  heat_capacity:      11.4587139
  energy:            136.7891714

- temperature:       166.0000000
  free_energy:       136.2158453
  entropy:             3.5944248
  heat_capacity:      11.8910520
  energy:            136.8125199

- temperature:       168.0000000
  free_energy:       136.2085121
  entropy:             3.7394579
  heat_capacity:      12.3313947
  energy:            136.8367410

- temperature:       170.0000000
  free_energy:       136.2008852
  entropy:             3.8880327
  heat_capacity:      12.7796466
  energy:            136.8618507

- temperature:       172.0000000
  free_energy:       136.1929576
  entropy:             4.0401583
  heat_capacity:      13.2357093
  energy:            136.8878648

- temperature:       174.0000000
  free_energy:       136.1847221
  entropy:             4.1958422
  heat_capacity:      13.6994807
  energy:            136.9147987

- temperature:       176.0000000
  free_energy:       136.1761718
  entropy:             4.3550907
  heat_capacity:      14.1708556
  energy:            136.9426678

- temperature:       178.0000000
  free_energy:       136.1672994
  entropy:             4.5179084
  heat_capacity:      14.6497259
  energy:            136.9714871

- temperature:       180.0000000
  free_energy:       136.1580978
  entropy:             4.6842989
  heat_capacity:      15.1359803
  energy:            137.0012716

- temperature:       182.0000000
  free_energy:       136.1485598
  entropy:             4.8542640
  heat_capacity:      15.6295049
  energy:            137.0320359

- temperature:       184.0000000
  free_energy:       136.1386784
  entropy:             5.0278045
  heat_capacity:      16.1301832
  energy:            137.0637944

- temperature:       186.0000000
  free_energy:       136.1284462
  entropy:             5.2049197
  heat_capacity:      16.6378959
  energy:            137.0965613

- temperature:       188.0000000
  free_energy:       136.1178563
  entropy:             5.3856079
  heat_capacity:      17.1525217
  energy:            137.1303506

- temperature:       190.0000000
  free_energy:       136.1069014
  entropy:             5.5698658
  heat_capacity:      17.6739368
  energy:            137.1651759

- temperature:       192.0000000
  free_energy:       136.0955745
  entropy:             5.7576891
  heat_capacity:      18.2020154
  energy:            137.2010508

- temperature:       194.0000000
  free_energy:       136.0838683
  entropy:             5.9490724
  heat_capacity:      18.7366295
  energy:            137.2379883

- temperature:       196.0000000
  free_energy:       136.0717758
  entropy:             6.1440090
  heat_capacity:      19.2776494
  energy:            137.2760016

- temperature:       198.0000000
  free_energy:       136.0592899
  entropy:             6.3424910
  heat_capacity:      19.8249438
  energy:            137.3151031

- temperature:       200.0000000
  free_energy:       136.0464035
  entropy:             6.5445097
  heat_capacity:      20.3783795
  energy:            137.3553054

- temperature:       202.0000000
  free_energy:       136.0331095
  entropy:             6.7500551
  heat_capacity:      20.9378221
  energy:            137.3966206

- temperature:       204.0000000
  free_energy:       136.0194009
  entropy:             6.9591163
  heat_capacity:      21.5031356
  energy:            137.4390606

- temperature:       206.0000000
  free_energy:       136.0052707
  entropy:             7.1716811
  heat_capacity:      22.0741829
  energy:            137.4826370

- temperature:       208.0000000
  free_energy:       135.9907119
  entropy:             7.3877367
  heat_capacity:      22.6508258
  energy:            137.5273611

- temperature:       210.0000000
  free_energy:       135.9757174
  entropy:             7.6072691
  heat_capacity:      23.2329253
  energy:            137.5732439

- temperature:       212.0000000
  free_energy:       135.9602805
  entropy:             7.8302635
  heat_capacity:      23.8203411
  energy:            137.6202963

- temperature:       214.0000000
  free_energy:       135.9443941
  entropy:             8.0567041
  heat_capacity:      24.4129326
  energy:            137.6685288

- temperature:       216.0000000
  free_energy:       135.9280514
  entropy:             8.2865743
  heat_capacity:      25.0105585
  energy:            137.7179514

- temperature:       218.0000000
  free_energy:       135.9112455
  entropy:             8.5198566
  heat_capacity:      25.6130767
  energy:            137.7685743

- temperature:       220.0000000
  free_energy:       135.8939697
  entropy:             8.7565328
  heat_capacity:      26.2203452
  energy:            137.8204069

- temperature:       222.0000000
  free_energy:       135.8762171
  entropy:             8.9965837
  heat_capacity:      26.8322215
  energy:            137.8734587

- temperature:       224.0000000
  free_energy:       135.8579811
  entropy:             9.2399895
  heat_capacity:      27.4485628
  energy:            137.9277388

- temperature:       226.0000000
  free_energy:       135.8392549
  entropy:             9.4867296
  heat_capacity:      28.0692266
  energy:            137.9832558

- temperature:       228.0000000
  free_energy:       135.8200320
  entropy:             9.7367827
  heat_capacity:      28.6940702
  energy:            138.0400184

- temperature:       230.0000000
  free_energy:       135.8003056
  entropy:             9.9901269
  heat_capacity:      29.3229512
  energy:            138.0980348

- temperature:       232.0000000
  free_energy:       135.7800693
  entropy:            10.2467395
  heat_capacity:      29.9557275
  energy:            138.1573129

- temperature:       234.0000000
  free_energy:       135.7593165
  entropy:            10.5065971
  heat_capacity:      30.5922573
  energy:            138.2178602

- temperature:       236.0000000
  free_energy:       135.7380408
  entropy:            10.7696760
  heat_capacity:      31.2323992
  energy:            138.2796843

- temperature:       238.0000000
  free_energy:       135.7162357
  entropy:            11.0359515
  heat_capacity:      31.8760127
  energy:            138.3427921

- temperature:       240.0000000
  free_energy:       135.6938948
  entropy:            11.3053988
  heat_capacity:      32.5229575
  energy:            138.4071906

- temperature:       242.0000000
  free_energy:       135.6710120
  entropy:            11.5779922
  heat_capacity:      33.1730945
  energy:            138.4728861

- temperature:       244.0000000
  free_energy:       135.6475808
  entropy:            11.8537057
  heat_capacity:      33.8262851
  energy:            138.5398850

- temperature:       246.0000000
  free_energy:       135.6235951
  entropy:            12.1325126
  heat_capacity:      34.4823918
  energy:            138.6081932

- temperature:       248.0000000
  free_energy:       135.5990487
  entropy:            12.4143859
  heat_capacity:      35.1412779
  energy:            138.6778164

- temperature:       250.0000000
  free_energy:       135.5739355
  entropy:            12.6992981
  heat_capacity:      35.8028081
  energy:            138.7487600

- temperature:       252.0000000
  free_energy:       135.5482495
  entropy:            12.9872214
  heat_capacity:      36.4668479
  energy:            138.8210293

- temperature:       254.0000000
  free_energy:       135.5219846
  entropy:            13.2781275
  heat_capacity:      37.1332641
  energy:            138.8946290

- temperature:       256.0000000
  free_energy:       135.4951350
  entropy:            13.5719876
  heat_capacity:      37.8019250
  energy:            138.9695639

- temperature:       258.0000000
  free_energy:       135.4676947
  entropy:            13.8687728
  heat_capacity:      38.4726999
  energy:            139.0458381

- temperature:       260.0000000
  free_energy:       135.4396580
  entropy:            14.1684538
  heat_capacity:      39.1454597
  energy:            139.1234560

- temperature:       262.0000000
  free_energy:       135.4110190
  entropy:            14.4710007
  heat_capacity:      39.8200767
  energy:            139.2024212

- temperature:       264.0000000
  free_energy:       135.3817721
  entropy:            14.7763838
  heat_capacity:      40.4964247
  energy:            139.2827374

- temperature:       266.0000000
  free_energy:       135.3519116
  entropy:            15.0845728
  heat_capacity:      41.1743790
  energy:            139.3644080

- temperature:       268.0000000
  free_energy:       135.3214320
  entropy:            15.3955372
  heat_capacity:      41.8538166
  energy:            139.4474359

- temperature:       270.0000000
  free_energy:       135.2903276
  entropy:            15.7092464
  heat_capacity:      42.5346161
  energy:            139.5318242

- temperature:       272.0000000
  free_energy:       135.2585932
  entropy:            16.0256694
  heat_capacity:      43.2166576
  energy:            139.6175752

- temperature:       274.0000000
  free_energy:       135.2262232
  entropy:            16.3447751
  heat_capacity:      43.8998233
  energy:            139.7046915

- temperature:       276.0000000
  free_energy:       135.1932123
  entropy:            16.6665322
  heat_capacity:      44.5839967
  energy:            139.7931752

- temperature:       278.0000000
  free_energy:       135.1595553
  entropy:            16.9909095
  heat_capacity:      45.2690633
  energy:            139.8830281

- temperature:       280.0000000
  free_energy:       135.1252469
  entropy:            17.3178751
  heat_capacity:      45.9549105
  energy:            139.9742520

- temperature:       282.0000000
  free_energy:       135.0902821
  entropy:            17.6473976
  heat_capacity:      46.6414274
  energy:            140.0668482

- temperature:       284.0000000
  free_energy:       135.0546557
  entropy:            17.9794450
  heat_capacity:      47.3285050
  energy:            140.1608181

- temperature:       286.0000000
  free_energy:       135.0183626
  entropy:            18.3139856
  heat_capacity:      48.0160360
  energy:            140.2561625

- temperature:       288.0000000
  free_energy:       134.9813981
  entropy:            18.6509873
  heat_capacity:      48.7039153
  energy:            140.3528824

- temperature:       290.0000000
  free_energy:       134.9437571
  entropy:            18.9904182
  heat_capacity:      49.3920395
  energy:            140.4509784

- temperature:       292.0000000
  free_energy:       134.9054348
  entropy:            19.3322462
  heat_capacity:      50.0803070
  energy:            140.5504507

- temperature:       294.0000000
  free_energy:       134.8664265
  entropy:            19.6764391
  heat_capacity:      50.7686185
  energy:            140.6512996

- temperature:       296.0000000
  free_energy:       134.8267275
  entropy:            20.0229650
  heat_capacity:      51.4568763
  energy:            140.7535251

- temperature:       298.0000000
  free_energy:       134.7863331
  entropy:            20.3717916
  heat_capacity:      52.1449847
  energy:            140.8571270

- temperature:       300.0000000
  free_energy:       134.7452388
  entropy:            20.7228869
  heat_capacity:      52.8328501
  energy:            140.9621049

- temperature:       302.0000000
  free_energy:       134.7034401
  entropy:            21.0762189
  heat_capacity:      53.5203807
  energy:            141.0684582

- temperature:       304.0000000
  free_energy:       134.6609325
  entropy:            21.4317555
  heat_capacity:      54.2074866
  energy:            141.1761861

- temperature:       306.0000000
  free_energy:       134.6177116
  entropy:            21.7894647
  heat_capacity:      54.8940801
  energy:            141.2852878

- temperature:       308.0000000
  free_energy:       134.5737732
  entropy:            22.1493145
  heat_capacity:      55.5800751
  energy:            141.3957621

- temperature:       310.0000000
  free_energy:       134.5291129
  entropy:            22.5112732
  heat_capacity:      56.2653877
  energy:            141.5076076

- temperature:       312.0000000
  free_energy:       134.4837267
  entropy:            22.8753090
  heat_capacity:      56.9499358
  energy:            141.6208231

- temperature:       314.0000000
  free_energy:       134.4376103
  entropy:            23.2413901
  heat_capacity:      57.6336393
  energy:            141.7354068

- temperature:       316.0000000
  free_energy:       134.3907598
  entropy:            23.6094849
  heat_capacity:      58.3164198
  energy:            141.8513570

- temperature:       318.0000000
  free_energy:       134.3431711
  entropy:            23.9795621
  heat_capacity:      58.9982012
  energy:            141.9686718

- temperature:       320.0000000
  free_energy:       134.2948403
  entropy:            24.3515902
  heat_capacity:      59.6789088
  energy:            142.0873491

- temperature:       322.0000000
  free_energy:       134.2457634
  entropy:            24.7255381
  heat_capacity:      60.3584702
  energy:            142.2073867

- temperature:       324.0000000
  free_energy:       134.1959368
  entropy:            25.1013746
  heat_capacity:      61.0368145
  energy:            142.3287822

- temperature:       326.0000000
  free_energy:       134.1453567
  entropy:            25.4790687
  heat_capacity:      61.7138731
  energy:            142.4515331

- temperature:       328.0000000
  free_energy:       134.0940194
  entropy:            25.8585898
  heat_capacity:      62.3895786
  energy:            142.5756368

- temperature:       330.0000000
  free_energy:       134.0419212
  entropy:            26.2399070
  heat_capacity:      63.0638661
  energy:            142.7010905

- temperature:       332.0000000
  free_energy:       133.9890585
  entropy:            26.6229901
  heat_capacity:      63.7366719
  energy:            142.8278913

- temperature:       334.0000000
  free_energy:       133.9354280
  entropy:            27.0078087
  heat_capacity:      64.4079344
  energy:            142.9560361

- temperature:       336.0000000
  free_energy:       133.8810262
  entropy:            27.3943326
  heat_capacity:      65.0775936
  energy:            143.0855219

- temperature:       338.0000000
  free_energy:       133.8258496
  entropy:            27.7825320
  heat_capacity:      65.7455915
  energy:            143.2163454

- temperature:       340.0000000
  free_energy:       133.7698949
  entropy:            28.1723771
  heat_capacity:      66.4118715
  energy:            143.3485032

- temperature:       342.0000000
  free_energy:       133.7131590
  entropy:            28.5638383
  heat_capacity:      67.0763788
  energy:            143.4819917

- temperature:       344.0000000
  free_energy:       133.6556385
  entropy:            28.9568864
  heat_capacity:      67.7390603
  energy:            143.6168075

- temperature:       346.0000000
  free_energy:       133.5973304
  entropy:            29.3514921
  heat_capacity:      68.3998644
  energy:            143.7529467

- temperature:       348.0000000
  free_energy:       133.5382316
  entropy:            29.7476267
  heat_capacity:      69.0587415
  energy:            143.8904056

- temperature:       350.0000000
  free_energy:       133.4783389
  entropy:            30.1452612
  heat_capacity:      69.7156431
  energy:            144.0291803

- temperature:       352.0000000
  free_energy:       133.4176495
  entropy:            30.5443674
  heat_capacity:      70.3705226
  energy:            144.1692669

- temperature:       354.0000000
  free_energy:       133.3561605
  entropy:            30.9449169
  heat_capacity:      71.0233348
  energy:            144.3106611

- temperature:       356.0000000
  free_energy:       133.2938689
  entropy:            31.3468817