<?xml version="1.0" encoding="ISO-8859-1"?>
<modeling>
 <generator>
  <i name="program" type="string">vasp </i>
  <i name="version" type="string">5.4.4.18Apr17-6-g9f103f2a35  </i>
  <i name="subversion" type="string">(build Mar 12 2022 03:36:41) complex            parallel </i>
  <i name="platform" type="string">IFC19.0.3.199_CrayMPICH7.7.19 </i>
  <i name="date" type="string">2022 12 02 </i>
  <i name="time" type="string">01:47:08 </i>
 </generator>
 <incar>
  <i type="string" name="PREC">accurate</i>
  <i type="int" name="IALGO">    38</i>
  <i type="logical" name="ADDGRID"> T  </i>
  <i type="int" name="IBRION">     8</i>
  <i name="EDIFF">      0.00000001</i>
  <i type="logical" name="LREAL"> F  </i>
  <i type="int" name="ISMEAR">     0</i>
  <i name="SIGMA">      0.06000000</i>
  <i type="logical" name="LWAVE"> F  </i>
  <i type="logical" name="LCHARG"> F  </i>
  <v type="int" name="KPOINT_BSE">    -1     0     0     0</v>
 </incar>
 <structure name="primitive_cell" >
  <crystal>
   <varray name="basis" >
    <v>      -0.07179979       1.75801537       1.79426685 </v>
    <v>       1.75909979      -0.03662518       1.79426685 </v>
    <v>       1.75909979       1.79464055       0.00000000 </v>
   </varray>
   <i name="volume">     11.56002789 </i>
   <varray name="rec_basis" >
    <v>      -0.27855158       0.27303519       0.27866535 </v>
    <v>       0.27855158      -0.27303519       0.27866535 </v>
    <v>       0.27855158       0.28417945      -0.26729129 </v>
   </varray>
  </crystal>
  <varray name="positions" >
   <v>      -0.25000000      -0.25000000      -0.25000000 </v>
   <v>      -0.50000000      -0.50000000      -0.50000000 </v>
  </varray>
 </structure>
 <varray name="primitive_index" >
  <v type="int" >        1 </v>
  <v type="int" >       25 </v>
 </varray>
 <kpoints>
  <generation param="Gamma">
   <v type="int" name="divisions">       6        6        6 </v>
   <v name="usershift">      0.00000000       0.00000000       0.00000000 </v>
   <v name="genvec1">      0.16666667      -0.00000000      -0.00000000 </v>
   <v name="genvec2">      0.00000000       0.16666667       0.00000000 </v>
   <v name="genvec3">      0.00000000       0.00000000       0.16666667 </v>
   <v name="shift">      0.00000000       0.00000000       0.00000000 </v>
  </generation>
  <varray name="kpointlist" >
   <v>       0.00000000       0.00000000       0.00000000 </v>
   <v>       0.16666667       0.00000000      -0.00000000 </v>
   <v>       0.33333333       0.00000000      -0.00000000 </v>
   <v>       0.50000000       0.00000000      -0.00000000 </v>
   <v>       0.16666667       0.16666667      -0.00000000 </v>
   <v>       0.33333333       0.16666667       0.00000000 </v>
   <v>       0.50000000       0.16666667      -0.00000000 </v>
   <v>      -0.33333333       0.16666667       0.00000000 </v>
   <v>      -0.16666667       0.16666667       0.00000000 </v>
   <v>       0.33333333       0.33333333      -0.00000000 </v>
   <v>       0.50000000       0.33333333       0.00000000 </v>
   <v>      -0.33333333       0.33333333      -0.00000000 </v>
   <v>       0.50000000       0.50000000       0.00000000 </v>
   <v>       0.16666667       0.16666667       0.16666667 </v>
   <v>       0.33333333       0.16666667       0.16666667 </v>
   <v>       0.50000000       0.16666667       0.16666667 </v>
   <v>      -0.33333333       0.16666667       0.16666667 </v>
   <v>      -0.16666667       0.16666667       0.16666667 </v>
   <v>       0.33333333       0.33333333       0.16666667 </v>
   <v>       0.50000000       0.33333333       0.16666667 </v>
   <v>      -0.33333333       0.33333333       0.16666667 </v>
   <v>      -0.16666667       0.33333333       0.16666667 </v>
   <v>       0.50000000       0.50000000       0.16666667 </v>
   <v>      -0.33333333       0.50000000       0.16666667 </v>
   <v>      -0.16666667       0.50000000       0.16666667 </v>
   <v>      -0.33333333      -0.33333333       0.16666667 </v>
   <v>       0.33333333       0.33333333       0.33333333 </v>
   <v>       0.50000000       0.33333333       0.33333333 </v>
   <v>      -0.33333333       0.33333333       0.33333333 </v>
   <v>       0.50000000       0.50000000       0.33333333 </v>
   <v>      -0.33333333       0.50000000       0.33333333 </v>
   <v>       0.50000000       0.50000000       0.50000000 </v>
  </varray>
  <varray name="weights" >
   <v>       0.00462963 </v>
   <v>       0.02777778 </v>
   <v>       0.02777778 </v>
   <v>       0.01388889 </v>
   <v>       0.02777778 </v>
   <v>       0.05555556 </v>
   <v>       0.05555556 </v>
   <v>       0.05555556 </v>
   <v>       0.02777778 </v>
   <v>       0.02777778 </v>
   <v>       0.05555556 </v>
   <v>       0.02777778 </v>
   <v>       0.01388889 </v>
   <v>       0.00925926 </v>
   <v>       0.02777778 </v>
   <v>       0.02777778 </v>
   <v>       0.02777778 </v>
   <v>       0.02777778 </v>
   <v>       0.02777778 </v>
   <v>       0.05555556 </v>
   <v>       0.05555556 </v>
   <v>       0.05555556 </v>
   <v>       0.02777778 </v>
   <v>       0.05555556 </v>
   <v>       0.02777778 </v>
   <v>       0.02777778 </v>
   <v>       0.00925926 </v>
   <v>       0.02777778 </v>
   <v>       0.02777778 </v>
   <v>       0.02777778 </v>
   <v>       0.02777778 </v>
   <v>       0.00462963 </v>
  </varray>
 </kpoints>
 <parameters>
  <separator name="general" >
   <i type="string" name="SYSTEM">unknown system</i>
   <i type="logical" name="LCOMPAT"> F  </i>
  </separator>
  <separator name="electronic" >
   <i type="string" name="PREC">accura</i>
   <i name="ENMAX">    400.00000000</i>
   <i name="ENAUG">    644.87300000</i>
   <i name="EDIFF">      0.00000001</i>
   <i type="int" name="IALGO">    38</i>
   <i type="int" name="IWAVPR">    11</i>
   <i type="int" name="NBANDS">   192</i>
   <i name="NELECT">    256.00000000</i>
   <i type="int" name="TURBO">     0</i>
   <i type="int" name="IRESTART">     0</i>
   <i type="int" name="NREBOOT">     0</i>
   <i type="int" name="NMIN">     0</i>
   <i name="EREF">      0.00000000</i>
   <separator name="electronic smearing" >
    <i type="int" name="ISMEAR">     0</i>
    <i name="SIGMA">      0.06000000</i>
    <i name="KSPACING">      0.50000000</i>
    <i type="logical" name="KGAMMA"> T  </i>
   </separator>
   <separator name="electronic projectors" >
    <i type="logical" name="LREAL"> F  </i>
    <v name="ROPT">      0.00000000</v>
    <i type="int" name="LMAXPAW">  -100</i>
    <i type="int" name="LMAXMIX">     2</i>
    <i type="logical" name="NLSPLINE"> F  </i>
   </separator>
   <separator name="electronic startup" >
    <i type="int" name="ISTART">     0</i>
    <i type="int" name="ICHARG">     2</i>
    <i type="int" name="INIWAV">     1</i>
   </separator>
   <separator name="electronic spin" >
    <i type="int" name="ISPIN">     1</i>
    <i type="logical" name="LNONCOLLINEAR"> F  </i>
    <v name="MAGMOM">      1.00000000      1.00000000      1.00000000      1.00000000      1.00000000      1.00000000      1.00000000      1.00000000      1.00000000      1.00000000      1.00000000      1.00000000      1.00000000      1.00000000      1.00000000      1.00000000      1.00000000      1.00000000      1.00000000      1.00000000
      1.00000000      1.00000000      1.00000000      1.00000000      1.00000000      1.00000000      1.00000000      1.00000000      1.00000000      1.00000000      1.00000000      1.00000000      1.00000000      1.00000000      1.00000000      1.00000000      1.00000000      1.00000000      1.00000000      1.00000000
      1.00000000      1.00000000      1.00000000      1.00000000      1.00000000      1.00000000      1.00000000      1.00000000      1.00000000      1.00000000      1.00000000      1.00000000      1.00000000      1.00000000      1.00000000      1.00000000      1.00000000      1.00000000      1.00000000      1.00000000
      1.00000000      1.00000000      1.00000000      1.00000000</v>
    <i name="NUPDOWN">     -1.00000000</i>
    <i type="logical" name="LSORBIT"> F  </i>
    <v name="SAXIS">      0.00000000      0.00000000      1.00000000</v>
    <i type="logical" name="LSPIRAL"> F  </i>
    <v name="QSPIRAL">      0.00000000      0.00000000      0.00000000</v>
    <i type="logical" name="LZEROZ"> F  </i>
   </separator>
   <separator name="electronic exchange-correlation" >
    <i type="logical" name="LASPH"> F  </i>
    <i type="logical" name="LMETAGGA"> F  </i>
   </separator>
   <separator name="electronic convergence" >
    <i type="int" name="NELM">    60</i>
    <i type="int" name="NELMDL">    -5</i>
    <i type="int" name="NELMIN">     2</i>
    <i name="ENINI">    400.00000000</i>
    <separator name="electronic convergence detail" >
     <i type="logical" name="LDIAG"> T  </i>
     <i type="logical" name="LSUBROT"> F  </i>
     <i name="WEIMIN">      0.00100000</i>
     <i name="EBREAK">      0.00000000</i>
     <i name="DEPER">      0.30000000</i>
     <i type="int" name="NRMM">     4</i>
     <i name="TIME">      0.40000000</i>
    </separator>
   </separator>
   <separator name="electronic mixer" >
    <i name="AMIX">      0.40000000</i>
    <i name="BMIX">      1.00000000</i>
    <i name="AMIN">      0.10000000</i>
    <i name="AMIX_MAG">      1.60000000</i>
    <i name="BMIX_MAG">      1.00000000</i>
    <separator name="electronic mixer details" >
     <i type="int" name="IMIX">     4</i>
     <i type="logical" name="MIXFIRST"> F  </i>
     <i type="int" name="MAXMIX">   -45</i>
     <i name="WC">    100.00000000</i>
     <i type="int" name="INIMIX">     1</i>
     <i type="int" name="MIXPRE">     1</i>
     <i type="int" name="MREMOVE">     5</i>
    </separator>
   </separator>
   <separator name="electronic dipolcorrection" >
    <i type="logical" name="LDIPOL"> F  </i>
    <i type="logical" name="LMONO"> F  </i>
    <i type="int" name="IDIPOL">     0</i>
    <i name="EPSILON">      1.00000000</i>
    <v name="DIPOL">   -100.00000000   -100.00000000   -100.00000000</v>
    <i name="EFIELD">      0.00000000</i>
   </separator>
  </separator>
  <separator name="grids" >
   <i type="int" name="NGX">    48</i>
   <i type="int" name="NGY">    48</i>
   <i type="int" name="NGZ">    48</i>
   <i type="int" name="NGXF">    96</i>
   <i type="int" name="NGYF">    96</i>
   <i type="int" name="NGZF">    96</i>
   <i type="logical" name="ADDGRID"> T  </i>
  </separator>
  <separator name="ionic" >
   <i type="int" name="NSW">     1</i>
   <i type="int" name="IBRION">     8</i>
   <i type="int" name="MDALGO">     0</i>
   <i type="int" name="ISIF">     2</i>
   <i name="PSTRESS">      0.00000000</i>
   <i name="EDIFFG">      0.00000010</i>
   <i type="int" name="NFREE">     0</i>
   <i name="POTIM">      0.50000000</i>
   <i name="SMASS">     -3.00000000</i>
   <i name="SCALEE">      1.00000000</i>
  </separator>
  <separator name="ionic md" >
   <i name="TEBEG">      0.00010000</i>
   <i name="TEEND">      0.00010000</i>
   <i type="int" name="NBLOCK">     1</i>
   <i type="int" name="KBLOCK">     1</i>
   <i type="int" name="NPACO">   256</i>
   <i name="APACO">     16.00000000</i>
  </separator>
  <separator name="symmetry" >
   <i type="int" name="ISYM">     2</i>
   <i name="SYMPREC">      0.00001000</i>
  </separator>
  <separator name="dos" >
   <i type="int" name="LORBIT">     0</i>
   <v name="RWIGS">     -1.00000000</v>
   <i type="int" name="NEDOS">   301</i>
   <i name="EMIN">     10.00000000</i>
   <i name="EMAX">    -10.00000000</i>
   <i name="EFERMI">      0.00000000</i>
  </separator>
  <separator name="writing" >
   <i type="int" name="NWRITE">     2</i>
   <i type="logical" name="LWAVE"> F  </i>
   <i type="logical" name="LDOWNSAMPLE"> F  </i>
   <i type="logical" name="LCHARG"> F  </i>
   <i type="logical" name="LPARD"> F  </i>
   <i type="logical" name="LVTOT"> F  </i>
   <i type="logical" name="LVHAR"> F  </i>
   <i type="logical" name="LELF"> F  </i>
   <i type="logical" name="LOPTICS"> F  </i>
   <v name="STM">      0.00000000      0.00000000      0.00000000      0.00000000      0.00000000      0.00000000      0.00000000</v>
  </separator>
  <separator name="performance" >
   <i type="int" name="NPAR">    32</i>
   <i type="int" name="NSIM">     4</i>
   <i type="int" name="NBLK">    -1</i>
   <i type="logical" name="LPLANE"> T  </i>
   <i type="logical" name="LSCALAPACK"> T  </i>
   <i type="logical" name="LSCAAWARE"> F  </i>
   <i type="logical" name="LSCALU"> F  </i>
   <i type="logical" name="LASYNC"> F  </i>
   <i type="logical" name="LORBITALREAL"> F  </i>
  </separator>
  <separator name="miscellaneous" >
   <i type="int" name="IDIOT">     3</i>
   <i type="int" name="ISPECIAL">     0</i>
   <i type="logical" name="LMUSIC"> F  </i>
   <v name="POMASS">     12.01100000</v>
   <v name="DARWINR">      0.00000000</v>
   <v name="DARWINV">      1.00000000</v>
   <i type="logical" name="LCORR"> T  </i>
  </separator>
  <i type="logical" name="GGA_COMPAT"> T  </i>
  <i type="logical" name="LBERRY"> F  </i>
  <i type="int" name="ICORELEVEL">     0</i>
  <i type="logical" name="LDAU"> F  </i>
  <i type="int" name="I_CONSTRAINED_M">     0</i>
  <separator name="electronic exchange-correlation" >
   <i type="string" name="GGA">--</i>
   <i type="int" name="VOSKOWN">     0</i>
   <i type="logical" name="LHFCALC"> F  </i>
   <i type="string" name="PRECFOCK"></i>
   <i type="logical" name="LSYMGRAD"> F  </i>
   <i type="logical" name="LHFONE"> F  </i>
   <i type="logical" name="LRHFCALC"> F  </i>
   <i type="logical" name="LTHOMAS"> F  </i>
   <i type="logical" name="LMODELHF"> F  </i>
   <i name="ENCUT4O">     -1.00000000</i>
   <i type="int" name="EXXOEP">     0</i>
   <i type="int" name="FOURORBIT">     0</i>
   <i name="AEXX">      0.00000000</i>
   <i name="HFALPHA">      0.00000000</i>
   <i name="MCALPHA">      0.00000000</i>
   <i name="ALDAX">      1.00000000</i>
   <i name="AGGAX">      1.00000000</i>
   <i name="ALDAC">      1.00000000</i>
   <i name="AGGAC">      1.00000000</i>
   <i type="int" name="NKREDX">     1</i>
   <i type="int" name="NKREDY">     1</i>
   <i type="int" name="NKREDZ">     1</i>
   <i type="logical" name="SHIFTRED"> F  </i>
   <i type="logical" name="ODDONLY"> F  </i>
   <i type="logical" name="EVENONLY"> F  </i>
   <i type="int" name="LMAXFOCK">     0</i>
   <i type="int" name="NMAXFOCKAE">     0</i>
   <i type="logical" name="LFOCKAEDFT"> F  </i>
   <i name="HFSCREEN">      0.00000000</i>
   <i name="HFSCREENC">      0.00000000</i>
   <i type="int" name="NBANDSGWLOW">     0</i>
  </separator>
  <separator name="vdW DFT" >
   <i type="logical" name="LUSE_VDW"> F  </i>
   <i name="Zab_VDW">     -0.84910000</i>
   <i name="PARAM1">      0.12340000</i>
   <i name="PARAM2">      1.00000000</i>
   <i name="PARAM3">      0.00000000</i>
  </separator>
  <separator name="model GW" >
   <i type="int" name="MODEL_GW">     0</i>
   <i name="MODEL_EPS0">      3.46800837</i>
   <i name="MODEL_ALPHA">      1.00000000</i>
  </separator>
  <separator name="linear response parameters" >
   <i type="logical" name="LEPSILON"> F  </i>
   <i type="logical" name="LRPA"> F  </i>
   <i type="logical" name="LNABLA"> F  </i>
   <i type="logical" name="LVEL"> F  </i>
   <i type="int" name="KINTER">     0</i>
   <i name="CSHIFT">      0.10000000</i>
   <i name="OMEGAMAX">     -1.00000000</i>
   <i name="DEG_THRESHOLD">      0.00200000</i>
   <i name="RTIME">     -0.10000000</i>
   <i name="WPLASMAI">      0.00000000</i>
   <v name="DFIELD">      0.00000000      0.00000000      0.00000000</v>
   <v name="WPLASMA">      0.00000000      0.00000000      0.00000000      0.00000000      0.00000000      0.00000000      0.00000000      0.00000000      0.00000000</v>
  </separator>
  <separator name="orbital magnetization" >
   <i type="logical" name="NUCIND"> F  </i>
   <v name="MAGPOS">      0.00000000      0.00000000      0.00000000</v>
   <i type="logical" name="LNICSALL"> T  </i>
   <i type="logical" name="ORBITALMAG"> F  </i>
   <i type="logical" name="LMAGBLOCH"> F  </i>
   <i type="logical" name="LCHIMAG"> F  </i>
   <i type="logical" name="LGAUGE"> T  </i>
   <i type="int" name="MAGATOM">     0</i>
   <v name="MAGDIPOL">      0.00000000      0.00000000      0.00000000</v>
   <v name="AVECCONST">      0.00000000      0.00000000      0.00000000</v>
  </separator>
  <separator name="response functions" >
   <i type="logical" name="LADDER"> F  </i>
   <i type="logical" name="LRPAFORCE"> F  </i>
   <i type="logical" name="LFXC"> F  </i>
   <i type="logical" name="LHARTREE"> T  </i>
   <i type="int" name="IBSE">     0</i>
   <v type="int" name="KPOINT">    -1     0     0     0</v>
   <i type="logical" name="LTCTE"> F  </i>
   <i type="logical" name="LTETE"> F  </i>
   <i type="logical" name="LTRIPLET"> F  </i>
   <i type="logical" name="LFXCEPS"> F  </i>
   <i type="logical" name="LFXHEG"> F  </i>
   <i type="int" name="NATURALO">     2</i>
   <i type="logical" name="L2ORDER"> F  </i>
   <i type="logical" name="LMP2LT"> F  </i>
   <i type="logical" name="LUSEW"> F  </i>
   <i name="ENCUTGW">     -2.00000000</i>
   <i name="ENCUTGWSOFT">     -2.00000000</i>
   <i name="ENCUTLF">     -1.00000000</i>
   <i type="int" name="LMAXMP2">    -1</i>
   <i name="SCISSOR">      0.00000000</i>
   <i type="int" name="NOMEGA">     0</i>
   <i type="int" name="NOMEGAR">     0</i>
   <i type="int" name="NBANDSGW">    -1</i>
   <i type="int" name="NBANDSO">    -1</i>
   <i type="int" name="NBANDSV">    -1</i>
   <i type="int" name="NELM">     1</i>
   <i type="int" name="NELMHF">     1</i>
   <i type="int" name="DIM">     3</i>
   <i type="int" name="ANTIRES">     0</i>
   <i name="OMEGAMAX">    -30.00000000</i>
   <i name="OMEGAMIN">    -30.00000000</i>
   <i name="OMEGATL">   -200.00000000</i>
   <i type="int" name="OMEGAGRID">   140</i>
   <i name="CSHIFT">     -0.10000000</i>
   <i type="logical" name="SELFENERGY"> F  </i>
   <i type="logical" name="LSPECTRAL"> F  </i>
   <i type="logical" name="LSPECTRALGW"> F  </i>
   <i type="logical" name="LSINGLES"> F  </i>
   <i type="logical" name="LFERMIGW"> F  </i>
   <i type="logical" name="ODDONLYGW"> F  </i>
   <i type="logical" name="EVENONLYGW"> F  </i>
   <i type="int" name="NKREDLFX">     1</i>
   <i type="int" name="NKREDLFY">     1</i>
   <i type="int" name="NKREDLFZ">     1</i>
   <i type="int" name="MAXMEM">  2800</i>
   <i type="int" name="TELESCOPE">     0</i>
   <i type="int" name="TAUPAR">     1</i>
   <i type="int" name="OMEGAPAR">    -1</i>
   <i name="LAMBDA">      1.00000000</i>
  </separator>
  <separator name="External order field" >
   <i name="OFIELD_KAPPA">      0.00000000</i>
   <v name="OFIELD_K">      0.00000000      0.00000000      0.00000000</v>
   <i name="OFIELD_Q6_NEAR">      0.00000000</i>
   <i name="OFIELD_Q6_FAR">      0.00000000</i>
   <i name="OFIELD_A">      0.00000000</i>
  </separator>
 </parameters>
 <atominfo>
  <atoms>      64 </atoms>
  <types>       1 </types>
  <array name="atoms" >
   <dimension dim="1">ion</dimension>
   <field type="string">element</field>
   <field type="int">atomtype</field>
   <set>
    <rc><c>C </c><c>   1</c></rc>
    <rc><c>C </c><c>   1</c></rc>
    <rc><c>C </c><c>   1</c></rc>
    <rc><c>C </c><c>   1</c></rc>
    <rc><c>C </c><c>   1</c></rc>
    <rc><c>C </c><c>   1</c></rc>
    <rc><c>C </c><c>   1</c></rc>
    <rc><c>C </c><c>   1</c></rc>
    <rc><c>C </c><c>   1</c></rc>
    <rc><c>C </c><c>   1</c></rc>
    <rc><c>C </c><c>   1</c></rc>
    <rc><c>C </c><c>   1</c></rc>
    <rc><c>C </c><c>   1</c></rc>
    <rc><c>C </c><c>   1</c></rc>
    <rc><c>C </c><c>   1</c></rc>
    <rc><c>C </c><c>   1</c></rc>
    <rc><c>C </c><c>   1</c></rc>
    <rc><c>C </c><c>   1</c></rc>
    <rc><c>C </c><c>   1</c></rc>
    <rc><c>C </c><c>   1</c></rc>
    <rc><c>C </c><c>   1</c></rc>
    <rc><c>C </c><c>   1</c></rc>
    <rc><c>C </c><c>   1</c></rc>
    <rc><c>C </c><c>   1</c></rc>
    <rc><c>C </c><c>   1</c></rc>
    <rc><c>C </c><c>   1</c></rc>
    <rc><c>C </c><c>   1</c></rc>
    <rc><c>C </c><c>   1</c></rc>
    <rc><c>C </c><c>   1</c></rc>
    <rc><c>C </c><c>   1</c></rc>
    <rc><c>C </c><c>   1</c></rc>
    <rc><c>C </c><c>   1</c></rc>
    <rc><c>C </c><c>   1</c></rc>
    <rc><c>C </c><c>   1</c></rc>
    <rc><c>C </c><c>   1</c></rc>
    <rc><c>C </c><c>   1</c></rc>
    <rc><c>C </c><c>   1</c></rc>
    <rc><c>C </c><c>   1</c></rc>
    <rc><c>C </c><c>   1</c></rc>
    <rc><c>C </c><c>   1</c></rc>
    <rc><c>C </c><c>   1</c></rc>
    <rc><c>C </c><c>   1</c></rc>
    <rc><c>C </c><c>   1</c></rc>
    <rc><c>C </c><c>   1</c></rc>
    <rc><c>C </c><c>   1</c></rc>
    <rc><c>C </c><c>   1</c></rc>
    <rc><c>C </c><c>   1</c></rc>
    <rc><c>C </c><c>   1</c></rc>
    <rc><c>C </c><c>   1</c></rc>
    <rc><c>C </c><c>   1</c></rc>
    <rc><c>C </c><c>   1</c></rc>
    <rc><c>C </c><c>   1</c></rc>
    <rc><c>C </c><c>   1</c></rc>
    <rc><c>C </c><c>   1</c></rc>
    <rc><c>C </c><c>   1</c></rc>
    <rc><c>C </c><c>   1</c></rc>
    <rc><c>C </c><c>   1</c></rc>
    <rc><c>C </c><c>   1</c></rc>
    <rc><c>C </c><c>   1</c></rc>
    <rc><c>C </c><c>   1</c></rc>
    <rc><c>C </c><c>   1</c></rc>
    <rc><c>C </c><c>   1</c></rc>
    <rc><c>C </c><c>   1</c></rc>
    <rc><c>C </c><c>   1</c></rc>
   </set>
  </array>
  <array name="atomtypes" >
   <dimension dim="1">type</dimension>
   <field type="int">atomspertype</field>
   <field type="string">element</field>
   <field>mass</field>
   <field>valence</field>
   <field type="string">pseudopotential</field>
   <set>
    <rc><c>  64</c><c>C </c><c>     12.01100000</c><c>      4.00000000</c><c> PAW_PBE C 08Apr2002                    </c></rc>
   </set>
  </array>
 </atominfo>
 <structure name="initialpos" >
  <crystal>
   <varray name="basis" >
    <v>       7.17999872       0.00000000       0.00000000 </v>
    <v>      -0.14359957       7.17856220       0.00000000 </v>
    <v>      -0.14359957      -0.14650074       7.17706742 </v>
   </varray>
   <i name="volume">    369.92089250 </i>
   <varray name="rec_basis" >
    <v>       0.13927579       0.00278607       0.00284352 </v>
    <v>       0.00000000       0.13930366       0.00284351 </v>
    <v>       0.00000000       0.00000000       0.13933267 </v>
   </varray>
  </crystal>
  <varray name="positions" >
   <v>       0.12500000       0.37500000       0.12500000 </v>
   <v>       0.62500000       0.37500000       0.12500000 </v>
   <v>       0.12500000       0.87500000       0.12500000 </v>
   <v>       0.62500000       0.87500000       0.12500000 </v>
   <v>       0.12500000       0.37500000       0.62500000 </v>
   <v>       0.62500000       0.37500000       0.62500000 </v>
   <v>       0.12500000       0.87500000       0.62500000 </v>
   <v>       0.62500000       0.87500000       0.62500000 </v>
   <v>       0.00000000       0.00000000       0.25000000 </v>
   <v>       0.50000000       0.00000000       0.25000000 </v>
   <v>       0.00000000       0.50000000       0.25000000 </v>
   <v>       0.50000000       0.50000000       0.25000000 </v>
   <v>       0.00000000       0.00000000       0.75000000 </v>
   <v>       0.50000000       0.00000000       0.75000000 </v>
   <v>       0.00000000       0.50000000       0.75000000 </v>
   <v>       0.50000000       0.50000000       0.75000000 </v>
   <v>       0.12500000       0.12500000       0.37500000 </v>
   <v>       0.62500000       0.12500000       0.37500000 </v>
   <v>       0.12500000       0.62500000       0.37500000 </v>
   <v>       0.62500000       0.62500000       0.37500000 </v>
   <v>       0.12500000       0.12500000       0.87500000 </v>
   <v>       0.62500000       0.12500000       0.87500000 </v>
   <v>       0.12500000       0.62500000       0.87500000 </v>
   <v>       0.62500000       0.62500000       0.87500000 </v>
   <v>       0.00000000       0.25000000       0.00000000 </v>
   <v>       0.50000000       0.25000000       0.00000000 </v>
   <v>       0.00000000       0.75000000       0.00000000 </v>
   <v>       0.50000000       0.75000000       0.00000000 </v>
   <v>       0.00000000       0.25000000       0.50000000 </v>
   <v>       0.50000000       0.25000000       0.50000000 </v>
   <v>       0.00000000       0.75000000       0.50000000 </v>
   <v>       0.50000000       0.75000000       0.50000000 </v>
   <v>       0.37500000       0.37500000       0.37500000 </v>
   <v>       0.87500000       0.37500000       0.37500000 </v>
   <v>       0.37500000       0.87500000       0.37500000 </v>
   <v>       0.87500000       0.87500000       0.37500000 </v>
   <v>       0.37500000       0.37500000       0.87500000 </v>
   <v>       0.87500000       0.37500000       0.87500000 </v>
   <v>       0.37500000       0.87500000       0.87500000 </v>
   <v>       0.87500000       0.87500000       0.87500000 </v>
   <v>       0.25000000       0.00000000       0.00000000 </v>
   <v>       0.75000000       0.00000000       0.00000000 </v>
   <v>       0.25000000       0.50000000       0.00000000 </v>
   <v>       0.75000000       0.50000000       0.00000000 </v>
   <v>       0.25000000       0.00000000       0.50000000 </v>
   <v>       0.75000000       0.00000000       0.50000000 </v>
   <v>       0.25000000       0.50000000       0.50000000 </v>
   <v>       0.75000000       0.50000000       0.50000000 </v>
   <v>       0.37500000       0.12500000       0.12500000 </v>
   <v>       0.87500000       0.12500000       0.12500000 </v>
   <v>       0.37500000       0.62500000       0.12500000 </v>
   <v>       0.87500000       0.62500000       0.12500000 </v>
   <v>       0.37500000       0.12500000       0.62500000 </v>
   <v>       0.87500000       0.12500000       0.62500000 </v>
   <v>       0.37500000       0.62500000       0.62500000 </v>
   <v>       0.87500000       0.62500000       0.62500000 </v>
   <v>       0.25000000       0.25000000       0.25000000 </v>
   <v>       0.75000000       0.25000000       0.25000000 </v>
   <v>       0.25000000       0.75000000       0.25000000 </v>
   <v>       0.75000000       0.75000000       0.25000000 </v>
   <v>       0.25000000       0.25000000       0.75000000 </v>
   <v>       0.75000000       0.25000000       0.75000000 </v>
   <v>       0.25000000       0.75000000       0.75000000 </v>
   <v>       0.75000000       0.75000000       0.75000000 </v>
  </varray>
 </structure>
 <calculation>
  <scstep>
   <time name="dav">   22.10   22.11</time>
   <time name="total">   22.23   22.26</time>
   <energy>
    <i name="alphaZ">    902.20033124 </i>
    <i name="ewald"> -11062.44679260 </i>
    <i name="hartreedc">   -578.11117316 </i>
    <i name="XCdc">    911.30569505 </i>
    <i name="pawpsdc">   2421.21235816 </i>
    <i name="pawaedc">  -2494.84305711 </i>
    <i name="eentropy">     -0.01638394 </i>
    <i name="bandstr">    990.58700309 </i>
    <i name="atom">   9416.14232778 </i>
    <i name="e_fr_energy">    506.03030850 </i>
    <i name="e_wo_entrp">    506.04669244 </i>
    <i name="e_0_energy">    506.03850047 </i>
   </energy>
  </scstep>
  <scstep>
   <time name="dav">   27.30   27.30</time>
   <time name="total">   27.31   27.31</time>
   <energy>
    <i name="e_fr_energy">   -558.53533085 </i>
    <i name="e_wo_entrp">   -558.53533085 </i>
    <i name="e_0_energy">   -558.53533085 </i>
   </energy>
  </scstep>
  <scstep>
   <time name="dav">   28.30   28.31</time>
   <time name="total">   28.31   28.31</time>
   <energy>
    <i name="e_fr_energy">   -599.90116739 </i>
    <i name="e_wo_entrp">   -599.90116739 </i>
    <i name="e_0_energy">   -599.90116739 </i>
   </energy>
  </scstep>
  <scstep>
   <time name="dav">   28.48   28.48</time>
   <time name="total">   28.48   28.49</time>
   <energy>
    <i name="e_fr_energy">   -600.36004493 </i>
    <i name="e_wo_entrp">   -600.36004493 </i>
    <i name="e_0_energy">   -600.36004493 </i>
   </energy>
  </scstep>
  <scstep>
   <time name="dav">   26.46   26.46</time>
   <time name="total">   27.13   27.13</time>
   <energy>
    <i name="e_fr_energy">   -600.36886346 </i>
    <i name="e_wo_entrp">   -600.36886346 </i>
    <i name="e_0_energy">   -600.36886346 </i>
   </energy>
  </scstep>
  <scstep>
   <time name="dav">   25.41   25.41</time>
   <time name="total">   26.17   26.17</time>
   <energy>
    <i name="e_fr_energy">   -585.93496390 </i>
    <i name="e_wo_entrp">   -585.93496390 </i>
    <i name="e_0_energy">   -585.93496390 </i>
   </energy>
  </scstep>
  <scstep>
   <time name="dav">   25.93   25.93</time>
   <time name="total">   26.68   26.68</time>
   <energy>
    <i name="e_fr_energy">   -581.06419588 </i>
    <i name="e_wo_entrp">   -581.06419588 </i>
    <i name="e_0_energy">   -581.06419588 </i>
   </energy>
  </scstep>
  <scstep>
   <time name="dav">   26.99   27.00</time>
   <time name="total">   27.75   27.75</time>
   <energy>
    <i name="e_fr_energy">   -581.12441651 </i>
    <i name="e_wo_entrp">   -581.12441651 </i>
    <i name="e_0_energy">   -581.12441651 </i>
   </energy>
  </scstep>
  <scstep>
   <time name="dav">   26.72   26.72</time>
   <time name="total">   27.48   27.48</time>
   <energy>
    <i name="e_fr_energy">   -581.12663133 </i>
    <i name="e_wo_entrp">   -581.12663133 </i>
    <i name="e_0_energy">   -581.12663133 </i>
   </energy>
  </scstep>
  <scstep>
   <time name="dav">   25.06   25.06</time>
   <time name="total">   25.83   25.83</time>
   <energy>
    <i name="e_fr_energy">   -581.12709946 </i>
    <i name="e_wo_entrp">   -581.12709946 </i>
    <i name="e_0_energy">   -581.12709946 </i>
   </energy>
  </scstep>
  <scstep>
   <time name="dav">   27.80   27.80</time>
   <time name="total">   28.59   28.59</time>
   <energy>
    <i name="e_fr_energy">   -581.12710987 </i>
    <i name="e_wo_entrp">   -581.12710987 </i>
    <i name="e_0_energy">   -581.12710987 </i>
   </energy>
  </scstep>
  <scstep>
   <time name="dav">   26.94   26.95</time>
   <time name="total">   27.70   27.70</time>
   <energy>
    <i name="e_fr_energy">   -581.12710994 </i>
    <i name="e_wo_entrp">   -581.12710994 </i>
    <i name="e_0_energy">   -581.12710994 </i>
   </energy>
  </scstep>
  <scstep>
   <time name="dav">   23.88   23.89</time>
   <time name="total">   24.64   24.64</time>
   <energy>
    <i name="e_fr_energy">   -581.12711002 </i>
    <i name="e_wo_entrp">   -581.12711002 </i>
    <i name="e_0_energy">   -581.12711002 </i>
   </energy>
  </scstep>
  <scstep>
   <time name="dav">   21.39   21.39</time>
   <time name="total">   22.17   22.17</time>
   <energy>
    <i name="e_fr_energy">   -581.12711004 </i>
    <i name="e_wo_entrp">   -581.12711004 </i>
    <i name="e_0_energy">   -581.12711004 </i>
   </energy>
  </scstep>
  <scstep>
   <time name="dav">   20.25   20.25</time>
   <time name="total">   20.35   20.36</time>
   <energy>
    <i name="alphaZ">    902.20033124 </i>
    <i name="ewald"> -11062.44679260 </i>
    <i name="hartreedc">   -854.11809674 </i>
    <i name="XCdc">    937.27695330 </i>
    <i name="pawpsdc">   4141.38351095 </i>
    <i name="pawaedc">  -4221.98527318 </i>
    <i name="eentropy">     -0.00000000 </i>
    <i name="bandstr">    160.41992921 </i>
    <i name="atom">   9416.14232778 </i>
    <i name="e_fr_energy">   -581.12711005 </i>
    <i name="e_wo_entrp">   -581.12711005 </i>
    <i name="e_0_energy">   -581.12711005 </i>
   </energy>
  </scstep>
  <structure>
   <crystal>
    <varray name="basis" >
     <v>       7.17999872       0.00000000       0.00000000 </v>
     <v>      -0.14359957       7.17856220       0.00000000 </v>
     <v>      -0.14359957      -0.14650074       7.17706742 </v>
    </varray>
    <i name="volume">    369.92089250 </i>
    <varray name="rec_basis" >
     <v>       0.13927579       0.00278607       0.00284352 </v>
     <v>       0.00000000       0.13930366       0.00284351 </v>
     <v>       0.00000000       0.00000000       0.13933267 </v>
    </varray>
   </crystal>
   <varray name="positions" >
    <v>       0.12500000       0.37500000       0.12500000 </v>
    <v>       0.62500000       0.37500000       0.12500000 </v>
    <v>       0.12500000       0.87500000       0.12500000 </v>
    <v>       0.62500000       0.87500000       0.12500000 </v>
    <v>       0.12500000       0.37500000       0.62500000 </v>
    <v>       0.62500000       0.37500000       0.62500000 </v>
    <v>       0.12500000       0.87500000       0.62500000 </v>
    <v>       0.62500000       0.87500000       0.62500000 </v>
    <v>       0.00000000       0.00000000       0.25000000 </v>
    <v>       0.50000000       0.00000000       0.25000000 </v>
    <v>       0.00000000       0.50000000       0.25000000 </v>
    <v>       0.50000000       0.50000000       0.25000000 </v>
    <v>       0.00000000       0.00000000       0.75000000 </v>
    <v>       0.50000000       0.00000000       0.75000000 </v>
    <v>       0.00000000       0.50000000       0.75000000 </v>
    <v>       0.50000000       0.50000000       0.75000000 </v>
    <v>       0.12500000       0.12500000       0.37500000 </v>
    <v>       0.62500000       0.12500000       0.37500000 </v>
    <v>       0.12500000       0.62500000       0.37500000 </v>
    <v>       0.62500000       0.62500000       0.37500000 </v>
    <v>       0.12500000       0.12500000       0.87500000 </v>
    <v>       0.62500000       0.12500000       0.87500000 </v>
    <v>       0.12500000       0.62500000       0.87500000 </v>
    <v>       0.62500000       0.62500000       0.87500000 </v>
    <v>       0.00000000       0.25000000       0.00000000 </v>
    <v>       0.50000000       0.25000000       0.00000000 </v>
    <v>       0.00000000       0.75000000       0.00000000 </v>
    <v>       0.50000000       0.75000000       0.00000000 </v>
    <v>       0.00000000       0.25000000       0.50000000 </v>
    <v>       0.50000000       0.25000000       0.50000000 </v>
    <v>       0.00000000       0.75000000       0.50000000 </v>
    <v>       0.50000000       0.75000000       0.50000000 </v>
    <v>       0.37500000       0.37500000       0.37500000 </v>
    <v>       0.87500000       0.37500000       0.37500000 </v>
    <v>       0.37500000       0.87500000       0.37500000 </v>
    <v>       0.87500000       0.87500000       0.37500000 </v>
    <v>       0.37500000       0.37500000       0.87500000 </v>
    <v>       0.87500000       0.37500000       0.87500000 </v>
    <v>       0.37500000       0.87500000       0.87500000 </v>
    <v>       0.87500000       0.87500000       0.87500000 </v>
    <v>       0.25000000       0.00000000       0.00000000 </v>
    <v>       0.75000000       0.00000000       0.00000000 </v>
    <v>       0.25000000       0.50000000       0.00000000 </v>
    <v>       0.75000000       0.50000000       0.00000000 </v>
    <v>       0.25000000       0.00000000       0.50000000 </v>
    <v>       0.75000000       0.00000000       0.50000000 </v>
    <v>       0.25000000       0.50000000       0.50000000 </v>
    <v>       0.75000000       0.50000000       0.50000000 </v>
    <v>       0.37500000       0.12500000       0.12500000 </v>
    <v>       0.87500000       0.12500000       0.12500000 </v>
    <v>       0.37500000       0.62500000       0.12500000 </v>
    <v>       0.87500000       0.62500000       0.12500000 </v>
    <v>       0.37500000       0.12500000       0.62500000 </v>
    <v>       0.87500000       0.12500000       0.62500000 </v>
    <v>       0.37500000       0.62500000       0.62500000 </v>
    <v>       0.87500000       0.62500000       0.62500000 </v>
    <v>       0.25000000       0.25000000       0.25000000 </v>
    <v>       0.75000000       0.25000000       0.25000000 </v>
    <v>       0.25000000       0.75000000       0.25000000 </v>
    <v>       0.75000000       0.75000000       0.25000000 </v>
    <v>       0.25000000       0.25000000       0.75000000 </v>
    <v>       0.75000000       0.25000000       0.75000000 </v>
    <v>       0.25000000       0.75000000       0.75000000 </v>
    <v>       0.75000000       0.75000000       0.75000000 </v>
   </varray>
  </structure>
  <varray name="forces" >
   <v>       0.07306126       0.07453738       0.07607440 </v>
   <v>       0.07306126       0.07453738       0.07607440 </v>
   <v>       0.07306126       0.07453738       0.07607440 </v>
   <v>       0.07306126       0.07453738       0.07607440 </v>
   <v>       0.07306126       0.07453738       0.07607440 </v>
   <v>       0.07306126       0.07453738       0.07607440 </v>
   <v>       0.07306126       0.07453738       0.07607440 </v>
   <v>       0.07306126       0.07453738       0.07607440 </v>
   <v>      -0.07306126      -0.07453738      -0.07607440 </v>
   <v>      -0.07306126      -0.07453738      -0.07607440 </v>
   <v>      -0.07306126      -0.07453738      -0.07607440 </v>
   <v>      -0.07306126      -0.07453738      -0.07607440 </v>
   <v>      -0.07306126      -0.07453738      -0.07607440 </v>
   <v>      -0.07306126      -0.07453738      -0.07607440 </v>
   <v>      -0.07306126      -0.07453738      -0.07607440 </v>
   <v>      -0.07306126      -0.07453738      -0.07607440 </v>
   <v>       0.07306126       0.07453738       0.07607440 </v>
   <v>       0.07306126       0.07453738       0.07607440 </v>
   <v>       0.07306126       0.07453738       0.07607440 </v>
   <v>       0.07306126       0.07453738       0.07607440 </v>
   <v>       0.07306126       0.07453738       0.07607440 </v>
   <v>       0.07306126       0.07453738       0.07607440 </v>
   <v>       0.07306126       0.07453738       0.07607440 </v>
   <v>       0.07306126       0.07453738       0.07607440 </v>
   <v>      -0.07306126      -0.07453738      -0.07607440 </v>
   <v>      -0.07306126      -0.07453738      -0.07607440 </v>
   <v>      -0.07306126      -0.07453738      -0.07607440 </v>
   <v>      -0.07306126      -0.07453738      -0.07607440 </v>
   <v>      -0.07306126      -0.07453738      -0.07607440 </v>
   <v>      -0.07306126      -0.07453738      -0.07607440 </v>
   <v>      -0.07306126      -0.07453738      -0.07607440 </v>
   <v>      -0.07306126      -0.07453738      -0.07607440 </v>
   <v>       0.07306126       0.07453738       0.07607440 </v>
   <v>       0.07306126       0.07453738       0.07607440 </v>
   <v>       0.07306126       0.07453738       0.07607440 </v>
   <v>       0.07306126       0.07453738       0.07607440 </v>
   <v>       0.07306126       0.07453738       0.07607440 </v>
   <v>       0.07306126       0.07453738       0.07607440 </v>
   <v>       0.07306126       0.07453738       0.07607440 </v>
   <v>       0.07306126       0.07453738       0.07607440 </v>
   <v>      -0.07306126      -0.07453738      -0.07607440 </v>
   <v>      -0.07306126      -0.07453738      -0.07607440 </v>
   <v>      -0.07306126      -0.07453738      -0.07607440 </v>
   <v>      -0.07306126      -0.07453738      -0.07607440 </v>
   <v>      -0.07306126      -0.07453738      -0.07607440 </v>
   <v>      -0.07306126      -0.07453738      -0.07607440 </v>
   <v>      -0.07306126      -0.07453738      -0.07607440 </v>
   <v>      -0.07306126      -0.07453738      -0.07607440 </v>
   <v>       0.07306126       0.07453738       0.07607440 </v>
   <v>       0.07306126       0.07453738       0.07607440 </v>
   <v>       0.07306126       0.07453738       0.07607440 </v>
   <v>       0.07306126       0.07453738       0.07607440 </v>
   <v>       0.07306126       0.07453738       0.07607440 </v>
   <v>       0.07306126       0.07453738       0.07607440 </v>
   <v>       0.07306126       0.07453738       0.07607440 </v>
   <v>       0.07306126       0.07453738       0.07607440 </v>
   <v>      -0.07306126      -0.07453738      -0.07607440 </v>
   <v>      -0.07306126      -0.07453738      -0.07607440 </v>
   <v>      -0.07306126      -0.07453738      -0.07607440 </v>
   <v>      -0.07306126      -0.07453738      -0.07607440 </v>
   <v>      -0.07306126      -0.07453738      -0.07607440 </v>
   <v>      -0.07306126      -0.07453738      -0.07607440 </v>
   <v>      -0.07306126      -0.07453738      -0.07607440 </v>
   <v>      -0.07306126      -0.07453738      -0.07607440 </v>
  </varray>
  <varray name="stress" >
   <v>     -97.69929913     110.34325020     112.61860407 </v>
   <v>     110.34325020     -93.28468469     114.89394327 </v>
   <v>     112.61860407     114.89394327     -88.59418309 </v>
  </varray>
  <energy>
   <i name="e_fr_energy">   -581.12711005 </i>
   <i name="e_wo_entrp">   -581.12711005 </i>
   <i name="e_0_energy">     -0.00000000 </i>
  </energy>
  <kpoints>
   <generation param="Gamma">
    <v type="int" name="divisions">       6        6        6 </v>
    <v name="usershift">      0.00000000       0.00000000       0.00000000 </v>
    <v name="genvec1">      0.16666667      -0.00000000      -0.00000000 </v>
    <v name="genvec2">      0.00000000       0.16666667       0.00000000 </v>
    <v name="genvec3">      0.00000000       0.00000000       0.16666667 </v>
    <v name="shift">      0.00000000       0.00000000       0.00000000 </v>
   </generation>
   <varray name="kpointlist" >
    <v>       0.00000000       0.00000000       0.00000000 </v>
    <v>       0.16666667       0.00000000      -0.00000000 </v>
    <v>       0.33333333       0.00000000      -0.00000000 </v>
    <v>       0.50000000       0.00000000      -0.00000000 </v>
    <v>       0.00000000       0.16666667       0.00000000 </v>
    <v>       0.16666667       0.16666667      -0.00000000 </v>
    <v>       0.33333333       0.16666667       0.00000000 </v>
    <v>       0.50000000       0.16666667      -0.00000000 </v>
    <v>      -0.33333333       0.16666667       0.00000000 </v>
    <v>      -0.16666667       0.16666667       0.00000000 </v>
    <v>       0.00000000       0.33333333       0.00000000 </v>
    <v>       0.16666667       0.33333333       0.00000000 </v>
    <v>       0.33333333       0.33333333      -0.00000000 </v>
    <v>       0.50000000       0.33333333       0.00000000 </v>
    <v>      -0.33333333       0.33333333      -0.00000000 </v>
    <v>      -0.16666667       0.33333333      -0.00000000 </v>
    <v>       0.00000000       0.50000000       0.00000000 </v>
    <v>       0.16666667       0.50000000       0.00000000 </v>
    <v>       0.33333333       0.50000000       0.00000000 </v>
    <v>       0.50000000       0.50000000       0.00000000 </v>
    <v>       0.00000000       0.16666667       0.16666667 </v>
    <v>       0.16666667       0.16666667       0.16666667 </v>
    <v>       0.33333333       0.16666667       0.16666667 </v>
    <v>       0.50000000       0.16666667       0.16666667 </v>
    <v>      -0.33333333       0.16666667       0.16666667 </v>
    <v>      -0.16666667       0.16666667       0.16666667 </v>
    <v>       0.00000000       0.33333333       0.16666667 </v>
    <v>       0.16666667       0.33333333       0.16666667 </v>
    <v>       0.33333333       0.33333333       0.16666667 </v>
    <v>       0.50000000       0.33333333       0.16666667 </v>
    <v>      -0.33333333       0.33333333       0.16666667 </v>
    <v>      -0.16666667       0.33333333       0.16666667 </v>
    <v>       0.00000000       0.50000000       0.16666667 </v>
    <v>       0.16666667       0.50000000       0.16666667 </v>
    <v>       0.33333333       0.50000000       0.16666667 </v>
    <v>       0.50000000       0.50000000       0.16666667 </v>
    <v>      -0.33333333       0.50000000       0.16666667 </v>
    <v>      -0.16666667       0.50000000       0.16666667 </v>
    <v>       0.00000000      -0.33333333       0.16666667 </v>
    <v>       0.16666667      -0.33333333       0.16666667 </v>
    <v>       0.33333333      -0.33333333       0.16666667 </v>
    <v>       0.50000000      -0.33333333       0.16666667 </v>
    <v>      -0.33333333      -0.33333333       0.16666667 </v>
    <v>      -0.16666667      -0.33333333       0.16666667 </v>
    <v>       0.00000000      -0.16666667       0.16666667 </v>
    <v>       0.16666667      -0.16666667       0.16666667 </v>
    <v>       0.33333333      -0.16666667       0.16666667 </v>
    <v>       0.50000000      -0.16666667       0.16666667 </v>
    <v>       0.00000000       0.33333333       0.33333333 </v>
    <v>       0.16666667       0.33333333       0.33333333 </v>
    <v>       0.33333333       0.33333333       0.33333333 </v>
    <v>       0.50000000       0.33333333       0.33333333 </v>
    <v>      -0.33333333       0.33333333       0.33333333 </v>
    <v>      -0.16666667       0.33333333       0.33333333 </v>
    <v>       0.00000000       0.50000000       0.33333333 </v>
    <v>       0.16666667       0.50000000       0.33333333 </v>
    <v>       0.33333333       0.50000000       0.33333333 </v>
    <v>       0.50000000       0.50000000       0.33333333 </v>
    <v>      -0.33333333       0.50000000       0.33333333 </v>
    <v>      -0.16666667       0.50000000       0.33333333 </v>
    <v>       0.00000000      -0.33333333       0.33333333 </v>
    <v>       0.16666667      -0.33333333       0.33333333 </v>
    <v>       0.33333333      -0.33333333       0.33333333 </v>
    <v>       0.50000000      -0.33333333       0.33333333 </v>
    <v>       0.00000000       0.50000000       0.50000000 </v>
    <v>       0.16666667       0.50000000       0.50000000 </v>
    <v>       0.33333333       0.50000000       0.50000000 </v>
    <v>       0.50000000       0.50000000       0.50000000 </v>
   </varray>
   <varray name="weights" >
    <v>       0.00462963 </v>
    <v>       0.00925926 </v>
    <v>       0.00925926 </v>
    <v>       0.00462963 </v>
    <v>       0.01851852 </v>
    <v>       0.01851852 </v>
    <v>       0.01851852 </v>
    <v>       0.01851852 </v>
    <v>       0.01851852 </v>
    <v>       0.01851852 </v>
    <v>       0.01851852 </v>
    <v>       0.01851852 </v>
    <v>       0.01851852 </v>
    <v>       0.01851852 </v>
    <v>       0.01851852 </v>
    <v>       0.01851852 </v>
    <v>       0.00925926 </v>
    <v>       0.01851852 </v>
    <v>       0.01851852 </v>
    <v>       0.00925926 </v>
    <v>       0.00925926 </v>
    <v>       0.00925926 </v>
    <v>       0.00925926 </v>
    <v>       0.00925926 </v>
    <v>       0.00925926 </v>
    <v>       0.00925926 </v>
    <v>       0.01851852 </v>
    <v>       0.01851852 </v>
    <v>       0.01851852 </v>
    <v>       0.01851852 </v>
    <v>       0.01851852 </v>
    <v>       0.01851852 </v>
    <v>       0.01851852 </v>
    <v>       0.01851852 </v>
    <v>       0.01851852 </v>
    <v>       0.01851852 </v>
    <v>       0.01851852 </v>
    <v>       0.01851852 </v>
    <v>       0.01851852 </v>
    <v>       0.01851852 </v>
    <v>       0.01851852 </v>
    <v>       0.01851852 </v>
    <v>       0.01851852 </v>
    <v>       0.01851852 </v>
    <v>       0.00925926 </v>
    <v>       0.01851852 </v>
    <v>       0.01851852 </v>
    <v>       0.00925926 </v>
    <v>       0.00925926 </v>
    <v>       0.00925926 </v>
    <v>       0.00925926 </v>
    <v>       0.00925926 </v>
    <v>       0.00925926 </v>
    <v>       0.00925926 </v>
    <v>       0.01851852 </v>
    <v>       0.01851852 </v>
    <v>       0.01851852 </v>
    <v>       0.01851852 </v>
    <v>       0.01851852 </v>
    <v>       0.01851852 </v>
    <v>       0.00925926 </v>
    <v>       0.01851852 </v>
    <v>       0.01851852 </v>
    <v>       0.00925926 </v>
    <v>       0.00462963 </v>
    <v>       0.00925926 </v>
    <v>       0.00925926 </v>
    <v>       0.00462963 </v>
   </varray>
  </kpoints>
  <scstep>
   <time name="total">   56.01   56.01</time>
   <energy>
    <i name="e_fr_energy">   -362.58803240 </i>
    <i name="e_wo_entrp">   -362.58803240 </i>
    <i name="e_0_energy">   -362.58803240 </i>
   </energy>
  </scstep>
  <scstep>
   <time name="total">   43.54   43.54</time>
   <energy>
    <i name="e_fr_energy">   -308.71684851 </i>
    <i name="e_wo_entrp">   -308.71684851 </i>
    <i name="e_0_energy">   -308.71684851 </i>
   </energy>
  </scstep>
  <scstep>
   <time name="total">   44.06   44.06</time>
   <energy>
    <i name="e_fr_energy">   -308.36126772 </i>
    <i name="e_wo_entrp">   -308.36126772 </i>
    <i name="e_0_energy">   -308.36126772 </i>
   </energy>
  </scstep>
  <scstep>
   <time name="total">   42.76   42.76</time>
   <energy>
    <i name="e_fr_energy">   -309.00111754 </i>
    <i name="e_wo_entrp">   -309.00111754 </i>
    <i name="e_0_energy">   -309.00111754 </i>
   </energy>
  </scstep>
  <scstep>
   <time name="total">   42.86   42.86</time>
   <energy>
    <i name="e_fr_energy">   -309.20453861 </i>
    <i name="e_wo_entrp">   -309.20453861 </i>
    <i name="e_0_energy">   -309.20453861 </i>
   </energy>
  </scstep>
  <scstep>
   <time name="total">   43.02   43.02</time>
   <energy>
    <i name="e_fr_energy">   -309.16210390 </i>
    <i name="e_wo_entrp">   -309.16210390 </i>
    <i name="e_0_energy">   -309.16210390 </i>
   </energy>
  </scstep>
  <scstep>
   <time name="total">   45.37   45.38</time>
   <energy>
    <i name="e_fr_energy">   -309.14146289 </i>
    <i name="e_wo_entrp">   -309.14146289 </i>
    <i name="e_0_energy">   -309.14146289 </i>
   </energy>
  </scstep>
  <scstep>
   <time name="total">   44.93   44.93</time>
   <energy>
    <i name="e_fr_energy">   -309.14035218 </i>
    <i name="e_wo_entrp">   -309.14035218 </i>
    <i name="e_0_energy">   -309.14035218 </i>
   </energy>
  </scstep>
  <scstep>
   <time name="total">   46.77   46.77</time>
   <energy>
    <i name="e_fr_energy">   -309.13974847 </i>
    <i name="e_wo_entrp">   -309.13974847 </i>
    <i name="e_0_energy">   -309.13974847 </i>
   </energy>
  </scstep>
  <scstep>
   <time name="total">   46.75   46.75</time>
   <energy>
    <i name="e_fr_energy">   -309.14003900 </i>
    <i name="e_wo_entrp">   -309.14003900 </i>
    <i name="e_0_energy">   -309.14003900 </i>
   </energy>
  </scstep>
  <scstep>
   <time name="total">   46.78   46.79</time>
   <energy>
    <i name="e_fr_energy">   -309.14014176 </i>
    <i name="e_wo_entrp">   -309.14014176 </i>
    <i name="e_0_energy">   -309.14014176 </i>
   </energy>
  </scstep>
  <kpoints>
   <generation param="Gamma">
    <v type="int" name="divisions">       6        6        6 </v>
    <v name="usershift">      0.00000000       0.00000000       0.00000000 </v>
    <v name="genvec1">      0.16666667      -0.00000000      -0.00000000 </v>
    <v name="genvec2">      0.00000000       0.16666667       0.00000000 </v>
    <v name="genvec3">      0.00000000       0.00000000       0.16666667 </v>
    <v name="shift">      0.00000000       0.00000000       0.00000000 </v>
   </generation>
   <varray name="kpointlist" >
    <v>       0.00000000       0.00000000       0.00000000 </v>
    <v>       0.16666667       0.00000000      -0.00000000 </v>
    <v>       0.33333333       0.00000000      -0.00000000 </v>
    <v>       0.50000000       0.00000000      -0.00000000 </v>
    <v>       0.16666667       0.16666667      -0.00000000 </v>
    <v>       0.33333333       0.16666667       0.00000000 </v>
    <v>       0.50000000       0.16666667      -0.00000000 </v>
    <v>      -0.33333333       0.16666667       0.00000000 </v>
    <v>      -0.16666667       0.16666667       0.00000000 </v>
    <v>       0.33333333       0.33333333      -0.00000000 </v>
    <v>       0.50000000       0.33333333       0.00000000 </v>
    <v>      -0.33333333       0.33333333      -0.00000000 </v>
    <v>       0.50000000       0.50000000       0.00000000 </v>
    <v>       0.16666667       0.16666667       0.16666667 </v>
    <v>       0.33333333       0.16666667       0.16666667 </v>
    <v>       0.50000000       0.16666667       0.16666667 </v>
    <v>      -0.33333333       0.16666667       0.16666667 </v>
    <v>      -0.16666667       0.16666667       0.16666667 </v>
    <v>       0.33333333       0.33333333       0.16666667 </v>
    <v>       0.50000000       0.33333333       0.16666667 </v>
    <v>      -0.33333333       0.33333333       0.16666667 </v>
    <v>      -0.16666667       0.33333333       0.16666667 </v>
    <v>       0.50000000       0.50000000       0.16666667 </v>
    <v>      -0.33333333       0.50000000       0.16666667 </v>
    <v>      -0.16666667       0.50000000       0.16666667 </v>
    <v>      -0.33333333      -0.33333333       0.16666667 </v>
    <v>       0.33333333       0.33333333       0.33333333 </v>
    <v>       0.50000000       0.33333333       0.33333333 </v>
    <v>      -0.33333333       0.33333333       0.33333333 </v>
    <v>       0.50000000       0.50000000       0.33333333 </v>
    <v>      -0.33333333       0.50000000       0.33333333 </v>
    <v>       0.50000000       0.50000000       0.50000000 </v>
   </varray>
   <varray name="weights" >
    <v>       0.00462963 </v>
    <v>       0.02777778 </v>
    <v>       0.02777778 </v>
    <v>       0.01388889 </v>
    <v>       0.02777778 </v>
    <v>       0.05555556 </v>
    <v>       0.05555556 </v>
    <v>       0.05555556 </v>
    <v>       0.02777778 </v>
    <v>       0.02777778 </v>
    <v>       0.05555556 </v>
    <v>       0.02777778 </v>
    <v>       0.01388889 </v>
    <v>       0.00925926 </v>
    <v>       0.02777778 </v>
    <v>       0.02777778 </v>
    <v>       0.02777778 </v>
    <v>       0.02777778 </v>
    <v>       0.02777778 </v>
    <v>       0.05555556 </v>
    <v>       0.05555556 </v>
    <v>       0.05555556 </v>
    <v>       0.02777778 </v>
    <v>       0.05555556 </v>
    <v>       0.02777778 </v>
    <v>       0.02777778 </v>
    <v>       0.00925926 </v>
    <v>       0.02777778 </v>
    <v>       0.02777778 </v>
    <v>       0.02777778 </v>
    <v>       0.02777778 </v>
    <v>       0.00462963 </v>
   </varray>
  </kpoints>
  <dynmat>
   <varray name="hessian" >
    <v>      -3.56118225      -0.16172266      -0.16505749       0.01345647      -0.00012118      -0.00012368       0.00772760      -0.00023578      -0.00002207       0.00946775       0.00095612       0.00018609       0.00772760      -0.00001726      -0.00023618       0.00946775       0.00016654       0.00095971      -0.04713108      -0.00096566      -0.00098558       0.00432721      -0.00018188      -0.00018563      -0.01383404      -0.00898340       0.00259593       0.00605807      -0.00690891      -0.01712703       0.71558950      -0.12460761      -0.12717711      -0.00322007      -0.00669443      -0.00683247       0.03096465      -0.01731684      -0.01767392      -0.00288047      -0.00247135      -0.00252232      -0.01383404       0.00277872      -0.00892855       0.00605807      -0.01698247      -0.00725701      -0.11217508       0.05541544      -0.05667361      -0.00429656       0.00307943      -0.00342641      -0.11579039       0.05401893       0.05513284      -0.00483101       0.00264247       0.00269696      -0.11579039      -0.06625376      -0.06761996      -0.00483101      -0.00323609      -0.00330282      -0.11217508      -0.05779273       0.05424730      -0.00429656      -0.00348854       0.00300887       0.81978275       0.25961034       0.26496368      -0.00554100       0.00705548       0.00720097      -0.01311240       0.00690402      -0.00156479       0.00576819       0.00965617       0.01874132      -0.01311240      -0.00170536       0.00687065       0.00576819       0.01854036       0.01003663       0.02670263       0.01895913       0.01935008      -0.00314160       0.00251739       0.00256930       0.12749056      -0.06138718       0.13476134       0.12060320      -0.05313625      -0.12209124       0.00691179      -0.00300119      -0.00666147       0.00686696      -0.00326522       0.00612501       0.12060320       0.06007192      -0.12185359       0.12749056       0.05888551       0.13721639       0.00686696       0.00330275       0.00573421       0.00691179       0.00287737      -0.00654147      -0.01167612       0.00823560       0.00299058       0.00930428       0.01046479      -0.01754022       0.70837150       0.12348281      -0.12225741      -0.00652153       0.00833871      -0.00866875       0.02805579       0.01761725      -0.01618626      -0.00254356       0.00288043      -0.00240633      -0.01291980      -0.00040348      -0.00689813       0.00533894       0.01716282      -0.00657441       0.12060320      -0.12305416       0.05757262       0.12749056       0.13598607       0.06167358       0.12749056       0.13598606      -0.05862418       0.12060320      -0.12098140      -0.05561683       0.00686696       0.00566561       0.00341908       0.00691179      -0.00659883       0.00274327       0.00691179      -0.00659883      -0.00313651       0.00686696       0.00619038      -0.00313954       0.70837150      -0.12475200       0.12096206      -0.00652153      -0.00883712       0.00816006      -0.01291980      -0.00688846      -0.00054417       0.00533894      -0.00692330       0.01702508      -0.01167612       0.00282189       0.00829492       0.00930428      -0.01775013       0.01010465       0.02805579      -0.01654243       0.01728325      -0.00254356      -0.00246462       0.00283073 </v>
    <v>      -0.16172266      -3.56765206      -0.16839236      -0.00012118       0.00772046      -0.00002455      -0.00023578       0.01344933      -0.00012414       0.00095612       0.00950600       0.00018985      -0.00001726       0.00772691      -0.00024095       0.00016654      -0.04714706      -0.00096657      -0.00096566       0.00945176       0.00094019      -0.00018188       0.00431993      -0.00018938      -0.00898340      -0.00687801       0.00821362      -0.00690891       0.00506224       0.01668588      -0.12460761       0.70338325       0.11844222      -0.00669443      -0.01319151      -0.00068095      -0.01731684       0.00860280       0.00975313      -0.00247135      -0.00264230       0.00278083       0.00277872      -0.01156408       0.00811797      -0.01698247       0.02738516       0.01714154      -0.05779273       0.12064877      -0.12324935      -0.00348854       0.00686324       0.00605770      -0.06625376       0.12734316       0.13589117      -0.00323609       0.00690461      -0.00660885       0.05401893       0.12734316       0.13589117       0.00264247       0.00690461      -0.00660885       0.05541544       0.12064877      -0.12079280       0.00307943       0.00686324       0.00579555       0.25961034       0.83016913       0.27031701       0.00705548      -0.01283316      -0.00142106       0.00690402      -0.00526176       0.00717110       0.00965617       0.00615452       0.01911997      -0.00170536      -0.01318063       0.00700946       0.01854036       0.02745277       0.01955472       0.01895913       0.00651833       0.01042572       0.00251739      -0.00304088       0.00262121       0.05888551      -0.11593777       0.05783963       0.06007192      -0.11212948      -0.05912725       0.00287737      -0.00483819       0.00256424       0.00330275      -0.00430027      -0.00330457      -0.05313625      -0.11212948       0.05182060      -0.06138718      -0.11593777      -0.06488862      -0.00326522      -0.00430027       0.00312417      -0.00300119      -0.00483819      -0.00343434       0.00823560      -0.00618998      -0.00861066       0.01046479       0.00972296      -0.01789460       0.12348281       0.71331171      -0.12472749       0.00833871      -0.01134456       0.00281777       0.01761725       0.00603468      -0.00689951       0.00288043      -0.00242832      -0.00245495      -0.00040348      -0.01293595      -0.00703750       0.01716282       0.02875153      -0.01632102      -0.12098140       0.11572151      -0.05447628       0.13598606       0.13293106       0.06291962       0.13598607       0.13293106      -0.05980862      -0.12305416       0.11572151       0.05647157       0.00619038       0.00710412      -0.00307178      -0.00659883       0.00664778       0.00279870      -0.00659883       0.00664778      -0.00319988       0.00566561       0.00710412       0.00335697      -0.12475200       0.71060124      -0.12478281      -0.00883712      -0.01419052       0.00275968      -0.00688846      -0.00349178      -0.00684473      -0.00692330       0.00578137      -0.01678989       0.00282189      -0.01372201      -0.00876440      -0.01775013       0.03026317      -0.01747533      -0.01654243       0.00538744      -0.00691272      -0.00246462      -0.00297921      -0.00246619 </v>
    <v>      -0.16505749      -0.16839236      -3.57452689      -0.00012368      -0.00002455       0.00771946      -0.00002207      -0.00012414       0.00771946       0.00018609       0.00018985      -0.04716292      -0.00023618      -0.00024095       0.01344188       0.00095971      -0.00096657       0.00949014      -0.00098558       0.00094019       0.00949014      -0.00018563      -0.00018938       0.00431220       0.00259593       0.00821362      -0.01123071      -0.01712703       0.01668588       0.02807566      -0.12717711       0.11844222       0.70821867      -0.00683247      -0.00068095      -0.01321931      -0.01767392       0.00975313       0.00900097      -0.00252232       0.00278083      -0.00252877      -0.00892855       0.00811797      -0.00654465      -0.00725701       0.01714154       0.00575274       0.05424730      -0.12079280       0.11566731       0.00300887       0.00579555       0.00710519      -0.06761996       0.13589117       0.13289088      -0.00330282      -0.00660885       0.00663481       0.05513284       0.13589117       0.13289088       0.00269696      -0.00660885       0.00663481      -0.05667361      -0.12324935       0.11566731      -0.00342641       0.00605770       0.00710519       0.26496368       0.27031701       0.84120480       0.00720097      -0.00142106      -0.01289117      -0.00156479       0.00717110      -0.01289117       0.01874132       0.01911997       0.02824221       0.00687065       0.00700946      -0.00497230       0.01003663       0.01955472       0.00694396       0.01935008       0.01042572       0.00694396       0.00256930       0.00262121      -0.00293387       0.13721639      -0.06488862       0.13289088      -0.12185359       0.05182060       0.11566731      -0.00654147      -0.00343434       0.00663481       0.00573421       0.00312417       0.00710519      -0.12209124      -0.05912725       0.11566731       0.13476134       0.05783963       0.13289088       0.00612501      -0.00330457       0.00710519      -0.00666147       0.00256424       0.00663481       0.00299058      -0.00861066      -0.01407667      -0.01754022      -0.01789460       0.02954119      -0.12225741      -0.12472749       0.70550821      -0.00866875       0.00281777      -0.01407667      -0.01618626      -0.00689951       0.00510550      -0.00240633      -0.00245495      -0.00307966      -0.00689813      -0.00703750      -0.00377515      -0.00657441      -0.01632102       0.00510550      -0.05561683       0.05647157      -0.11218369      -0.05862418      -0.05980862      -0.11597797       0.06167358       0.06291962      -0.11597797       0.05757262      -0.05447628      -0.11218369      -0.00313954       0.00335697      -0.00429920      -0.00313651      -0.00319988      -0.00485116       0.00274327       0.00279870      -0.00485116       0.00341908      -0.00307178      -0.00429920       0.12096206      -0.12478281       0.70821867       0.00816006       0.00275968      -0.01123071      -0.00054417      -0.00684473      -0.01321931       0.01702508      -0.01678989       0.02807566       0.00829492      -0.00876440      -0.00654465       0.01010465      -0.01747533       0.00900097       0.01728325      -0.00691272       0.00575274       0.00283073      -0.00246619      -0.00252877 </v>
    <v>       0.01345647      -0.00012118      -0.00012368      -3.56118225      -0.16172266      -0.16505749       0.00946775       0.00095612       0.00018609       0.00772760      -0.00023578      -0.00002207       0.00946775       0.00016654       0.00095971       0.00772760      -0.00001726      -0.00023618       0.00432721      -0.00018188      -0.00018563      -0.04713108      -0.00096566      -0.00098558       0.00605807      -0.00690891      -0.01712703      -0.01383404      -0.00898340       0.00259593      -0.00322007      -0.00669443      -0.00683247       0.71558950      -0.12460761      -0.12717711      -0.00288047      -0.00247135      -0.00252232       0.03096465      -0.01731684      -0.01767392       0.00605807      -0.01698247      -0.00725701      -0.01383404       0.00277872      -0.00892855      -0.00429656       0.00307943      -0.00342641      -0.11217508       0.05541544      -0.05667361      -0.00483101       0.00264247       0.00269696      -0.11579039       0.05401893       0.05513284      -0.00483101      -0.00323609      -0.00330282      -0.11579039      -0.06625376      -0.06761996      -0.00429656      -0.00348854       0.00300887      -0.11217508      -0.05779273       0.05424730      -0.00554100       0.00705548       0.00720097       0.81978275       0.25961034       0.26496368       0.00576819       0.00965617       0.01874132      -0.01311240       0.00690402      -0.00156479       0.00576819       0.01854036       0.01003663      -0.01311240      -0.00170536       0.00687065      -0.00314160       0.00251739       0.00256930       0.02670263       0.01895913       0.01935008       0.12060320      -0.05313625      -0.12209124       0.12749056      -0.06138718       0.13476134       0.00686696      -0.00326522       0.00612501       0.00691179      -0.00300119      -0.00666147       0.12749056       0.05888551       0.13721639       0.12060320       0.06007192      -0.12185359       0.00691179       0.00287737      -0.00654147       0.00686696       0.00330275       0.00573421       0.00930428       0.01046479      -0.01754022      -0.01167612       0.00823560       0.00299058      -0.00652153       0.00833871      -0.00866875       0.70837150       0.12348281      -0.12225741      -0.00254356       0.00288043      -0.00240633       0.02805579       0.01761725      -0.01618626       0.00533894       0.01716282      -0.00657441      -0.01291980      -0.00040348      -0.00689813       0.12749056       0.13598607       0.06167358       0.12060320      -0.12305416       0.05757262       0.12060320      -0.12098140      -0.05561683       0.12749056       0.13598606      -0.05862418       0.00691179      -0.00659883       0.00274327       0.00686696       0.00566561       0.00341908       0.00686696       0.00619038      -0.00313954       0.00691179      -0.00659883      -0.00313651      -0.00652153      -0.00883712       0.00816006       0.70837150      -0.12475200       0.12096206       0.00533894      -0.00692330       0.01702508      -0.01291980      -0.00688846      -0.00054417       0.00930428      -0.01775013       0.01010465      -0.01167612       0.00282189       0.00829492      -0.00254356      -0.00246462       0.00283073       0.02805579      -0.01654243       0.01728325 </v>
    <v>      -0.00012118       0.00772046      -0.00002455      -0.16172266      -3.56765206      -0.16839236       0.00095612       0.00950600       0.00018985      -0.00023578       0.01344933      -0.00012414       0.00016654      -0.04714706      -0.00096657      -0.00001726       0.00772691      -0.00024095      -0.00018188       0.00431993      -0.00018938      -0.00096566       0.00945176       0.00094019      -0.00690891       0.00506224       0.01668588      -0.00898340      -0.00687801       0.00821362      -0.00669443      -0.01319151      -0.00068095      -0.12460761       0.70338325       0.11844222      -0.00247135      -0.00264230       0.00278083      -0.01731684       0.00860280       0.00975313      -0.01698247       0.02738516       0.01714154       0.00277872      -0.01156408       0.00811797      -0.00348854       0.00686324       0.00605770      -0.05779273       0.12064877      -0.12324935      -0.00323609       0.00690461      -0.00660885      -0.06625376       0.12734316       0.13589117       0.00264247       0.00690461      -0.00660885       0.05401893       0.12734316       0.13589117       0.00307943       0.00686324       0.00579555       0.05541544       0.12064877      -0.12079280       0.00705548      -0.01283316      -0.00142106       0.25961034       0.83016913       0.27031701       0.00965617       0.00615452       0.01911997       0.00690402      -0.00526176       0.00717110       0.01854036       0.02745277       0.01955472      -0.00170536      -0.01318063       0.00700946       0.00251739      -0.00304088       0.00262121       0.01895913       0.00651833       0.01042572       0.06007192      -0.11212948      -0.05912725       0.05888551      -0.11593777       0.05783963       0.00330275      -0.00430027      -0.00330457       0.00287737      -0.00483819       0.00256424      -0.06138718      -0.11593777      -0.06488862      -0.05313625      -0.11212948       0.05182060      -0.00300119      -0.00483819      -0.00343434      -0.00326522      -0.00430027       0.00312417       0.01046479       0.00972296      -0.01789460       0.00823560      -0.00618998      -0.00861066       0.00833871      -0.01134456       0.00281777       0.12348281       0.71331171      -0.12472749       0.00288043      -0.00242832      -0.00245495       0.01761725       0.00603468      -0.00689951       0.01716282       0.02875153      -0.01632102      -0.00040348      -0.01293595      -0.00703750       0.13598606       0.13293106       0.06291962      -0.12098140       0.11572151      -0.05447628      -0.12305416       0.11572151       0.05647157       0.13598607       0.13293106      -0.05980862      -0.00659883       0.00664778       0.00279870       0.00619038       0.00710412      -0.00307178       0.00566561       0.00710412       0.00335697      -0.00659883       0.00664778      -0.00319988      -0.00883712      -0.01419052       0.00275968      -0.12475200       0.71060124      -0.12478281      -0.00692330       0.00578137      -0.01678989      -0.00688846      -0.00349178      -0.00684473      -0.01775013       0.03026317      -0.01747533       0.00282189      -0.01372201      -0.00876440      -0.00246462      -0.00297921      -0.00246619      -0.01654243       0.00538744      -0.00691272 </v>
    <v>      -0.00012368      -0.00002455       0.00771946      -0.16505749      -0.16839236      -3.57452689       0.00018609       0.00018985      -0.04716292      -0.00002207      -0.00012414       0.00771946       0.00095971      -0.00096657       0.00949014      -0.00023618      -0.00024095       0.01344188      -0.00018563      -0.00018938       0.00431220      -0.00098558       0.00094019       0.00949014      -0.01712703       0.01668588       0.02807566       0.00259593       0.00821362      -0.01123071      -0.00683247      -0.00068095      -0.01321931      -0.12717711       0.11844222       0.70821867      -0.00252232       0.00278083      -0.00252877      -0.01767392       0.00975313       0.00900097      -0.00725701       0.01714154       0.00575274      -0.00892855       0.00811797      -0.00654465       0.00300887       0.00579555       0.00710519       0.05424730      -0.12079280       0.11566731      -0.00330282      -0.00660885       0.00663481      -0.06761996       0.13589117       0.13289088       0.00269696      -0.00660885       0.00663481       0.05513284       0.13589117       0.13289088      -0.00342641       0.00605770       0.00710519      -0.05667361      -0.12324935       0.11566731       0.00720097      -0.00142106      -0.01289117       0.26496368       0.27031701       0.84120480       0.01874132       0.01911997       0.02824221      -0.00156479       0.00717110      -0.01289117       0.01003663       0.01955472       0.00694396       0.00687065       0.00700946      -0.00497230       0.00256930       0.00262121      -0.00293387       0.01935008       0.01042572       0.00694396      -0.12185359       0.05182060       0.11566731       0.13721639      -0.06488862       0.13289088       0.00573421       0.00312417       0.00710519      -0.00654147      -0.00343434       0.00663481       0.13476134       0.05783963       0.13289088      -0.12209124      -0.05912725       0.11566731      -0.00666147       0.00256424       0.00663481       0.00612501      -0.00330457       0.00710519      -0.01754022      -0.01789460       0.02954119       0.00299058      -0.00861066      -0.01407667      -0.00866875       0.00281777      -0.01407667      -0.12225741      -0.12472749       0.70550821      -0.00240633      -0.00245495      -0.00307966      -0.01618626      -0.00689951       0.00510550      -0.00657441      -0.01632102       0.00510550      -0.00689813      -0.00703750      -0.00377515      -0.05862418      -0.05980862      -0.11597797      -0.05561683       0.05647157      -0.11218369       0.05757262      -0.05447628      -0.11218369       0.06167358       0.06291962      -0.11597797      -0.00313651      -0.00319988      -0.00485116      -0.00313954       0.00335697      -0.00429920       0.00341908      -0.00307178      -0.00429920       0.00274327       0.00279870      -0.00485116       0.00816006       0.00275968      -0.01123071       0.12096206      -0.12478281       0.70821867       0.01702508      -0.01678989       0.02807566      -0.00054417      -0.00684473      -0.01321931       0.01010465      -0.01747533       0.00900097       0.00829492      -0.00876440      -0.00654465       0.00283073      -0.00246619      -0.00252877       0.01728325      -0.00691272       0.00575274 </v>
    <v>       0.00772760      -0.00023578      -0.00002207       0.00946775       0.00095612       0.00018609      -3.56118225      -0.16172266      -0.16505749       0.01345647      -0.00012118      -0.00012368      -0.04713108      -0.00096566      -0.00098558       0.00432721      -0.00018188      -0.00018563       0.00772760      -0.00001726      -0.00023618       0.00946775       0.00016654       0.00095971       0.71558950      -0.12460761      -0.12717711      -0.00322007      -0.00669443      -0.00683247      -0.01383404      -0.00898340       0.00259593       0.00605807      -0.00690891      -0.01712703      -0.01383404       0.00277872      -0.00892855       0.00605807      -0.01698247      -0.00725701       0.03096465      -0.01731684      -0.01767392      -0.00288047      -0.00247135      -0.00252232      -0.11579039       0.05401893       0.05513284      -0.00483101       0.00264247       0.00269696      -0.11217508       0.05541544      -0.05667361      -0.00429656       0.00307943      -0.00342641      -0.11217508      -0.05779273       0.05424730      -0.00429656      -0.00348854       0.00300887      -0.11579039      -0.06625376      -0.06761996      -0.00483101      -0.00323609      -0.00330282      -0.01311240       0.00690402      -0.00156479       0.00576819       0.00965617       0.01874132       0.81978275       0.25961034       0.26496368      -0.00554100       0.00705548       0.00720097       0.02670263       0.01895913       0.01935008      -0.00314160       0.00251739       0.00256930      -0.01311240      -0.00170536       0.00687065       0.00576819       0.01854036       0.01003663       0.00691179      -0.00300119      -0.00666147       0.00686696      -0.00326522       0.00612501       0.12749056      -0.06138718       0.13476134       0.12060320      -0.05313625      -0.12209124       0.00686696       0.00330275       0.00573421       0.00691179       0.00287737      -0.00654147       0.12060320       0.06007192      -0.12185359       0.12749056       0.05888551       0.13721639       0.70837150       0.12348281      -0.12225741      -0.00652153       0.00833871      -0.00866875      -0.01167612       0.00823560       0.00299058       0.00930428       0.01046479      -0.01754022      -0.01291980      -0.00040348      -0.00689813       0.00533894       0.01716282      -0.00657441       0.02805579       0.01761725      -0.01618626      -0.00254356       0.00288043      -0.00240633       0.12749056       0.13598606      -0.05862418       0.12060320      -0.12098140      -0.05561683       0.12060320      -0.12305416       0.05757262       0.12749056       0.13598607       0.06167358       0.00691179      -0.00659883      -0.00313651       0.00686696       0.00619038      -0.00313954       0.00686696       0.00566561       0.00341908       0.00691179      -0.00659883       0.00274327      -0.01291980      -0.00688846      -0.00054417       0.00533894      -0.00692330       0.01702508       0.70837150      -0.12475200       0.12096206      -0.00652153      -0.00883712       0.00816006       0.02805579      -0.01654243       0.01728325      -0.00254356      -0.00246462       0.00283073      -0.01167612       0.00282189       0.00829492       0.00930428      -0.01775013       0.01010465 </v>
[...]
      </set>
     </set>
    </set>
   </array>
  </eigenvalues>
  <separator name="orbital magnetization" >
   <v name="MAGDIPOLOUT">      0.00000000      0.00000000      0.00000000</v>
  </separator>
  <dos>
   <i name="efermi">      9.81990634 </i>
   <total>
    <array>
     <dimension dim="1">gridpoints</dimension>
     <dimension dim="2">spin</dimension>
     <field>energy</field>
     <field>total</field>
     <field>integrated</field>
     <set>
      <set comment="spin 1">
       <r>   -13.3847     0.0000     0.0000 </r>
       <r>   -13.2645     0.0000     0.0000 </r>
       <r>   -13.1443     0.0000     0.0000 </r>
       <r>   -13.0242     0.0000     0.0000 </r>
       <r>   -12.9040     0.0000     0.0000 </r>
       <r>   -12.7838     0.0000     0.0000 </r>
       <r>   -12.6636     0.0000     0.0000 </r>
       <r>   -12.5434     0.0000     0.0000 </r>
       <r>   -12.4232     0.0000     0.0000 </r>
       <r>   -12.3030     0.0000     0.0000 </r>
       <r>   -12.1828     0.0000     0.0000 </r>
       <r>   -12.0626     0.0000     0.0000 </r>
       <r>   -11.9424     0.0000     0.0000 </r>
       <r>   -11.8222     0.0030     0.0004 </r>
       <r>   -11.7020     0.2351     0.0286 </r>
       <r>   -11.5818     1.2220     0.1755 </r>
       <r>   -11.4617     1.4109     0.3451 </r>
       <r>   -11.3415     2.8228     0.6843 </r>
       <r>   -11.2213     1.5469     0.8703 </r>
       <r>   -11.1011     3.5295     1.2945 </r>
       <r>   -10.9809     2.8845     1.6412 </r>
       <r>   -10.8607     3.7863     2.0963 </r>
       <r>   -10.7405     2.3972     2.3844 </r>
       <r>   -10.6203     4.5659     2.9332 </r>
       <r>   -10.5001     4.3626     3.4575 </r>
       <r>   -10.3799     4.9621     4.0539 </r>
       <r>   -10.2597     2.5295     4.3580 </r>
       <r>   -10.1395     4.6305     4.9145 </r>
       <r>   -10.0193     6.2129     5.6613 </r>
       <r>    -9.8992     5.4866     6.3207 </r>
       <r>    -9.7790     4.5609     6.8689 </r>
       <r>    -9.6588     4.3225     7.3884 </r>
       <r>    -9.5386     6.2599     8.1408 </r>
       <r>    -9.4184     5.6414     8.8189 </r>
       <r>    -9.2982     5.1512     9.4380 </r>
       <r>    -9.1780     7.3316    10.3192 </r>
       <r>    -9.0578     6.7063    11.1252 </r>
       <r>    -8.9376     6.4259    11.8976 </r>
       <r>    -8.8174     4.9273    12.4898 </r>
       <r>    -8.6972     5.4986    13.1507 </r>
       <r>    -8.5770     7.4497    14.0461 </r>
       <r>    -8.4568     8.4894    15.0665 </r>
       <r>    -8.3367     8.5793    16.0976 </r>
       <r>    -8.2165     6.2271    16.8461 </r>
       <r>    -8.0963     6.3766    17.6125 </r>
       <r>    -7.9761     8.0993    18.5860 </r>
       <r>    -7.8559     5.6606    19.2663 </r>
       <r>    -7.7357     9.1007    20.3602 </r>
       <r>    -7.6155     8.9678    21.4380 </r>
       <r>    -7.4953     9.5425    22.5850 </r>
       <r>    -7.3751     6.2393    23.3349 </r>
       <r>    -7.2549     9.9244    24.5277 </r>
       <r>    -7.1347     9.8642    25.7133 </r>
       <r>    -7.0145     8.3622    26.7184 </r>
       <r>    -6.8943     7.2169    27.5858 </r>
       <r>    -6.7742     8.4660    28.6034 </r>
       <r>    -6.6540    10.6705    29.8859 </r>
       <r>    -6.5338     9.9471    31.0815 </r>
       <r>    -6.4136    12.9821    32.6418 </r>
       <r>    -6.2934    10.6946    33.9272 </r>
       <r>    -6.1732    11.6021    35.3217 </r>
       <r>    -6.0530    12.4169    36.8141 </r>
       <r>    -5.9328     8.0827    37.7856 </r>
       <r>    -5.8126    12.8394    39.3288 </r>
       <r>    -5.6924    11.0547    40.6575 </r>
       <r>    -5.5722    11.7785    42.0732 </r>
       <r>    -5.4520    11.4945    43.4547 </r>
       <r>    -5.3318    11.9384    44.8896 </r>
       <r>    -5.2117    14.1942    46.5957 </r>
       <r>    -5.0915     7.6424    47.5142 </r>
       <r>    -4.9713    10.3193    48.7545 </r>
       <r>    -4.8511     9.7704    49.9288 </r>
       <r>    -4.7309    11.0433    51.2562 </r>
       <r>    -4.6107     7.2911    52.1325 </r>
       <r>    -4.4905     8.7566    53.1850 </r>
       <r>    -4.3703     6.2766    53.9394 </r>
       <r>    -4.2501     8.5807    54.9707 </r>
       <r>    -4.1299    11.0713    56.3014 </r>
       <r>    -4.0097     9.9722    57.5000 </r>
       <r>    -3.8895     9.3538    58.6242 </r>
       <r>    -3.7693     6.5010    59.4056 </r>
       <r>    -3.6492     5.2922    60.0417 </r>
       <r>    -3.5290     7.0320    60.8869 </r>
       <r>    -3.4088     6.6873    61.6906 </r>
       <r>    -3.2886     6.5643    62.4796 </r>
       <r>    -3.1684    10.5927    63.7528 </r>
       <r>    -3.0482     7.5999    64.6662 </r>
       <r>    -2.9280     9.6081    65.8210 </r>
       <r>    -2.8078    11.3226    67.1819 </r>
       <r>    -2.6876     9.7553    68.3544 </r>
       <r>    -2.5674     7.9442    69.3093 </r>
       <r>    -2.4472     7.8972    70.2585 </r>
       <r>    -2.3270    10.7641    71.5522 </r>
       <r>    -2.2068    11.4775    72.9317 </r>
       <r>    -2.0867    12.6698    74.4545 </r>
       <r>    -1.9665    13.0943    76.0284 </r>
       <r>    -1.8463    19.6080    78.3851 </r>
       <r>    -1.7261    26.1472    81.5278 </r>
       <r>    -1.6059    21.1321    84.0677 </r>
       <r>    -1.4857    15.7059    85.9554 </r>
       <r>    -1.3655    18.4833    88.1770 </r>
       <r>    -1.2453     8.8248    89.2377 </r>
       <r>    -1.1251    10.5548    90.5063 </r>
       <r>    -1.0049    10.1154    91.7221 </r>
       <r>    -0.8847    11.3850    93.0905 </r>
       <r>    -0.7645     9.3415    94.2132 </r>
       <r>    -0.6443    10.4236    95.4661 </r>
       <r>    -0.5241    10.9429    96.7813 </r>
       <r>    -0.4040    14.2079    98.4890 </r>
       <r>    -0.2838    12.8643   100.0352 </r>
       <r>    -0.1636     8.7416   101.0859 </r>
       <r>    -0.0434     3.3717   101.4911 </r>
       <r>     0.0768     6.5900   102.2832 </r>
       <r>     0.1970     8.9753   103.3619 </r>
       <r>     0.3172    11.4533   104.7385 </r>
       <r>     0.4374    10.7325   106.0285 </r>
       <r>     0.5576     9.2413   107.1392 </r>
       <r>     0.6778     9.3371   108.2615 </r>
       <r>     0.7980    17.7441   110.3942 </r>
       <r>     0.9182    22.3584   113.0815 </r>
       <r>     1.0384    19.8875   115.4718 </r>
       <r>     1.1585    14.5441   117.2199 </r>
       <r>     1.2787    12.5393   118.7270 </r>
       <r>     1.3989    13.8150   120.3875 </r>
       <r>     1.5191    13.6322   122.0260 </r>
       <r>     1.6393    20.6228   124.5047 </r>
       <r>     1.7595    21.6903   127.1117 </r>
       <r>     1.8797    14.8075   128.8914 </r>
       <r>     1.9999    14.6439   130.6515 </r>
       <r>     2.1201    16.2886   132.6093 </r>
       <r>     2.2403    20.0419   135.0182 </r>
       <r>     2.3605    19.4274   137.3532 </r>
       <r>     2.4807    16.5043   139.3369 </r>
       <r>     2.6009    18.1706   141.5208 </r>
       <r>     2.7210    18.9172   143.7945 </r>
       <r>     2.8412    15.4021   145.6458 </r>
       <r>     2.9614    23.5202   148.4727 </r>
       <r>     3.0816    26.5113   151.6592 </r>
       <r>     3.2018    22.4859   154.3618 </r>
       <r>     3.3220    23.9191   157.2367 </r>
       <r>     3.4422    22.7896   159.9758 </r>
       <r>     3.5624    20.9561   162.4946 </r>
       <r>     3.6826    22.5620   165.2064 </r>
       <r>     3.8028    26.2384   168.3600 </r>
       <r>     3.9230    32.4303   172.2579 </r>
       <r>     4.0432    24.3375   175.1831 </r>
       <r>     4.1634    25.4139   178.2376 </r>
       <r>     4.2835    25.3713   181.2871 </r>
       <r>     4.4037    17.2758   183.3635 </r>
       <r>     4.5239    21.0923   185.8986 </r>
       <r>     4.6441    29.5075   189.4452 </r>
       <r>     4.7643    22.6147   192.1633 </r>
       <r>     4.8845    23.7238   195.0148 </r>
       <r>     5.0047    22.3312   197.6988 </r>
       <r>     5.1249    25.1107   200.7169 </r>
       <r>     5.2451    21.4217   203.2916 </r>
       <r>     5.3653    24.1735   206.1971 </r>
       <r>     5.4855    19.5951   208.5523 </r>
       <r>     5.6057    21.8349   211.1767 </r>
       <r>     5.7259    22.4844   213.8791 </r>
       <r>     5.8460    16.8863   215.9087 </r>
       <r>     5.9662    25.9915   219.0327 </r>
       <r>     6.0864    24.0424   221.9224 </r>
       <r>     6.2066    21.2172   224.4726 </r>
       <r>     6.3268    20.0655   226.8843 </r>
       <r>     6.4470    18.1935   229.0710 </r>
       <r>     6.5672    16.4549   231.0488 </r>
       <r>     6.6874    19.8182   233.4308 </r>
       <r>     6.8076    20.0482   235.8404 </r>
       <r>     6.9278    27.0704   239.0941 </r>
       <r>     7.0480     8.5322   240.1196 </r>
       <r>     7.1682     8.3234   241.1200 </r>
       <r>     7.2884    13.6811   242.7643 </r>
       <r>     7.4085    12.3643   244.2504 </r>
       <r>     7.5287    10.8025   245.5488 </r>
       <r>     7.6489    11.6914   246.9540 </r>
       <r>     7.7691     8.7140   248.0014 </r>
       <r>     7.8893     6.9544   248.8373 </r>
       <r>     8.0095     6.4139   249.6082 </r>
       <r>     8.1297     8.2930   250.6049 </r>
       <r>     8.2499     7.3428   251.4875 </r>
       <r>     8.3701     6.3239   252.2475 </r>
       <r>     8.4903     3.3575   252.6511 </r>
       <r>     8.6105     6.2804   253.4059 </r>
       <r>     8.7307     5.4866   254.0654 </r>
       <r>     8.8509     3.9590   254.5412 </r>
       <r>     8.9710     2.0965   254.7932 </r>
       <r>     9.0912     3.0357   255.1581 </r>
       <r>     9.2114     3.8696   255.6232 </r>
       <r>     9.3316     1.6730   255.8243 </r>
       <r>     9.4518     0.9851   255.9427 </r>
       <r>     9.5720     0.4566   255.9976 </r>
       <r>     9.6922     0.0203   256.0000 </r>
       <r>     9.8124     0.0000   256.0000 </r>
       <r>     9.9326     0.0000   256.0000 </r>
       <r>    10.0528     0.0000   256.0000 </r>
       <r>    10.1730     0.0000   256.0000 </r>
       <r>    10.2932     0.0000   256.0000 </r>
       <r>    10.4134     0.0000   256.0000 </r>
       <r>    10.5335     0.0000   256.0000 </r>
       <r>    10.6537     0.0000   256.0000 </r>
       <r>    10.7739     0.0000   256.0000 </r>
       <r>    10.8941     0.0000   256.0000 </r>
       <r>    11.0143     0.0000   256.0000 </r>
       <r>    11.1345     0.0000   256.0000 </r>
       <r>    11.2547     0.0000   256.0000 </r>
       <r>    11.3749     0.0000   256.0000 </r>
       <r>    11.4951     0.0000   256.0000 </r>
       <r>    11.6153     0.0000   256.0000 </r>
       <r>    11.7355     0.0000   256.0000 </r>
       <r>    11.8557     0.0000   256.0000 </r>
       <r>    11.9759     0.0000   256.0000 </r>
       <r>    12.0960     0.0000   256.0000 </r>
       <r>    12.2162     0.0000   256.0000 </r>
       <r>    12.3364     0.0000   256.0000 </r>
       <r>    12.4566     0.0000   256.0000 </r>
       <r>    12.5768     0.0000   256.0000 </r>
       <r>    12.6970     0.0000   256.0000 </r>
       <r>    12.8172     0.0000   256.0000 </r>
       <r>    12.9374     0.0000   256.0000 </r>
       <r>    13.0576     0.0000   256.0000 </r>
       <r>    13.1778     0.0000   256.0000 </r>
       <r>    13.2980     0.0000   256.0000 </r>
       <r>    13.4182     0.0013   256.0002 </r>
       <r>    13.5384     0.3888   256.0469 </r>
       <r>    13.6586     1.0995   256.1790 </r>
       <r>    13.7787     1.5840   256.3694 </r>
       <r>    13.8989     6.3609   257.1340 </r>
       <r>    14.0191     6.0034   257.8555 </r>
       <r>    14.1393     5.0544   258.4630 </r>
       <r>    14.2595     4.7288   259.0314 </r>
       <r>    14.3797     7.7233   259.9597 </r>
       <r>    14.4999     5.7854   260.6550 </r>
       <r>    14.6201     7.9218   261.6072 </r>
       <r>    14.7403    11.8045   263.0260 </r>
       <r>    14.8605    15.3482   264.8707 </r>
       <r>    14.9807    11.7800   266.2866 </r>
       <r>    15.1009    12.8190   267.8273 </r>
       <r>    15.2211    14.4109   269.5594 </r>
       <r>    15.3412     9.5456   270.7067 </r>
       <r>    15.4614    12.2043   272.1736 </r>
       <r>    15.5816    14.8971   273.9641 </r>
       <r>    15.7018    18.9141   276.2374 </r>
       <r>    15.8220    21.7228   278.8483 </r>
       <r>    15.9422    19.6614   281.2115 </r>
       <r>    16.0624    18.1792   283.3965 </r>
       <r>    16.1826    16.6932   285.4029 </r>
       <r>    16.3028    18.7972   287.6622 </r>
       <r>    16.4230    21.8623   290.2898 </r>
       <r>    16.5432    20.0365   292.6981 </r>
       <r>    16.6634    15.5462   294.5666 </r>
       <r>    16.7836    16.1198   296.5041 </r>
       <r>    16.9037    19.7625   298.8794 </r>
       <r>    17.0239    36.2535   303.2368 </r>
       <r>    17.1441    41.8319   308.2647 </r>
       <r>    17.2643    29.4023   311.7986 </r>
       <r>    17.3845    23.9534   314.6776 </r>
       <r>    17.5047    25.3569   317.7253 </r>
       <r>    17.6249    36.7349   322.1406 </r>
       <r>    17.7451    36.4433   326.5208 </r>
       <r>    17.8653    33.4022   330.5355 </r>
       <r>    17.9855    24.7154   333.5061 </r>
       <r>    18.1057    29.0582   336.9986 </r>
       <r>    18.2259    30.0757   340.6135 </r>
       <r>    18.3461    31.8628   344.4432 </r>
       <r>    18.4662    36.2100   348.7953 </r>
       <r>    18.5864    29.5311   352.3448 </r>
       <r>    18.7066    24.3718   355.2741 </r>
       <r>    18.8268    26.4319   358.4510 </r>
       <r>    18.9470    24.2011   361.3598 </r>
       <r>    19.0672    25.0757   364.3737 </r>
       <r>    19.1874    25.1401   367.3953 </r>
       <r>    19.3076    30.3077   371.0381 </r>
       <r>    19.4278    22.3019   373.7186 </r>
       <r>    19.5480    20.9492   376.2365 </r>
       <r>    19.6682    25.1147   379.2551 </r>
       <r>    19.7884    13.9654   380.9336 </r>
       <r>    19.9086     8.7127   381.9808 </r>
       <r>    20.0287     4.8066   382.5586 </r>
       <r>    20.1489     2.1387   382.8156 </r>
       <r>    20.2691     1.9459   383.0495 </r>
       <r>    20.3893     2.6771   383.3713 </r>
       <r>    20.5095     0.9297   383.4830 </r>
       <r>    20.6297     0.7842   383.5773 </r>
       <r>    20.7499     1.5995   383.7695 </r>
       <r>    20.8701     1.4798   383.9474 </r>
       <r>    20.9903     0.1765   383.9686 </r>
       <r>    21.1105     0.2504   383.9987 </r>
       <r>    21.2307     0.0110   384.0000 </r>
       <r>    21.3509     0.0000   384.0000 </r>
       <r>    21.4711     0.0000   384.0000 </r>
       <r>    21.5912     0.0000   384.0000 </r>
       <r>    21.7114     0.0000   384.0000 </r>
       <r>    21.8316     0.0000   384.0000 </r>
       <r>    21.9518     0.0000   384.0000 </r>
       <r>    22.0720     0.0000   384.0000 </r>
       <r>    22.1922     0.0000   384.0000 </r>
       <r>    22.3124     0.0000   384.0000 </r>
       <r>    22.4326     0.0000   384.0000 </r>
       <r>    22.5528     0.0000   384.0000 </r>
       <r>    22.6730     0.0000   384.0000 </r>
      </set>
     </set>
    </array>
   </total>
  </dos>
 </calculation>
 <structure name="finalpos" >
  <crystal>
   <varray name="basis" >
    <v>       7.17999872       0.00000000       0.00000000 </v>
    <v>      -0.14359957       7.17856220       0.00000000 </v>
    <v>      -0.14359957      -0.14650074       7.17706742 </v>
   </varray>
   <i name="volume">    369.92089250 </i>
   <varray name="rec_basis" >
    <v>       0.13927579       0.00278607       0.00284352 </v>
    <v>       0.00000000       0.13930366       0.00284351 </v>
    <v>       0.00000000       0.00000000       0.13933267 </v>
   </varray>
  </crystal>
  <varray name="positions" >
   <v>       0.12500000       0.37500000       0.12500000 </v>
   <v>       0.62500000       0.37500000       0.12500000 </v>
   <v>       0.12500000       0.87500000       0.12500000 </v>
   <v>       0.62500000       0.87500000       0.12500000 </v>
   <v>       0.12500000       0.37500000       0.62500000 </v>
   <v>       0.62500000       0.37500000       0.62500000 </v>
   <v>       0.12500000       0.87500000       0.62500000 </v>
   <v>       0.62500000       0.87500000       0.62500000 </v>
   <v>       0.00000000       0.00000000       0.25000000 </v>
   <v>       0.50000000       0.00000000       0.25000000 </v>
   <v>       0.00000000       0.50000000       0.25000000 </v>
   <v>       0.50000000       0.50000000       0.25000000 </v>
   <v>       0.00000000       0.00000000       0.75000000 </v>
   <v>       0.50000000       0.00000000       0.75000000 </v>
   <v>       0.00000000       0.50000000       0.75000000 </v>
   <v>       0.50000000       0.50000000       0.75000000 </v>
   <v>       0.12500000       0.12500000       0.37500000 </v>
   <v>       0.62500000       0.12500000       0.37500000 </v>
   <v>       0.12500000       0.62500000       0.37500000 </v>
   <v>       0.62500000       0.62500000       0.37500000 </v>
   <v>       0.12500000       0.12500000       0.87500000 </v>
   <v>       0.62500000       0.12500000       0.87500000 </v>
   <v>       0.12500000       0.62500000       0.87500000 </v>
   <v>       0.62500000       0.62500000       0.87500000 </v>
   <v>       0.00000000       0.25000000       0.00000000 </v>
   <v>       0.50000000       0.25000000       0.00000000 </v>
   <v>       0.00000000       0.75000000       0.00000000 </v>
   <v>       0.50000000       0.75000000       0.00000000 </v>
   <v>       0.00000000       0.25000000       0.50000000 </v>
   <v>       0.50000000       0.25000000       0.50000000 </v>
   <v>       0.00000000       0.75000000       0.50000000 </v>
   <v>       0.50000000       0.75000000       0.50000000 </v>
   <v>       0.37500000       0.37500000       0.37500000 </v>
   <v>       0.87500000       0.37500000       0.37500000 </v>
   <v>       0.37500000       0.87500000       0.37500000 </v>
   <v>       0.87500000       0.87500000       0.37500000 </v>
   <v>       0.37500000       0.37500000       0.87500000 </v>
   <v>       0.87500000       0.37500000       0.87500000 </v>
   <v>       0.37500000       0.87500000       0.87500000 </v>
   <v>       0.87500000       0.87500000       0.87500000 </v>
   <v>       0.25000000       0.00000000       0.00000000 </v>
   <v>       0.75000000       0.00000000       0.00000000 </v>
   <v>       0.25000000       0.50000000       0.00000000 </v>
   <v>       0.75000000       0.50000000       0.00000000 </v>
   <v>       0.25000000       0.00000000       0.50000000 </v>
   <v>       0.75000000       0.00000000       0.50000000 </v>
   <v>       0.25000000       0.50000000       0.50000000 </v>
   <v>       0.75000000       0.50000000       0.50000000 </v>
   <v>       0.37500000       0.12500000       0.12500000 </v>
   <v>       0.87500000       0.12500000       0.12500000 </v>
   <v>       0.37500000       0.62500000       0.12500000 </v>
   <v>       0.87500000       0.62500000       0.12500000 </v>
   <v>       0.37500000       0.12500000       0.62500000 </v>
   <v>       0.87500000       0.12500000       0.62500000 </v>
   <v>       0.37500000       0.62500000       0.62500000 </v>
   <v>       0.87500000       0.62500000       0.62500000 </v>
   <v>       0.25000000       0.25000000       0.25000000 </v>
   <v>       0.75000000       0.25000000       0.25000000 </v>
   <v>       0.25000000       0.75000000       0.25000000 </v>
   <v>       0.75000000       0.75000000       0.25000000 </v>
   <v>       0.25000000       0.25000000       0.75000000 </v>
   <v>       0.75000000       0.25000000       0.75000000 </v>
   <v>       0.25000000       0.75000000       0.75000000 </v>
   <v>       0.75000000       0.75000000       0.75000000 </v>
  </varray>
 </structure>
</modeling>
