   8   8   0   0
  0.5775874E+01  0.3589999E-09  0.3589999E-09  0.3589999E-09  0.2000000E-16
  1.000000000000000E-004
  CAR 
 unknown system                          
     23.12431696    -13.41085409  301      9.62152666      1.00000000
    -13.411  0.0000E+00  0.0000E+00
    -13.289  0.0000E+00  0.0000E+00
    -13.167  0.0000E+00  0.0000E+00
    -13.046  0.0000E+00  0.0000E+00
    -12.924  0.0000E+00  0.0000E+00
    -12.802  0.0000E+00  0.0000E+00
    -12.680  0.0000E+00  0.0000E+00
    -12.558  0.0000E+00  0.0000E+00
    -12.437  0.0000E+00  0.0000E+00
    -12.315  0.0000E+00  0.0000E+00
    -12.193  0.0000E+00  0.0000E+00
    -12.071  0.0000E+00  0.0000E+00
    -11.949  0.0000E+00  0.0000E+00
    -11.828  0.0000E+00  0.0000E+00
    -11.706  0.3755E-01  0.5543E-03
    -11.584  0.1578E+00  0.1532E-01
    -11.462  0.2442E+00  0.3990E-01
    -11.341  0.2776E+00  0.7134E-01
    -11.219  0.3264E+00  0.1081E+00
    -11.097  0.3651E+00  0.1507E+00
    -10.975  0.3956E+00  0.1970E+00
    -10.853  0.4282E+00  0.2471E+00
    -10.732  0.4667E+00  0.3015E+00
    -10.610  0.4894E+00  0.3598E+00
    -10.488  0.5135E+00  0.4209E+00
    -10.366  0.5404E+00  0.4850E+00
    -10.244  0.5692E+00  0.5526E+00
    -10.123  0.5954E+00  0.6236E+00
    -10.001  0.6160E+00  0.6973E+00
     -9.879  0.6392E+00  0.7737E+00
     -9.757  0.6668E+00  0.8532E+00
     -9.636  0.6974E+00  0.9363E+00
     -9.514  0.7318E+00  0.1023E+01
     -9.392  0.7347E+00  0.1112E+01
     -9.270  0.7428E+00  0.1202E+01
     -9.148  0.7615E+00  0.1294E+01
     -9.027  0.7790E+00  0.1388E+01
     -8.905  0.8032E+00  0.1484E+01
     -8.783  0.8267E+00  0.1583E+01
     -8.661  0.8445E+00  0.1685E+01
     -8.539  0.8646E+00  0.1789E+01
     -8.418  0.8905E+00  0.1896E+01
     -8.296  0.9128E+00  0.2006E+01
     -8.174  0.9338E+00  0.2118E+01
     -8.052  0.9476E+00  0.2233E+01
     -7.931  0.9681E+00  0.2350E+01
     -7.809  0.1083E+01  0.2472E+01
     -7.687  0.1137E+01  0.2608E+01
     -7.565  0.1126E+01  0.2746E+01
     -7.443  0.1073E+01  0.2881E+01
     -7.322  0.1041E+01  0.3008E+01
     -7.200  0.1032E+01  0.3135E+01
     -7.078  0.1069E+01  0.3261E+01
     -6.956  0.1110E+01  0.3394E+01
     -6.835  0.1199E+01  0.3534E+01
     -6.713  0.1167E+01  0.3679E+01
     -6.591  0.1265E+01  0.3825E+01
     -6.469  0.1360E+01  0.3987E+01
     -6.347  0.1360E+01  0.4152E+01
     -6.226  0.1352E+01  0.4316E+01
     -6.104  0.1436E+01  0.4486E+01
     -5.982  0.1506E+01  0.4663E+01
     -5.860  0.1540E+01  0.4852E+01
     -5.738  0.1455E+01  0.5035E+01
     -5.617  0.1452E+01  0.5210E+01
     -5.495  0.1429E+01  0.5388E+01
     -5.373  0.1453E+01  0.5561E+01
     -5.251  0.1416E+01  0.5739E+01
     -5.130  0.1313E+01  0.5905E+01
     -5.008  0.1249E+01  0.6061E+01
     -4.886  0.1189E+01  0.6210E+01
     -4.764  0.1174E+01  0.6354E+01
     -4.642  0.1162E+01  0.6496E+01
     -4.521  0.1112E+01  0.6634E+01
     -4.399  0.1211E+01  0.6773E+01
     -4.277  0.1116E+01  0.6915E+01
     -4.155  0.1046E+01  0.7047E+01
     -4.033  0.9693E+00  0.7170E+01
     -3.912  0.9224E+00  0.7285E+01
     -3.790  0.9038E+00  0.7395E+01
     -3.668  0.8955E+00  0.7505E+01
     -3.546  0.9670E+00  0.7616E+01
     -3.425  0.9847E+00  0.7739E+01
     -3.303  0.1140E+01  0.7858E+01
     -3.181  0.9448E+00  0.7987E+01
     -3.059  0.8744E+00  0.8098E+01
     -2.937  0.9661E+00  0.8204E+01
     -2.816  0.9623E+00  0.8321E+01
     -2.694  0.8733E+00  0.8431E+01
     -2.572  0.9935E+00  0.8545E+01
     -2.450  0.1162E+01  0.8675E+01
     -2.329  0.1379E+01  0.8830E+01
     -2.207  0.1686E+01  0.9016E+01
     -2.085  0.2147E+01  0.9249E+01
     -1.963  0.2629E+01  0.9535E+01
     -1.841  0.2433E+01  0.9858E+01
     -1.720  0.2281E+01  0.1014E+02
     -1.598  0.2241E+01  0.1042E+02
     -1.476  0.1969E+01  0.1068E+02
     -1.354  0.1843E+01  0.1090E+02
     -1.232  0.1705E+01  0.1112E+02
     -1.111  0.1558E+01  0.1132E+02
     -0.989  0.1469E+01  0.1150E+02
     -0.867  0.1404E+01  0.1168E+02
     -0.745  0.1368E+01  0.1185E+02
     -0.624  0.1338E+01  0.1201E+02
     -0.502  0.1290E+01  0.1217E+02
     -0.380  0.1260E+01  0.1232E+02
     -0.258  0.1121E+01  0.1248E+02
     -0.136  0.1102E+01  0.1261E+02
     -0.015  0.1098E+01  0.1275E+02
      0.107  0.1078E+01  0.1288E+02
      0.229  0.1038E+01  0.1301E+02
      0.351  0.9714E+00  0.1313E+02
      0.473  0.1259E+01  0.1326E+02
      0.594  0.1697E+01  0.1344E+02
      0.716  0.1952E+01  0.1367E+02
      0.838  0.2243E+01  0.1392E+02
      0.960  0.2232E+01  0.1419E+02
      1.081  0.2178E+01  0.1446E+02
      1.203  0.2216E+01  0.1473E+02
      1.325  0.2268E+01  0.1500E+02
      1.447  0.2222E+01  0.1527E+02
      1.569  0.1533E+01  0.1550E+02
      1.690  0.1415E+01  0.1568E+02
      1.812  0.1678E+01  0.1586E+02
      1.934  0.1970E+01  0.1608E+02
      2.056  0.2397E+01  0.1634E+02
      2.177  0.2580E+01  0.1665E+02
      2.299  0.2362E+01  0.1694E+02
      2.421  0.2264E+01  0.1723E+02
      2.543  0.2225E+01  0.1750E+02
      2.665  0.2506E+01  0.1778E+02
      2.786  0.2612E+01  0.1810E+02
      2.908  0.2719E+01  0.1842E+02
      3.030  0.3143E+01  0.1878E+02
      3.152  0.2672E+01  0.1914E+02
      3.274  0.2740E+01  0.1946E+02
      3.395  0.2647E+01  0.1979E+02
      3.517  0.2662E+01  0.2012E+02
      3.639  0.3316E+01  0.2047E+02
      3.761  0.3590E+01  0.2089E+02
      3.882  0.3531E+01  0.2133E+02
      4.004  0.3139E+01  0.2173E+02
      4.126  0.3048E+01  0.2211E+02
      4.248  0.2916E+01  0.2247E+02
      4.370  0.2965E+01  0.2284E+02
      4.491  0.2963E+01  0.2319E+02
      4.613  0.2787E+01  0.2355E+02
      4.735  0.2800E+01  0.2388E+02
      4.857  0.2978E+01  0.2424E+02
      4.979  0.3047E+01  0.2460E+02
      5.100  0.3210E+01  0.2498E+02
      5.222  0.2894E+01  0.2535E+02
      5.344  0.3036E+01  0.2570E+02
      5.466  0.2570E+01  0.2604E+02
      5.587  0.2401E+01  0.2634E+02
      5.709  0.2552E+01  0.2664E+02
      5.831  0.2630E+01  0.2695E+02
      5.953  0.2870E+01  0.2729E+02
      6.075  0.2937E+01  0.2764E+02
      6.196  0.2706E+01  0.2798E+02
      6.318  0.2664E+01  0.2831E+02
      6.440  0.2600E+01  0.2863E+02
      6.562  0.2551E+01  0.2894E+02
      6.683  0.2326E+01  0.2927E+02
      6.805  0.1724E+01  0.2951E+02
      6.927  0.1988E+01  0.2973E+02
      7.049  0.2051E+01  0.2998E+02
      7.171  0.1680E+01  0.3021E+02
      7.292  0.1483E+01  0.3040E+02
      7.414  0.1392E+01  0.3058E+02
      7.536  0.1290E+01  0.3074E+02
      7.658  0.1174E+01  0.3089E+02
      7.780  0.1049E+01  0.3103E+02
      7.901  0.9716E+00  0.3115E+02
      8.023  0.9034E+00  0.3126E+02
      8.145  0.8666E+00  0.3137E+02
      8.267  0.7934E+00  0.3147E+02
      8.388  0.7027E+00  0.3156E+02
      8.510  0.6233E+00  0.3164E+02
      8.632  0.5882E+00  0.3172E+02
      8.754  0.5331E+00  0.3179E+02
      8.876  0.4140E+00  0.3184E+02
      8.997  0.3780E+00  0.3189E+02
      9.119  0.3794E+00  0.3194E+02
      9.241  0.2024E+00  0.3197E+02
      9.363  0.1377E+00  0.3199E+02
      9.485  0.1383E-01  0.3200E+02
      9.606  0.0000E+00  0.3200E+02
      9.728  0.0000E+00  0.3200E+02
      9.850  0.0000E+00  0.3200E+02
      9.972  0.0000E+00  0.3200E+02
     10.093  0.0000E+00  0.3200E+02
     10.215  0.0000E+00  0.3200E+02
     10.337  0.0000E+00  0.3200E+02
     10.459  0.0000E+00  0.3200E+02
     10.581  0.0000E+00  0.3200E+02
     10.702  0.0000E+00  0.3200E+02
     10.824  0.0000E+00  0.3200E+02
     10.946  0.0000E+00  0.3200E+02
     11.068  0.0000E+00  0.3200E+02
     11.189  0.0000E+00  0.3200E+02
     11.311  0.0000E+00  0.3200E+02
     11.433  0.0000E+00  0.3200E+02
     11.555  0.0000E+00  0.3200E+02
     11.677  0.0000E+00  0.3200E+02
     11.798  0.0000E+00  0.3200E+02
     11.920  0.0000E+00  0.3200E+02
     12.042  0.0000E+00  0.3200E+02
     12.164  0.0000E+00  0.3200E+02
     12.286  0.0000E+00  0.3200E+02
     12.407  0.0000E+00  0.3200E+02
     12.529  0.0000E+00  0.3200E+02
     12.651  0.0000E+00  0.3200E+02
     12.773  0.0000E+00  0.3200E+02
     12.894  0.0000E+00  0.3200E+02
     13.016  0.0000E+00  0.3200E+02
     13.138  0.0000E+00  0.3200E+02
     13.260  0.0000E+00  0.3200E+02
     13.382  0.0000E+00  0.3200E+02
     13.503  0.0000E+00  0.3200E+02
     13.625  0.1460E+00  0.3201E+02
     13.747  0.4148E+00  0.3204E+02
     13.869  0.5890E+00  0.3211E+02
     13.991  0.6325E+00  0.3219E+02
     14.112  0.6955E+00  0.3227E+02
     14.234  0.8632E+00  0.3237E+02
     14.356  0.9568E+00  0.3248E+02
     14.478  0.1130E+01  0.3260E+02
     14.599  0.1435E+01  0.3276E+02
     14.721  0.1349E+01  0.3293E+02
     14.843  0.1379E+01  0.3310E+02
     14.965  0.1478E+01  0.3327E+02
     15.087  0.1491E+01  0.3345E+02
     15.208  0.1570E+01  0.3363E+02
     15.330  0.1699E+01  0.3383E+02
     15.452  0.1874E+01  0.3405E+02
     15.574  0.2012E+01  0.3429E+02
     15.695  0.2026E+01  0.3453E+02
     15.817  0.2234E+01  0.3479E+02
     15.939  0.2139E+01  0.3505E+02
     16.061  0.2217E+01  0.3532E+02
     16.183  0.2326E+01  0.3560E+02
     16.304  0.2461E+01  0.3589E+02
     16.426  0.2617E+01  0.3620E+02
     16.548  0.2735E+01  0.3652E+02
     16.670  0.2878E+01  0.3687E+02
     16.792  0.3401E+01  0.3723E+02
     16.913  0.3593E+01  0.3766E+02
     17.035  0.4147E+01  0.3814E+02
     17.157  0.3690E+01  0.3862E+02
     17.279  0.3107E+01  0.3903E+02
     17.400  0.2889E+01  0.3939E+02
     17.522  0.3296E+01  0.3974E+02
     17.644  0.2878E+01  0.4012E+02
     17.766  0.2720E+01  0.4044E+02
     17.888  0.3042E+01  0.4080E+02
     18.009  0.3733E+01  0.4120E+02
     18.131  0.4434E+01  0.4169E+02
     18.253  0.4414E+01  0.4221E+02
     18.375  0.4333E+01  0.4275E+02
     18.497  0.3591E+01  0.4324E+02
     18.618  0.3440E+01  0.4366E+02
     18.740  0.3336E+01  0.4408E+02
     18.862  0.3110E+01  0.4447E+02
     18.984  0.3098E+01  0.4485E+02
     19.105  0.2845E+01  0.4521E+02
     19.227  0.2582E+01  0.4554E+02
     19.349  0.2574E+01  0.4586E+02
     19.471  0.2677E+01  0.4617E+02
     19.593  0.2851E+01  0.4651E+02
     19.714  0.2818E+01  0.4686E+02
     19.836  0.2349E+01  0.4718E+02
     19.958  0.1873E+01  0.4743E+02
     20.080  0.1417E+01  0.4763E+02
     20.202  0.8282E+00  0.4777E+02
     20.323  0.5365E+00  0.4785E+02
     20.445  0.3013E+00  0.4790E+02
     20.567  0.2295E+00  0.4793E+02
     20.689  0.1672E+00  0.4795E+02
     20.810  0.1169E+00  0.4797E+02
     20.932  0.7681E-01  0.4798E+02
     21.054  0.5243E-01  0.4799E+02
     21.176  0.3378E-01  0.4800E+02
     21.298  0.1332E-01  0.4800E+02
     21.419  0.9473E-03  0.4800E+02
     21.541  0.0000E+00  0.4800E+02
     21.663  0.0000E+00  0.4800E+02
     21.785  0.0000E+00  0.4800E+02
     21.906  0.0000E+00  0.4800E+02
     22.028  0.0000E+00  0.4800E+02
     22.150  0.0000E+00  0.4800E+02
     22.272  0.0000E+00  0.4800E+02
     22.394  0.0000E+00  0.4800E+02
     22.515  0.0000E+00  0.4800E+02
     22.637  0.0000E+00  0.4800E+02
     22.759  0.0000E+00  0.4800E+02
     22.881  0.0000E+00  0.4800E+02
     23.003  0.0000E+00  0.4800E+02
     23.124  0.0000E+00  0.4800E+02
