       N       E                     dE             d eps       ncg     rms          rms(c)
DAV:   1     0.569637562933E+02    0.56964E+02   -0.14397E+04  9080   0.105E+03
DAV:   2    -0.708013457922E+02   -0.12777E+03   -0.12164E+03 12392   0.221E+02
DAV:   3    -0.749228337573E+02   -0.41215E+01   -0.41022E+01 11880   0.373E+01
DAV:   4    -0.749646939719E+02   -0.41860E-01   -0.41828E-01 11296   0.412E+00
DAV:   5    -0.749655384381E+02   -0.84447E-03   -0.84407E-03 11824   0.528E-01    0.934E+00
DAV:   6    -0.731439802981E+02    0.18216E+01   -0.12167E+00 10352   0.628E+00    0.513E+00
DAV:   7    -0.725300454638E+02    0.61393E+00   -0.13883E+00 10864   0.690E+00    0.698E-01
DAV:   8    -0.725375536652E+02   -0.75082E-02   -0.30975E-02 11408   0.103E+00    0.770E-02
DAV:   9    -0.725377821785E+02   -0.22851E-03   -0.44397E-04 11104   0.143E-01    0.303E-02
DAV:  10    -0.725378408206E+02   -0.58642E-04   -0.46254E-05 11280   0.510E-02    0.289E-03
DAV:  11    -0.725378419890E+02   -0.11684E-05   -0.11802E-06  8616   0.799E-03    0.798E-04
DAV:  12    -0.725378419413E+02    0.47737E-07   -0.10993E-07  8128   0.235E-03
   1 F= -.72537842E+02 E0= -.72537842E+02  d E =0.000000E+00
