 vasp.5.4.4.18Apr17-6-g9f103f2a35 (build Mar 12 2022 03:36:41) complex          
  
 executed on IFC19.0.3.199_CrayMP date 2022.12.01  11:09:32
 running on   16 total cores
 distrk:  each k-point on   16 cores,    1 groups
 distr:  one band on NCORES_PER_BAND=   4 cores,    4 groups


--------------------------------------------------------------------------------------------------------


 INCAR:
 POTCAR:   PAW_PBE C 08Apr2002                    
 POTCAR:   PAW_PBE C 08Apr2002                    
   VRHFIN =C: s2p2                                                              
   LEXCH  = PE                                                                  
   EATOM  =   147.1560 eV,   10.8157 Ry                                         
                                                                                
   TITEL  = PAW_PBE C 08Apr2002                                                 
   LULTRA =        F    use ultrasoft PP ?                                      
   IUNSCR =        0    unscreen: 0-lin 1-nonlin 2-no                           
   RPACOR =     .000    partial core radius                                     
   POMASS =   12.011; ZVAL   =    4.000    mass and valenz                      
   RCORE  =    1.500    outmost cutoff radius                                   
   RWIGS  =    1.630; RWIGS  =     .863    wigner-seitz radius (au A)           
   ENMAX  =  400.000; ENMIN  =  300.000 eV                                      
   ICORE  =        2    local potential                                         
   LCOR   =        T    correct aug charges                                     
   LPAW   =        T    paw PP                                                  
   EAUG   =  644.873                                                            
   DEXC   =     .000                                                            
   RMAX   =    2.266    core radius for proj-oper                               
   RAUG   =    1.300    factor for augmentation sphere                          
   RDEP   =    1.501    radius for radial grids                                 
   RDEPT  =    1.300    core radius for aug-charge                              
   QCUT   =   -5.516; QGAM   =   11.032    optimization parameters              
                                                                                
   Description                                                                  
     l     E      TYP  RCUT    TYP  RCUT                                        
     0   .000     23  1.200                                                     
     0   .000     23  1.200                                                     
     1   .000     23  1.500                                                     
     1  2.500     23  1.500                                                     
     2   .000      7  1.500                                                     
  local pseudopotential read in
  atomic valenz-charges read in
  non local Contribution for L=           0  read in
    real space projection operators read in
  non local Contribution for L=           0  read in
    real space projection operators read in
  non local Contribution for L=           1  read in
    real space projection operators read in
  non local Contribution for L=           1  read in
    real space projection operators read in
    PAW grid and wavefunctions read in
 
   number of l-projection  operators is LMAX  =           4
   number of lm-projection operators is LMMAX =           8
 
 PAW_PBE C 08Apr2002                    :
 energy of atom  1       EATOM= -147.1560
 kinetic energy error for atom=    0.0288 (will be added to EATOM!!)
 
 
 POSCAR: C8                                      
  positions in direct lattice
  No initial velocities read in
 exchange correlation table for  LEXCH =        8
   RHO(1)=    0.500       N(1)  =     2000
   RHO(2)=  100.500       N(2)  =     4000
 


--------------------------------------------------------------------------------------------------------


 ion  position               nearest neighbor table
   1  0.250  0.750  0.250-   6 1.54   8 1.54   2 1.54   4 1.60
   2  0.000  0.000  0.500-   5 1.54   7 1.54   1 1.54   3 1.60
   3  0.250  0.250  0.750-   6 1.54   8 1.54   4 1.54   2 1.60
   4  0.000  0.500  0.000-   5 1.54   7 1.54   3 1.54   1 1.60
   5  0.750  0.750  0.750-   2 1.54   4 1.54   6 1.54   8 1.60
   6  0.500  0.000  0.000-   1 1.54   3 1.54   5 1.54   7 1.60
   7  0.750  0.250  0.250-   2 1.54   4 1.54   8 1.54   6 1.60
   8  0.500  0.500  0.500-   1 1.54   3 1.54   7 1.54   5 1.60
 
  LATTYP: Found a trigonal (rhomboedric) cell.
 ALAT       =     3.5899988795
 COS(alpha) =     0.0299999201
  
  Lattice vectors:
  
 A1 = (   3.5899993590,   0.0000000000,   0.0000000000)
 A2 = (   0.1076996794,   3.5883830250,   0.0000000000)
 A3 = (   0.1076996794,   0.1045162348,   3.5868611194)


Analysis of symmetry for initial positions (statically):
=====================================================================
 Subroutine PRICEL returns following result:
 
  LATTYP: Found a trigonal (rhomboedric) cell.
 ALAT       =     2.5763091098
 COS(alpha) =     0.5291261024
  
  Lattice vectors:
  
 A1 = (  -0.1076996794,  -1.8464496299,  -1.7934305597)
 A2 = (  -1.8488495192,  -1.7941915125,   0.0000000000)
 A3 = (  -1.8488495192,  -0.0522581174,  -1.7934305597)
 
   4 primitive cells build up your supercell.
 

 Routine SETGRP: Setting up the symmetry group for a 
 trigonal (rhombohedral) supercell.


 Subroutine GETGRP returns: Found 12 space group operations
 (whereof  6 operations were pure point group operations)
 out of a pool of 12 trial point group operations.


The static configuration has the point symmetry C_3v.
 The point group associated with its full space group is D_3d.


Analysis of symmetry for dynamics (positions and initial velocities):
=====================================================================
 Subroutine PRICEL returns following result:
 
  LATTYP: Found a trigonal (rhomboedric) cell.
 ALAT       =     2.5763091098
 COS(alpha) =     0.5291261024
  
  Lattice vectors:
  
 A1 = (  -0.1076996794,  -1.8464496299,  -1.7934305597)
 A2 = (  -1.8488495192,  -1.7941915125,   0.0000000000)
 A3 = (  -1.8488495192,  -0.0522581174,  -1.7934305597)
 
   4 primitive cells build up your supercell.
 

 Routine SETGRP: Setting up the symmetry group for a 
 trigonal (rhombohedral) supercell.


 Subroutine GETGRP returns: Found 12 space group operations
 (whereof  6 operations were pure point group operations)
 out of a pool of 12 trial point group operations.


The dynamic configuration has the point symmetry C_3v.
 The point group associated with its full space group is D_3d.


 Subroutine INISYM returns: Found 12 space group operations
 (whereof  6 operations are pure point group operations),
 and found     4 'primitive' translations

 
 
 KPOINTS: kpt_density=1000                        

Automatic generation of k-mesh.
Space group operators:
 irot       det(A)        alpha          n_x          n_y          n_z        tau_x        tau_y        tau_z
    1     1.000000     0.000000     1.000000     0.000000     0.000000     0.000000     0.000000     0.000000
    2    -1.000000   180.000000     0.000000    -0.696733     0.717331     0.000000     0.000000     0.000000
    3     1.000000   120.000000    -0.594419    -0.576846    -0.560282     0.000000     0.000000     0.000000
    4    -1.000000   180.000000    -0.696419     0.717635    -0.000000     0.000000     0.000000     0.000000
    5     1.000000   120.000000     0.594418     0.576846     0.560282     0.000000     0.000000     0.000000
    6    -1.000000   180.000000    -0.696419     0.020902     0.717331     0.000000     0.000000     0.000000
    7    -1.000000     0.000000     1.000000     0.000000     0.000000    -0.750000    -0.750000    -0.750000
    8     1.000000   180.000000     0.000000    -0.696733     0.717331    -0.750000    -0.750000    -0.750000
    9    -1.000000   120.000000    -0.594419    -0.576846    -0.560282    -0.750000    -0.750000    -0.750000
   10     1.000000   180.000000    -0.696419     0.717635    -0.000000    -0.750000    -0.750000    -0.750000
   11    -1.000000   120.000000     0.594418     0.576846     0.560282    -0.750000    -0.750000    -0.750000
   12     1.000000   180.000000    -0.696419     0.020902     0.717331    -0.750000    -0.750000    -0.750000
 
 Subroutine IBZKPT returns following result:
 ===========================================
 
 Found    189 irreducible k-points:
 
 Following reciprocal coordinates:
            Coordinates               Weight
  0.000000  0.000000  0.000000      1.000000
  0.083333 -0.000000 -0.000000      6.000000
  0.166667 -0.000000  0.000000      6.000000
  0.250000 -0.000000 -0.000000      6.000000
  0.333333 -0.000000 -0.000000      6.000000
  0.416667  0.000000  0.000000      6.000000
  0.500000 -0.000000 -0.000000      3.000000
  0.083333  0.083333 -0.000000      6.000000
  0.166667  0.083333 -0.000000     12.000000
  0.250000  0.083333 -0.000000     12.000000
  0.333333  0.083333 -0.000000     12.000000
  0.416667  0.083333 -0.000000     12.000000
  0.500000  0.083333 -0.000000     12.000000
 -0.416667  0.083333 -0.000000     12.000000
 -0.333333  0.083333  0.000000     12.000000
 -0.250000  0.083333  0.000000     12.000000
 -0.166667  0.083333 -0.000000     12.000000
 -0.083333  0.083333 -0.000000      6.000000
  0.166667  0.166667 -0.000000      6.000000
  0.250000  0.166667 -0.000000     12.000000
  0.333333  0.166667  0.000000     12.000000
  0.416667  0.166667 -0.000000     12.000000
  0.500000  0.166667 -0.000000     12.000000
 -0.416667  0.166667 -0.000000     12.000000
 -0.333333  0.166667 -0.000000     12.000000
 -0.250000  0.166667 -0.000000     12.000000
 -0.166667  0.166667 -0.000000      6.000000
  0.250000  0.250000 -0.000000      6.000000
  0.333333  0.250000 -0.000000     12.000000
  0.416667  0.250000 -0.000000     12.000000
  0.500000  0.250000  0.000000     12.000000
 -0.416667  0.250000 -0.000000     12.000000
 -0.333333  0.250000 -0.000000     12.000000
 -0.250000  0.250000 -0.000000      6.000000
  0.333333  0.333333 -0.000000      6.000000
  0.416667  0.333333 -0.000000     12.000000
  0.500000  0.333333  0.000000     12.000000
 -0.416667  0.333333 -0.000000     12.000000
 -0.333333  0.333333 -0.000000      6.000000
  0.416667  0.416667 -0.000000      6.000000
  0.500000  0.416667 -0.000000     12.000000
 -0.416667  0.416667 -0.000000      6.000000
  0.500000  0.500000 -0.000000      3.000000
  0.083333  0.083333  0.083333      2.000000
  0.166667  0.083333  0.083333      6.000000
  0.250000  0.083333  0.083333      6.000000
  0.333333  0.083333  0.083333      6.000000
  0.416667  0.083333  0.083333      6.000000
  0.500000  0.083333  0.083333      6.000000
 -0.416667  0.083333  0.083333      6.000000
 -0.333333  0.083333  0.083333      6.000000
 -0.250000  0.083333  0.083333      6.000000
 -0.166667  0.083333  0.083333      6.000000
 -0.083333  0.083333  0.083333      6.000000
  0.166667  0.166667  0.083333      6.000000
  0.250000  0.166667  0.083333     12.000000
  0.333333  0.166667  0.083333     12.000000
  0.416667  0.166667  0.083333     12.000000
  0.500000  0.166667  0.083333     12.000000
 -0.416667  0.166667  0.083333     12.000000
 -0.333333  0.166667  0.083333     12.000000
 -0.250000  0.166667  0.083333     12.000000
 -0.166667  0.166667  0.083333     12.000000
 -0.083333  0.166667  0.083333     12.000000
  0.250000  0.250000  0.083333      6.000000
  0.333333  0.250000  0.083333     12.000000
  0.416667  0.250000  0.083333     12.000000
  0.500000  0.250000  0.083333     12.000000
 -0.416667  0.250000  0.083333     12.000000
 -0.333333  0.250000  0.083333     12.000000
 -0.250000  0.250000  0.083333     12.000000
 -0.166667  0.250000  0.083333     12.000000
 -0.083333  0.250000  0.083333     12.000000
  0.333333  0.333333  0.083333      6.000000
  0.416667  0.333333  0.083333     12.000000
  0.500000  0.333333  0.083333     12.000000
 -0.416667  0.333333  0.083333     12.000000
 -0.333333  0.333333  0.083333     12.000000
 -0.250000  0.333333  0.083333     12.000000
 -0.166667  0.333333  0.083333     12.000000
 -0.083333  0.333333  0.083333     12.000000
  0.416667  0.416667  0.083333      6.000000
  0.500000  0.416667  0.083333     12.000000
 -0.416667  0.416667  0.083333     12.000000
 -0.333333  0.416667  0.083333     12.000000
 -0.250000  0.416667  0.083333     12.000000
 -0.166667  0.416667  0.083333     12.000000
 -0.083333  0.416667  0.083333     12.000000
  0.500000  0.500000  0.083333      6.000000
 -0.416667  0.500000  0.083333     12.000000
 -0.333333  0.500000  0.083333     12.000000
 -0.250000  0.500000  0.083333     12.000000
 -0.166667  0.500000  0.083333     12.000000
 -0.083333  0.500000  0.083333      6.000000
 -0.416667 -0.416667  0.083333      6.000000
 -0.333333 -0.416667  0.083333     12.000000
 -0.250000 -0.416667  0.083333     12.000000
 -0.166667 -0.416667  0.083333     12.000000
 -0.333333 -0.333333  0.083333      6.000000
 -0.250000 -0.333333  0.083333     12.000000
 -0.166667 -0.333333  0.083333     12.000000
 -0.250000 -0.250000  0.083333      6.000000
 -0.166667 -0.250000  0.083333     12.000000
 -0.166667 -0.166667  0.083333      6.000000
  0.166667  0.166667  0.166667      2.000000
  0.250000  0.166667  0.166667      6.000000
  0.333333  0.166667  0.166667      6.000000
  0.416667  0.166667  0.166667      6.000000
  0.500000  0.166667  0.166667      6.000000
 -0.416667  0.166667  0.166667      6.000000
 -0.333333  0.166667  0.166667      6.000000
 -0.250000  0.166667  0.166667      6.000000
 -0.166667  0.166667  0.166667      6.000000
  0.250000  0.250000  0.166667      6.000000
  0.333333  0.250000  0.166667     12.000000
  0.416667  0.250000  0.166667     12.000000
  0.500000  0.250000  0.166667     12.000000
 -0.416667  0.250000  0.166667     12.000000
 -0.333333  0.250000  0.166667     12.000000
 -0.250000  0.250000  0.166667     12.000000
 -0.166667  0.250000  0.166667     12.000000
  0.333333  0.333333  0.166667      6.000000
  0.416667  0.333333  0.166667     12.000000
  0.500000  0.333333  0.166667     12.000000
 -0.416667  0.333333  0.166667     12.000000
 -0.333333  0.333333  0.166667     12.000000
 -0.250000  0.333333  0.166667     12.000000
 -0.166667  0.333333  0.166667     12.000000
  0.416667  0.416667  0.166667      6.000000
  0.500000  0.416667  0.166667     12.000000
 -0.416667  0.416667  0.166667     12.000000
 -0.333333  0.416667  0.166667     12.000000
 -0.250000  0.416667  0.166667     12.000000
 -0.166667  0.416667  0.166667     12.000000
  0.500000  0.500000  0.166667      6.000000
 -0.416667  0.500000  0.166667     12.000000
 -0.333333  0.500000  0.166667     12.000000
 -0.250000  0.500000  0.166667     12.000000
 -0.166667  0.500000  0.166667      6.000000
 -0.416667 -0.416667  0.166667      6.000000
 -0.333333 -0.416667  0.166667     12.000000
 -0.250000 -0.416667  0.166667     12.000000
 -0.333333 -0.333333  0.166667      6.000000
 -0.250000 -0.333333  0.166667     12.000000
 -0.250000 -0.250000  0.166667      6.000000
  0.250000  0.250000  0.250000      2.000000
  0.333333  0.250000  0.250000      6.000000
  0.416667  0.250000  0.250000      6.000000
  0.500000  0.250000  0.250000      6.000000
 -0.416667  0.250000  0.250000      6.000000
 -0.333333  0.250000  0.250000      6.000000
 -0.250000  0.250000  0.250000      6.000000
  0.333333  0.333333  0.250000      6.000000
  0.416667  0.333333  0.250000     12.000000
  0.500000  0.333333  0.250000     12.000000
 -0.416667  0.333333  0.250000     12.000000
 -0.333333  0.333333  0.250000     12.000000
 -0.250000  0.333333  0.250000     12.000000
  0.416667  0.416667  0.250000      6.000000
  0.500000  0.416667  0.250000     12.000000
 -0.416667  0.416667  0.250000     12.000000
 -0.333333  0.416667  0.250000     12.000000
 -0.250000  0.416667  0.250000     12.000000
  0.500000  0.500000  0.250000      6.000000
 -0.416667  0.500000  0.250000     12.000000
 -0.333333  0.500000  0.250000     12.000000
 -0.250000  0.500000  0.250000      6.000000
 -0.416667 -0.416667  0.250000      6.000000
 -0.333333 -0.416667  0.250000     12.000000
 -0.333333 -0.333333  0.250000      6.000000
  0.333333  0.333333  0.333333      2.000000
  0.416667  0.333333  0.333333      6.000000
  0.500000  0.333333  0.333333      6.000000
 -0.416667  0.333333  0.333333      6.000000
 -0.333333  0.333333  0.333333      6.000000
  0.416667  0.416667  0.333333      6.000000
  0.500000  0.416667  0.333333     12.000000
 -0.416667  0.416667  0.333333     12.000000
 -0.333333  0.416667  0.333333     12.000000
  0.500000  0.500000  0.333333      6.000000
 -0.416667  0.500000  0.333333     12.000000
 -0.333333  0.500000  0.333333      6.000000
 -0.416667 -0.416667  0.333333      6.000000
  0.416667  0.416667  0.416667      2.000000
  0.500000  0.416667  0.416667      6.000000
 -0.416667  0.416667  0.416667      6.000000
  0.500000  0.500000  0.416667      6.000000
 -0.416667  0.500000  0.416667      6.000000
  0.500000  0.500000  0.500000      1.000000
 
 Following cartesian coordinates:
            Coordinates               Weight
  0.000000  0.000000  0.000000      1.000000
  0.023318 -0.000700 -0.000680      6.000000
  0.046637 -0.001400 -0.001360      6.000000
  0.069955 -0.002100 -0.002039      6.000000
  0.093274 -0.002799 -0.002719      6.000000
  0.116592 -0.003499 -0.003399      6.000000
  0.139911 -0.004199 -0.004079      3.000000
  0.023318  0.022629 -0.001360      6.000000
  0.046637  0.021929 -0.002039     12.000000
  0.069955  0.021229 -0.002719     12.000000
  0.093274  0.020529 -0.003399     12.000000
  0.116592  0.019830 -0.004079     12.000000
  0.139911  0.019130 -0.004758     12.000000
 -0.116592  0.026828  0.002719     12.000000
 -0.093274  0.026128  0.002039     12.000000
 -0.069955  0.025429  0.001360     12.000000
 -0.046637  0.024729  0.000680     12.000000
 -0.023318  0.024029 -0.000000      6.000000
  0.046637  0.045258 -0.002719      6.000000
  0.069955  0.044558 -0.003399     12.000000
  0.093274  0.043858 -0.004079     12.000000
  0.116592  0.043159 -0.004758     12.000000
  0.139911  0.042459 -0.005438     12.000000
 -0.116592  0.050157  0.002039     12.000000
 -0.093274  0.049457  0.001360     12.000000
 -0.069955  0.048757  0.000680     12.000000
 -0.046637  0.048058 -0.000000      6.000000
  0.069955  0.067887 -0.004079      6.000000
  0.093274  0.067187 -0.004758     12.000000
  0.116592  0.066487 -0.005438     12.000000
  0.139911  0.065788 -0.006118     12.000000
 -0.116592  0.073486  0.001360     12.000000
 -0.093274  0.072786  0.000680     12.000000
 -0.069955  0.072086 -0.000000      6.000000
  0.093274  0.090516 -0.005438      6.000000
  0.116592  0.089816 -0.006118     12.000000
  0.139911  0.089117 -0.006798     12.000000
 -0.116592  0.096815  0.000680     12.000000
 -0.093274  0.096115 -0.000000      6.000000
  0.116592  0.113145 -0.006798      6.000000
  0.139911  0.112446 -0.007477     12.000000
 -0.116592  0.120144 -0.000000      6.000000
  0.139911  0.135774 -0.008157      3.000000
  0.023318  0.022629  0.021979      2.000000
  0.046637  0.021929  0.021300      6.000000
  0.069955  0.021229  0.020620      6.000000
  0.093274  0.020529  0.019940      6.000000
  0.116592  0.019830  0.019260      6.000000
  0.139911  0.019130  0.018580      6.000000
 -0.116592  0.026828  0.026058      6.000000
 -0.093274  0.026128  0.025378      6.000000
 -0.069955  0.025429  0.024698      6.000000
 -0.046637  0.024729  0.024019      6.000000
 -0.023318  0.024029  0.023339      6.000000
  0.046637  0.045258  0.020620      6.000000
  0.069955  0.044558  0.019940     12.000000
  0.093274  0.043858  0.019260     12.000000
  0.116592  0.043159  0.018580     12.000000
  0.139911  0.042459  0.017901     12.000000
 -0.116592  0.050157  0.025378     12.000000
 -0.093274  0.049457  0.024698     12.000000
 -0.069955  0.048757  0.024019     12.000000
 -0.046637  0.048058  0.023339     12.000000
 -0.023318  0.047358  0.022659     12.000000
  0.069955  0.067887  0.019260      6.000000
  0.093274  0.067187  0.018580     12.000000
  0.116592  0.066487  0.017901     12.000000
  0.139911  0.065788  0.017221     12.000000
 -0.116592  0.073486  0.024698     12.000000
 -0.093274  0.072786  0.024019     12.000000
 -0.069955  0.072086  0.023339     12.000000
 -0.046637  0.071387  0.022659     12.000000
 -0.023318  0.070687  0.021979     12.000000
  0.093274  0.090516  0.017901      6.000000
  0.116592  0.089816  0.017221     12.000000
  0.139911  0.089117  0.016541     12.000000
 -0.116592  0.096815  0.024019     12.000000
 -0.093274  0.096115  0.023339     12.000000
 -0.069955  0.095415  0.022659     12.000000
 -0.046637  0.094715  0.021979     12.000000
 -0.023318  0.094016  0.021300     12.000000
  0.116592  0.113145  0.016541      6.000000
  0.139911  0.112446  0.015861     12.000000
 -0.116592  0.120144  0.023339     12.000000
 -0.093274  0.119444  0.022659     12.000000
 -0.069955  0.118744  0.021979     12.000000
 -0.046637  0.118044  0.021300     12.000000
 -0.023318  0.117345  0.020620     12.000000
  0.139911  0.135774  0.015182      6.000000
 -0.116592  0.143473  0.022659     12.000000
 -0.093274  0.142773  0.021979     12.000000
 -0.069955  0.142073  0.021300     12.000000
 -0.046637  0.141373  0.020620     12.000000
 -0.023318  0.140674  0.019940      6.000000
 -0.116592 -0.113145  0.030137      6.000000
 -0.093274 -0.113845  0.029457     12.000000
 -0.069955 -0.114545  0.028777     12.000000
 -0.046637 -0.115245  0.028097     12.000000
 -0.093274 -0.090516  0.028777      6.000000
 -0.069955 -0.091216  0.028097     12.000000
 -0.046637 -0.091916  0.027417     12.000000
 -0.069955 -0.067887  0.027417      6.000000
 -0.046637 -0.068587  0.026738     12.000000
 -0.046637 -0.045258  0.026058      6.000000
  0.046637  0.045258  0.043959      2.000000
  0.069955  0.044558  0.043279      6.000000
  0.093274  0.043858  0.042599      6.000000
  0.116592  0.043159  0.041919      6.000000
  0.139911  0.042459  0.041240      6.000000
 -0.116592  0.050157  0.048717      6.000000
 -0.093274  0.049457  0.048037      6.000000
 -0.069955  0.048757  0.047357      6.000000
 -0.046637  0.048058  0.046678      6.000000
  0.069955  0.067887  0.042599      6.000000
  0.093274  0.067187  0.041919     12.000000
  0.116592  0.066487  0.041240     12.000000
  0.139911  0.065788  0.040560     12.000000
 -0.116592  0.073486  0.048037     12.000000
 -0.093274  0.072786  0.047357     12.000000
 -0.069955  0.072086  0.046678     12.000000
 -0.046637  0.071387  0.045998     12.000000
  0.093274  0.090516  0.041240      6.000000
  0.116592  0.089816  0.040560     12.000000
  0.139911  0.089117  0.039880     12.000000
 -0.116592  0.096815  0.047357     12.000000
 -0.093274  0.096115  0.046678     12.000000
 -0.069955  0.095415  0.045998     12.000000
 -0.046637  0.094715  0.045318     12.000000
  0.116592  0.113145  0.039880      6.000000
  0.139911  0.112446  0.039200     12.000000
 -0.116592  0.120144  0.046678     12.000000
 -0.093274  0.119444  0.045998     12.000000
 -0.069955  0.118744  0.045318     12.000000
 -0.046637  0.118044  0.044638     12.000000
  0.139911  0.135774  0.038520      6.000000
 -0.116592  0.143473  0.045998     12.000000
 -0.093274  0.142773  0.045318     12.000000
 -0.069955  0.142073  0.044638     12.000000
 -0.046637  0.141373  0.043959      6.000000
 -0.116592 -0.113145  0.053475      6.000000
 -0.093274 -0.113845  0.052796     12.000000
 -0.069955 -0.114545  0.052116     12.000000
 -0.093274 -0.090516  0.052116      6.000000
 -0.069955 -0.091216  0.051436     12.000000
 -0.069955 -0.067887  0.050756      6.000000
  0.069955  0.067887  0.065938      2.000000
  0.093274  0.067187  0.065258      6.000000
  0.116592  0.066487  0.064578      6.000000
  0.139911  0.065788  0.063899      6.000000
 -0.116592  0.073486  0.071376      6.000000
 -0.093274  0.072786  0.070696      6.000000
 -0.069955  0.072086  0.070017      6.000000
  0.093274  0.090516  0.064578      6.000000
  0.116592  0.089816  0.063899     12.000000
  0.139911  0.089117  0.063219     12.000000
 -0.116592  0.096815  0.070696     12.000000
 -0.093274  0.096115  0.070017     12.000000
 -0.069955  0.095415  0.069337     12.000000
  0.116592  0.113145  0.063219      6.000000
  0.139911  0.112446  0.062539     12.000000
 -0.116592  0.120144  0.070017     12.000000
 -0.093274  0.119444  0.069337     12.000000
 -0.069955  0.118744  0.068657     12.000000
  0.139911  0.135774  0.061859      6.000000
 -0.116592  0.143473  0.069337     12.000000
 -0.093274  0.142773  0.068657     12.000000
 -0.069955  0.142073  0.067977      6.000000
 -0.116592 -0.113145  0.076814      6.000000
 -0.093274 -0.113845  0.076134     12.000000
 -0.093274 -0.090516  0.075455      6.000000
  0.093274  0.090516  0.087917      2.000000
  0.116592  0.089816  0.087237      6.000000
  0.139911  0.089117  0.086558      6.000000
 -0.116592  0.096815  0.094035      6.000000
 -0.093274  0.096115  0.093355      6.000000
  0.116592  0.113145  0.086558      6.000000
  0.139911  0.112446  0.085878     12.000000
 -0.116592  0.120144  0.093355     12.000000
 -0.093274  0.119444  0.092676     12.000000
  0.139911  0.135774  0.085198      6.000000
 -0.116592  0.143473  0.092676     12.000000
 -0.093274  0.142773  0.091996      6.000000
 -0.116592 -0.113145  0.100153      6.000000
  0.116592  0.113145  0.109896      2.000000
  0.139911  0.112446  0.109217      6.000000
 -0.116592  0.120144  0.116694      6.000000
  0.139911  0.135774  0.108537      6.000000
 -0.116592  0.143473  0.116014      6.000000
  0.139911  0.135774  0.131876      1.000000
 
 TETIRR: Found    864 inequivalent tetrahedra from    10368


--------------------------------------------------------------------------------------------------------




 Dimension of arrays:
   k-points           NKPTS =    189   k-points in BZ     NKDIM =    189   number of bands    NBANDS=     24
   number of dos      NEDOS =    301   number of ions     NIONS =      8
   non local maximal  LDIM  =      4   non local SUM 2l+1 LMDIM =      8
   total plane-waves  NPLWV =  13824
   max r-space proj   IRMAX =      1   max aug-charges    IRDMAX=   3730
   dimension x,y,z NGX =    24 NGY =   24 NGZ =   24
   dimension x,y,z NGXF=    48 NGYF=   48 NGZF=   48
   support grid    NGXF=    48 NGYF=   48 NGZF=   48
   ions per type =               8
   NGX,Y,Z   is equivalent  to a cutoff of  11.11, 11.11, 11.11 a.u.
   NGXF,Y,Z  is equivalent  to a cutoff of  22.23, 22.23, 22.23 a.u.

 SYSTEM =  unknown system                          
 POSCAR =  C8                                      

 Startparameter for this run:
   NWRITE =      2    write-flag & timer
   PREC   = accura    normal or accurate (medium, high low for compatibility)
   ISTART =      0    job   : 0-new  1-cont  2-samecut
   ICHARG =      2    charge: 1-file 2-atom 10-const
   ISPIN  =      1    spin polarized calculation?
   LNONCOLLINEAR =      F non collinear calculations
   LSORBIT =      F    spin-orbit coupling
   INIWAV =      1    electr: 0-lowe 1-rand  2-diag
   LASPH  =      F    aspherical Exc in radial PAW
   METAGGA=      F    non-selfconsistent MetaGGA calc.

 Electronic Relaxation 1
   ENCUT  =  400.0 eV  29.40 Ry    5.42 a.u.   5.85  5.85  5.85*2*pi/ulx,y,z
   ENINI  =  400.0     initial cutoff
   ENAUG  =  644.9 eV  augmentation charge cutoff
   NELM   =     60;   NELMIN=  2; NELMDL= -5     # of ELM steps 
   EDIFF  = 0.1E-05   stopping-criterion for ELM
   LREAL  =      F    real-space projection
   NLSPLINE    = F    spline interpolate recip. space projectors
   LCOMPAT=      F    compatible to vasp.4.4
   GGA_COMPAT  = T    GGA compatible to vasp.4.4-vasp.4.6
   LMAXPAW     = -100 max onsite density
   LMAXMIX     =    2 max onsite mixed and CHGCAR
   VOSKOWN=      0    Vosko Wilk Nusair interpolation
   ROPT   =    0.00000
 Ionic relaxation
   EDIFFG = 0.1E-04   stopping-criterion for IOM
   NSW    =      0    number of steps for IOM
   NBLOCK =      1;   KBLOCK =      1    inner block; outer block 
   IBRION =     -1    ionic relax: 0-MD 1-quasi-New 2-CG
   NFREE  =      0    steps in history (QN), initial steepest desc. (CG)
   ISIF   =      2    stress and relaxation
   IWAVPR =     10    prediction:  0-non 1-charg 2-wave 3-comb
   ISYM   =      2    0-nonsym 1-usesym 2-fastsym
   LCORR  =      T    Harris-Foulkes like correction to forces

   POTIM  = 0.0200    time-step for ionic-motion
   TEIN   =    0.0    initial temperature
   TEBEG  =    0.0;   TEEND  =   0.0 temperature during run
   SMASS  =  -3.00    Nose mass-parameter (am)
   estimated Nose-frequenzy (Omega)   =  0.10E-29 period in steps =****** mass=  -0.295E-27a.u.
   SCALEE = 1.0000    scale energy and forces
   NPACO  =    256;   APACO  = 16.0  distance and # of slots for P.C.
   PSTRESS=    0.0 pullay stress

  Mass of Ions in am
   POMASS =  12.01
  Ionic Valenz
   ZVAL   =   4.00
  Atomic Wigner-Seitz radii
   RWIGS  =  -1.00
  virtual crystal weights 
   VCA    =   1.00
   NELECT =      32.0000    total number of electrons
   NUPDOWN=      -1.0000    fix difference up-down

 DOS related values:
   EMIN   =  10.00;   EMAX   =-10.00  energy-range for DOS
   EFERMI =   0.00
   ISMEAR =    -5;   SIGMA  =   0.06  broadening in eV -4-tet -1-fermi 0-gaus

 Electronic relaxation 2 (details)
   IALGO  =     38    algorithm
   LDIAG  =      T    sub-space diagonalisation (order eigenvalues)
   LSUBROT=      F    optimize rotation matrix (better conditioning)
   TURBO    =      0    0=normal 1=particle mesh
   IRESTART =      0    0=no restart 2=restart with 2 vectors
   NREBOOT  =      0    no. of reboots
   NMIN     =      0    reboot dimension
   EREF     =   0.00    reference energy to select bands
   IMIX   =      4    mixing-type and parameters
     AMIX     =   0.40;   BMIX     =  1.00
     AMIX_MAG =   1.60;   BMIX_MAG =  1.00
     AMIN     =   0.10
     WC   =   100.;   INIMIX=   1;  MIXPRE=   1;  MAXMIX= -45

 Intra band minimization:
   WEIMIN = 0.0000     energy-eigenvalue tresh-hold
   EBREAK =  0.10E-07  absolut break condition
   DEPER  =   0.30     relativ break condition  

   TIME   =   0.40     timestep for ELM

  volume/ion in A,a.u.               =       5.78        38.98
  Fermi-wavevector in a.u.,A,eV,Ry     =   1.448401  2.737082 28.543205  2.097866
  Thomas-Fermi vector in A             =   2.566246
 
 Write flags
   LWAVE        =      F    write WAVECAR
   LDOWNSAMPLE  =      F    k-point downsampling of WAVECAR
   LCHARG       =      F    write CHGCAR
   LVTOT        =      F    write LOCPOT, total local potential
   LVHAR        =      F    write LOCPOT, Hartree potential only
   LELF         =      F    write electronic localiz. function (ELF)
   LORBIT       =      0    0 simple, 1 ext, 2 COOP (PROOUT), +10 PAW based schemes


 Dipole corrections
   LMONO  =      F    monopole corrections only (constant potential shift)
   LDIPOL =      F    correct potential (dipole corrections)
   IDIPOL =      0    1-x, 2-y, 3-z, 4-all directions 
   EPSILON=  1.0000000 bulk dielectric constant

 Exchange correlation treatment:
   GGA     =    --    GGA type
   LEXCH   =     8    internal setting for exchange type
   VOSKOWN=      0    Vosko Wilk Nusair interpolation
   LHFCALC =     F    Hartree Fock is set to
   LHFONE  =     F    Hartree Fock one center treatment
   AEXX    =    0.0000 exact exchange contribution

 Linear response parameters
   LEPSILON=     F    determine dielectric tensor
   LRPA    =     F    only Hartree local field effects (RPA)
   LNABLA  =     F    use nabla operator in PAW spheres
   LVEL    =     F    velocity operator in full k-point grid
   LINTERFAST=   F  fast interpolation
   KINTER  =     0    interpolate to denser k-point grid
   CSHIFT  =0.1000    complex shift for real part using Kramers Kronig
   OMEGAMAX=  -1.0    maximum frequency
   DEG_THRESHOLD= 0.2000000E-02 threshold for treating states as degnerate
   RTIME   =   -0.100 relaxation time in fs
  (WPLASMAI=    0.000 imaginary part of plasma frequency in eV, 0.658/RTIME)
   DFIELD  = 0.0000000 0.0000000 0.0000000 field for delta impulse in time
 
 Orbital magnetization related:
   ORBITALMAG=     F  switch on orbital magnetization
   LCHIMAG   =     F  perturbation theory with respect to B field
   DQ        =  0.001000  dq finite difference perturbation B field
   LLRAUG    =     F  two centre corrections for induced B field



--------------------------------------------------------------------------------------------------------


 Static calculation
 charge density and potential will be updated during run
 non-spin polarized calculation
 Variant of blocked Davidson
 Davidson routine will perform the subspace rotation
 perform sub-space diagonalisation
    after iterative eigenvector-optimisation
 modified Broyden-mixing scheme, WC =      100.0
 initial mixing is a Kerker type mixing with AMIX =  0.4000 and BMIX =      1.0000
 Hartree-type preconditioning will be used
 using additional bands            8
 reciprocal scheme for non local part
 calculate Harris-corrections to forces 
   (improved forces if not selfconsistent)
 use gradient corrections 
 use of overlap-Matrix (Vanderbilt PP)
 Fermi weights with tetrahedron method with Bloechl corrections


--------------------------------------------------------------------------------------------------------


  energy-cutoff  :      400.00
  volume of cell :       46.21
      direct lattice vectors                 reciprocal lattice vectors
     3.589999359  0.000000000  0.000000000     0.278551582 -0.008360288 -0.008120228
     0.107699679  3.588383025  0.000000000     0.000000000  0.278677051 -0.008120269
     0.107699679  0.104516235  3.586861119     0.000000000  0.000000000  0.278795294

  length of vectors
     3.589999359  3.589998880  3.589999381     0.278795294  0.278795333  0.278795294


 
 k-points in units of 2pi/SCALE and weight: kpt_density=1000                        
   0.00000000  0.00000000  0.00000000       0.001
   0.02331844 -0.00069987 -0.00067977       0.003
   0.04663688 -0.00139973 -0.00135954       0.003
   0.06995531 -0.00209960 -0.00203931       0.003
   0.09327375 -0.00279947 -0.00271908       0.003
   0.11659219 -0.00349933 -0.00339885       0.003
   0.13991063 -0.00419920 -0.00407862       0.002
   0.02331844  0.02262907 -0.00135954       0.003
   0.04663688  0.02192921 -0.00203931       0.007
   0.06995531  0.02122934 -0.00271908       0.007
   0.09327375  0.02052948 -0.00339885       0.007
   0.11659219  0.01982961 -0.00407862       0.007
   0.13991063  0.01912974 -0.00475839       0.007
  -0.11659219  0.02682827  0.00271908       0.007
  -0.09327375  0.02612841  0.00203931       0.007
  -0.06995531  0.02542854  0.00135954       0.007
  -0.04663688  0.02472867  0.00067977       0.007
  -0.02331844  0.02402881 -0.00000000       0.003
   0.04663688  0.04525815 -0.00271909       0.003
   0.06995531  0.04455828 -0.00339886       0.007
   0.09327375  0.04385842 -0.00407863       0.007
   0.11659219  0.04315855 -0.00475840       0.007
   0.13991063  0.04245868 -0.00543817       0.007
  -0.11659219  0.05015721  0.00203930       0.007
  -0.09327375  0.04945735  0.00135953       0.007
  -0.06995531  0.04875748  0.00067976       0.007
  -0.04663688  0.04805761 -0.00000001       0.003
   0.06995531  0.06788722 -0.00407863       0.003
   0.09327375  0.06718736 -0.00475840       0.007
   0.11659219  0.06648749 -0.00543817       0.007
   0.13991063  0.06578763 -0.00611794       0.007
  -0.11659219  0.07348615  0.00135953       0.007
  -0.09327375  0.07278629  0.00067976       0.007
  -0.06995531  0.07208642 -0.00000001       0.003
   0.09327375  0.09051630 -0.00543817       0.003
   0.11659219  0.08981643 -0.00611794       0.007
   0.13991063  0.08911657 -0.00679771       0.007
  -0.11659219  0.09681510  0.00067976       0.007
  -0.09327375  0.09611523 -0.00000001       0.003
   0.11659219  0.11314537 -0.00679772       0.003
   0.13991063  0.11244551 -0.00747749       0.007
  -0.11659219  0.12014404 -0.00000002       0.003
   0.13991063  0.13577445 -0.00815726       0.002
   0.02331844  0.02262907  0.02197930       0.001
   0.04663688  0.02192921  0.02129953       0.003
   0.06995531  0.02122934  0.02061976       0.003
   0.09327375  0.02052948  0.01993999       0.003
   0.11659219  0.01982961  0.01926022       0.003
   0.13991063  0.01912974  0.01858045       0.003
  -0.11659219  0.02682827  0.02605792       0.003
  -0.09327375  0.02612841  0.02537815       0.003
  -0.06995531  0.02542854  0.02469838       0.003
  -0.04663688  0.02472867  0.02401861       0.003
  -0.02331844  0.02402881  0.02333884       0.003
   0.04663688  0.04525815  0.02061975       0.003
   0.06995531  0.04455828  0.01993998       0.007
   0.09327375  0.04385842  0.01926021       0.007
   0.11659219  0.04315855  0.01858044       0.007
   0.13991063  0.04245868  0.01790067       0.007
  -0.11659219  0.05015721  0.02537814       0.007
  -0.09327375  0.04945735  0.02469837       0.007
  -0.06995531  0.04875748  0.02401860       0.007
  -0.04663688  0.04805761  0.02333883       0.007
  -0.02331844  0.04735775  0.02265906       0.007
   0.06995531  0.06788722  0.01926021       0.003
   0.09327375  0.06718736  0.01858044       0.007
   0.11659219  0.06648749  0.01790067       0.007
   0.13991063  0.06578763  0.01722090       0.007
  -0.11659219  0.07348615  0.02469837       0.007
  -0.09327375  0.07278629  0.02401860       0.007
  -0.06995531  0.07208642  0.02333883       0.007
  -0.04663688  0.07138656  0.02265906       0.007
  -0.02331844  0.07068669  0.02197929       0.007
   0.09327375  0.09051630  0.01790067       0.003
   0.11659219  0.08981643  0.01722090       0.007
   0.13991063  0.08911657  0.01654113       0.007
  -0.11659219  0.09681510  0.02401860       0.007
  -0.09327375  0.09611523  0.02333883       0.007
  -0.06995531  0.09541536  0.02265906       0.007
  -0.04663688  0.09471550  0.02197929       0.007
  -0.02331844  0.09401563  0.02129952       0.007
   0.11659219  0.11314537  0.01654112       0.003
   0.13991063  0.11244551  0.01586135       0.007
  -0.11659219  0.12014404  0.02333882       0.007
  -0.09327375  0.11944417  0.02265905       0.007
  -0.06995531  0.11874430  0.02197928       0.007
  -0.04663688  0.11804444  0.02129951       0.007
  -0.02331844  0.11734457  0.02061974       0.007
   0.13991063  0.13577445  0.01518158       0.003
  -0.11659219  0.14347298  0.02265905       0.007
  -0.09327375  0.14277311  0.02197928       0.007
  -0.06995531  0.14207324  0.02129951       0.007
  -0.04663688  0.14137338  0.02061974       0.007
  -0.02331844  0.14067351  0.01993997       0.003
  -0.11659219 -0.11314537  0.03013656       0.003
  -0.09327375 -0.11384524  0.02945679       0.007
  -0.06995531 -0.11454511  0.02877702       0.007
  -0.04663688 -0.11524497  0.02809725       0.007
  -0.09327375 -0.09051630  0.02877701       0.003
  -0.06995531 -0.09121617  0.02809724       0.007
  -0.04663688 -0.09191603  0.02741747       0.007
  -0.06995531 -0.06788722  0.02741747       0.003
  -0.04663688 -0.06858709  0.02673770       0.007
  -0.04663688 -0.04525815  0.02605793       0.003
   0.04663688  0.04525815  0.04395859       0.001
   0.06995531  0.04455828  0.04327882       0.003
   0.09327375  0.04385842  0.04259905       0.003
   0.11659219  0.04315855  0.04191928       0.003
   0.13991063  0.04245868  0.04123951       0.003
  -0.11659219  0.05015721  0.04871698       0.003
  -0.09327375  0.04945735  0.04803721       0.003
  -0.06995531  0.04875748  0.04735744       0.003
  -0.04663688  0.04805761  0.04667767       0.003
   0.06995531  0.06788722  0.04259905       0.003
   0.09327375  0.06718736  0.04191928       0.007
   0.11659219  0.06648749  0.04123951       0.007
   0.13991063  0.06578763  0.04055974       0.007
  -0.11659219  0.07348615  0.04803721       0.007
  -0.09327375  0.07278629  0.04735744       0.007
  -0.06995531  0.07208642  0.04667767       0.007
  -0.04663688  0.07138656  0.04599790       0.007
   0.09327375  0.09051630  0.04123950       0.003
   0.11659219  0.08981643  0.04055973       0.007
   0.13991063  0.08911657  0.03987996       0.007
  -0.11659219  0.09681510  0.04735744       0.007
  -0.09327375  0.09611523  0.04667767       0.007
  -0.06995531  0.09541536  0.04599790       0.007
  -0.04663688  0.09471550  0.04531813       0.007
   0.11659219  0.11314537  0.03987996       0.003
   0.13991063  0.11244551  0.03920019       0.007
  -0.11659219  0.12014404  0.04667766       0.007
  -0.09327375  0.11944417  0.04599789       0.007
  -0.06995531  0.11874430  0.04531812       0.007
  -0.04663688  0.11804444  0.04463835       0.007
   0.13991063  0.13577445  0.03852042       0.003
  -0.11659219  0.14347298  0.04599789       0.007
  -0.09327375  0.14277311  0.04531812       0.007
  -0.06995531  0.14207324  0.04463835       0.007
  -0.04663688  0.14137338  0.04395858       0.003
  -0.11659219 -0.11314537  0.05347540       0.003
  -0.09327375 -0.11384524  0.05279563       0.007
  -0.06995531 -0.11454511  0.05211586       0.007
  -0.09327375 -0.09051630  0.05211585       0.003
  -0.06995531 -0.09121617  0.05143608       0.007
  -0.06995531 -0.06788722  0.05075631       0.003
   0.06995531  0.06788722  0.06593789       0.001
   0.09327375  0.06718736  0.06525812       0.003
   0.11659219  0.06648749  0.06457835       0.003
   0.13991063  0.06578763  0.06389858       0.003
  -0.11659219  0.07348615  0.07137605       0.003
  -0.09327375  0.07278629  0.07069628       0.003
  -0.06995531  0.07208642  0.07001651       0.003
   0.09327375  0.09051630  0.06457834       0.003
   0.11659219  0.08981643  0.06389857       0.007
   0.13991063  0.08911657  0.06321880       0.007
  -0.11659219  0.09681510  0.07069627       0.007
  -0.09327375  0.09611523  0.07001650       0.007
  -0.06995531  0.09541536  0.06933673       0.007
   0.11659219  0.11314537  0.06321880       0.003
   0.13991063  0.11244551  0.06253903       0.007
  -0.11659219  0.12014404  0.07001650       0.007
  -0.09327375  0.11944417  0.06933673       0.007
  -0.06995531  0.11874430  0.06865696       0.007
   0.13991063  0.13577445  0.06185926       0.003
  -0.11659219  0.14347298  0.06933673       0.007
  -0.09327375  0.14277311  0.06865696       0.007
  -0.06995531  0.14207324  0.06797719       0.003
  -0.11659219 -0.11314537  0.07681424       0.003
  -0.09327375 -0.11384524  0.07613447       0.007
  -0.09327375 -0.09051630  0.07545469       0.003
   0.09327375  0.09051630  0.08791718       0.001
   0.11659219  0.08981643  0.08723741       0.003
   0.13991063  0.08911657  0.08655764       0.003
  -0.11659219  0.09681510  0.09403511       0.003
  -0.09327375  0.09611523  0.09335534       0.003
   0.11659219  0.11314537  0.08655764       0.003
   0.13991063  0.11244551  0.08587787       0.007
  -0.11659219  0.12014404  0.09335534       0.007
  -0.09327375  0.11944417  0.09267557       0.007
   0.13991063  0.13577445  0.08519810       0.003
  -0.11659219  0.14347298  0.09267557       0.007
  -0.09327375  0.14277311  0.09199580       0.003
  -0.11659219 -0.11314537  0.10015308       0.003
   0.11659219  0.11314537  0.10989648       0.001
   0.13991063  0.11244551  0.10921671       0.003
  -0.11659219  0.12014404  0.11669418       0.003
   0.13991063  0.13577445  0.10853694       0.003
  -0.11659219  0.14347298  0.11601441       0.003
   0.13991063  0.13577445  0.13187578       0.001
 
 k-points in reciprocal lattice and weights: kpt_density=1000                        
   0.00000000  0.00000000  0.00000000       0.001
   0.08333333 -0.00000000 -0.00000000       0.003
   0.16666667 -0.00000000  0.00000000       0.003
   0.25000000 -0.00000000 -0.00000000       0.003
   0.33333333 -0.00000000 -0.00000000       0.003
   0.41666667  0.00000000  0.00000000       0.003
   0.50000000 -0.00000000 -0.00000000       0.002
   0.08333333  0.08333333 -0.00000000       0.003
   0.16666667  0.08333333 -0.00000000       0.007
   0.25000000  0.08333333 -0.00000000       0.007
   0.33333333  0.08333333 -0.00000000       0.007
   0.41666667  0.08333333 -0.00000000       0.007
   0.50000000  0.08333333 -0.00000000       0.007
  -0.41666667  0.08333333 -0.00000000       0.007
  -0.33333333  0.08333333  0.00000000       0.007
  -0.25000000  0.08333333  0.00000000       0.007
  -0.16666667  0.08333333 -0.00000000       0.007
  -0.08333333  0.08333333 -0.00000000       0.003
   0.16666667  0.16666667 -0.00000000       0.003
   0.25000000  0.16666667 -0.00000000       0.007
   0.33333333  0.16666667  0.00000000       0.007
   0.41666667  0.16666667 -0.00000000       0.007
   0.50000000  0.16666667 -0.00000000       0.007
  -0.41666667  0.16666667 -0.00000000       0.007
  -0.33333333  0.16666667 -0.00000000       0.007
  -0.25000000  0.16666667 -0.00000000       0.007
  -0.16666667  0.16666667 -0.00000000       0.003
   0.25000000  0.25000000 -0.00000000       0.003
   0.33333333  0.25000000 -0.00000000       0.007
   0.41666667  0.25000000 -0.00000000       0.007
   0.50000000  0.25000000  0.00000000       0.007
  -0.41666667  0.25000000 -0.00000000       0.007
  -0.33333333  0.25000000 -0.00000000       0.007
  -0.25000000  0.25000000 -0.00000000       0.003
   0.33333333  0.33333333 -0.00000000       0.003
   0.41666667  0.33333333 -0.00000000       0.007
   0.50000000  0.33333333  0.00000000       0.007
  -0.41666667  0.33333333 -0.00000000       0.007
  -0.33333333  0.33333333 -0.00000000       0.003
   0.41666667  0.41666667 -0.00000000       0.003
   0.50000000  0.41666667 -0.00000000       0.007
  -0.41666667  0.41666667 -0.00000000       0.003
   0.50000000  0.50000000 -0.00000000       0.002
   0.08333333  0.08333333  0.08333333       0.001
   0.16666667  0.08333333  0.08333333       0.003
   0.25000000  0.08333333  0.08333333       0.003
   0.33333333  0.08333333  0.08333333       0.003
   0.41666667  0.08333333  0.08333333       0.003
   0.50000000  0.08333333  0.08333333       0.003
  -0.41666667  0.08333333  0.08333333       0.003
  -0.33333333  0.08333333  0.08333333       0.003
  -0.25000000  0.08333333  0.08333333       0.003
  -0.16666667  0.08333333  0.08333333       0.003
  -0.08333333  0.08333333  0.08333333       0.003
   0.16666667  0.16666667  0.08333333       0.003
   0.25000000  0.16666667  0.08333333       0.007
   0.33333333  0.16666667  0.08333333       0.007
   0.41666667  0.16666667  0.08333333       0.007
   0.50000000  0.16666667  0.08333333       0.007
  -0.41666667  0.16666667  0.08333333       0.007
  -0.33333333  0.16666667  0.08333333       0.007
  -0.25000000  0.16666667  0.08333333       0.007
  -0.16666667  0.16666667  0.08333333       0.007
  -0.08333333  0.16666667  0.08333333       0.007
   0.25000000  0.25000000  0.08333333       0.003
   0.33333333  0.25000000  0.08333333       0.007
   0.41666667  0.25000000  0.08333333       0.007
   0.50000000  0.25000000  0.08333333       0.007
  -0.41666667  0.25000000  0.08333333       0.007
  -0.33333333  0.25000000  0.08333333       0.007
  -0.25000000  0.25000000  0.08333333       0.007
  -0.16666667  0.25000000  0.08333333       0.007
  -0.08333333  0.25000000  0.08333333       0.007
   0.33333333  0.33333333  0.08333333       0.003
   0.41666667  0.33333333  0.08333333       0.007
   0.50000000  0.33333333  0.08333333       0.007
  -0.41666667  0.33333333  0.08333333       0.007
  -0.33333333  0.33333333  0.08333333       0.007
  -0.25000000  0.33333333  0.08333333       0.007
  -0.16666667  0.33333333  0.08333333       0.007
  -0.08333333  0.33333333  0.08333333       0.007
   0.41666667  0.41666667  0.08333333       0.003
   0.50000000  0.41666667  0.08333333       0.007
  -0.41666667  0.41666667  0.08333333       0.007
  -0.33333333  0.41666667  0.08333333       0.007
  -0.25000000  0.41666667  0.08333333       0.007
  -0.16666667  0.41666667  0.08333333       0.007
  -0.08333333  0.41666667  0.08333333       0.007
   0.50000000  0.50000000  0.08333333       0.003
  -0.41666667  0.50000000  0.08333333       0.007
  -0.33333333  0.50000000  0.08333333       0.007
  -0.25000000  0.50000000  0.08333333       0.007
  -0.16666667  0.50000000  0.08333333       0.007
  -0.08333333  0.50000000  0.08333333       0.003
  -0.41666667 -0.41666667  0.08333333       0.003
  -0.33333333 -0.41666667  0.08333333       0.007
  -0.25000000 -0.41666667  0.08333333       0.007
  -0.16666667 -0.41666667  0.08333333       0.007
  -0.33333333 -0.33333333  0.08333333       0.003
  -0.25000000 -0.33333333  0.08333333       0.007
  -0.16666667 -0.33333333  0.08333333       0.007
  -0.25000000 -0.25000000  0.08333333       0.003
  -0.16666667 -0.25000000  0.08333333       0.007
  -0.16666667 -0.16666667  0.08333333       0.003
   0.16666667  0.16666667  0.16666667       0.001
   0.25000000  0.16666667  0.16666667       0.003
   0.33333333  0.16666667  0.16666667       0.003
   0.41666667  0.16666667  0.16666667       0.003
   0.50000000  0.16666667  0.16666667       0.003
  -0.41666667  0.16666667  0.16666667       0.003
  -0.33333333  0.16666667  0.16666667       0.003
  -0.25000000  0.16666667  0.16666667       0.003
  -0.16666667  0.16666667  0.16666667       0.003
   0.25000000  0.25000000  0.16666667       0.003
   0.33333333  0.25000000  0.16666667       0.007
   0.41666667  0.25000000  0.16666667       0.007
   0.50000000  0.25000000  0.16666667       0.007
  -0.41666667  0.25000000  0.16666667       0.007
  -0.33333333  0.25000000  0.16666667       0.007
  -0.25000000  0.25000000  0.16666667       0.007
  -0.16666667  0.25000000  0.16666667       0.007
   0.33333333  0.33333333  0.16666667       0.003
   0.41666667  0.33333333  0.16666667       0.007
   0.50000000  0.33333333  0.16666667       0.007
  -0.41666667  0.33333333  0.16666667       0.007
  -0.33333333  0.33333333  0.16666667       0.007
  -0.25000000  0.33333333  0.16666667       0.007
  -0.16666667  0.33333333  0.16666667       0.007
   0.41666667  0.41666667  0.16666667       0.003
   0.50000000  0.41666667  0.16666667       0.007
  -0.41666667  0.41666667  0.16666667       0.007
  -0.33333333  0.41666667  0.16666667       0.007
  -0.25000000  0.41666667  0.16666667       0.007
  -0.16666667  0.41666667  0.16666667       0.007
   0.50000000  0.50000000  0.16666667       0.003
  -0.41666667  0.50000000  0.16666667       0.007
  -0.33333333  0.50000000  0.16666667       0.007
  -0.25000000  0.50000000  0.16666667       0.007
  -0.16666667  0.50000000  0.16666667       0.003
  -0.41666667 -0.41666667  0.16666667       0.003
  -0.33333333 -0.41666667  0.16666667       0.007
  -0.25000000 -0.41666667  0.16666667       0.007
  -0.33333333 -0.33333333  0.16666667       0.003
  -0.25000000 -0.33333333  0.16666667       0.007
  -0.25000000 -0.25000000  0.16666667       0.003
   0.25000000  0.25000000  0.25000000       0.001
   0.33333333  0.25000000  0.25000000       0.003
   0.41666667  0.25000000  0.25000000       0.003
   0.50000000  0.25000000  0.25000000       0.003
  -0.41666667  0.25000000  0.25000000       0.003
  -0.33333333  0.25000000  0.25000000       0.003
  -0.25000000  0.25000000  0.25000000       0.003
   0.33333333  0.33333333  0.25000000       0.003
   0.41666667  0.33333333  0.25000000       0.007
   0.50000000  0.33333333  0.25000000       0.007
  -0.41666667  0.33333333  0.25000000       0.007
  -0.33333333  0.33333333  0.25000000       0.007
  -0.25000000  0.33333333  0.25000000       0.007
   0.41666667  0.41666667  0.25000000       0.003
   0.50000000  0.41666667  0.25000000       0.007
  -0.41666667  0.41666667  0.25000000       0.007
  -0.33333333  0.41666667  0.25000000       0.007
  -0.25000000  0.41666667  0.25000000       0.007
   0.50000000  0.50000000  0.25000000       0.003
  -0.41666667  0.50000000  0.25000000       0.007
  -0.33333333  0.50000000  0.25000000       0.007
  -0.25000000  0.50000000  0.25000000       0.003
  -0.41666667 -0.41666667  0.25000000       0.003
  -0.33333333 -0.41666667  0.25000000       0.007
  -0.33333333 -0.33333333  0.25000000       0.003
   0.33333333  0.33333333  0.33333333       0.001
   0.41666667  0.33333333  0.33333333       0.003
   0.50000000  0.33333333  0.33333333       0.003
  -0.41666667  0.33333333  0.33333333       0.003
  -0.33333333  0.33333333  0.33333333       0.003
   0.41666667  0.41666667  0.33333333       0.003
   0.50000000  0.41666667  0.33333333       0.007
  -0.41666667  0.41666667  0.33333333       0.007
  -0.33333333  0.41666667  0.33333333       0.007
   0.50000000  0.50000000  0.33333333       0.003
  -0.41666667  0.50000000  0.33333333       0.007
  -0.33333333  0.50000000  0.33333333       0.003
  -0.41666667 -0.41666667  0.33333333       0.003
   0.41666667  0.41666667  0.41666667       0.001
   0.50000000  0.41666667  0.41666667       0.003
  -0.41666667  0.41666667  0.41666667       0.003
   0.50000000  0.50000000  0.41666667       0.003
  -0.41666667  0.50000000  0.41666667       0.003
   0.50000000  0.50000000  0.50000000       0.001
 
 position of ions in fractional coordinates (direct lattice) 
   0.25000000  0.75000000  0.25000000
   0.00000000  0.00000000  0.50000000
   0.25000000  0.25000000  0.75000000
   0.00000000  0.50000000  0.00000000
   0.75000000  0.75000000  0.75000000
   0.50000000  0.00000000  0.00000000
   0.75000000  0.25000000  0.25000000
   0.50000000  0.50000000  0.50000000
 
 position of ions in cartesian coordinates  (Angst):
   1.00519952  2.71741633  0.89671528
   0.05384984  0.05225812  1.79343056
   1.00519952  0.97548293  2.69014584
   0.05384984  1.79419151  0.00000000
   2.85404904  2.76967444  2.69014584
   1.79499968  0.00000000  0.00000000
   2.74634936  0.92322481  0.89671528
   1.90269936  1.84644963  1.79343056
 


--------------------------------------------------------------------------------------------------------


 k-point  1 :   0.0000 0.0000 0.0000  plane waves:     835
 k-point  2 :   0.0833-0.0000-0.0000  plane waves:     836
 k-point  3 :   0.1667-0.0000 0.0000  plane waves:     835
 k-point  4 :   0.2500-0.0000-0.0000  plane waves:     835
 k-point  5 :   0.3333-0.0000-0.0000  plane waves:     836
 k-point  6 :   0.4167 0.0000 0.0000  plane waves:     839
 k-point  7 :   0.5000-0.0000-0.0000  plane waves:     844
 k-point  8 :   0.0833 0.0833-0.0000  plane waves:     824
 k-point  9 :   0.1667 0.0833-0.0000  plane waves:     831
 k-point 10 :   0.2500 0.0833-0.0000  plane waves:     834
 k-point 11 :   0.3333 0.0833-0.0000  plane waves:     836
 k-point 12 :   0.4167 0.0833-0.0000  plane waves:     833
 k-point 13 :   0.5000 0.0833-0.0000  plane waves:     837
 k-point 14 :  -0.4167 0.0833-0.0000  plane waves:     841
 k-point 15 :  -0.3333 0.0833 0.0000  plane waves:     844
 k-point 16 :  -0.2500 0.0833 0.0000  plane waves:     842
 k-point 17 :  -0.1667 0.0833-0.0000  plane waves:     833
 k-point 18 :  -0.0833 0.0833-0.0000  plane waves:     834
 k-point 19 :   0.1667 0.1667-0.0000  plane waves:     827
 k-point 20 :   0.2500 0.1667-0.0000  plane waves:     830
 k-point 21 :   0.3333 0.1667 0.0000  plane waves:     836
 k-point 22 :   0.4167 0.1667-0.0000  plane waves:     841
 k-point 23 :   0.5000 0.1667-0.0000  plane waves:     838
 k-point 24 :  -0.4167 0.1667-0.0000  plane waves:     842
 k-point 25 :  -0.3333 0.1667-0.0000  plane waves:     844
 k-point 26 :  -0.2500 0.1667-0.0000  plane waves:     838
 k-point 27 :  -0.1667 0.1667-0.0000  plane waves:     834
 k-point 28 :   0.2500 0.2500-0.0000  plane waves:     837
 k-point 29 :   0.3333 0.2500-0.0000  plane waves:     838
 k-point 30 :   0.4167 0.2500-0.0000  plane waves:     841
 k-point 31 :   0.5000 0.2500 0.0000  plane waves:     839
 k-point 32 :  -0.4167 0.2500-0.0000  plane waves:     841
 k-point 33 :  -0.3333 0.2500-0.0000  plane waves:     844
 k-point 34 :  -0.2500 0.2500-0.0000  plane waves:     842
 k-point 35 :   0.3333 0.3333-0.0000  plane waves:     840
 k-point 36 :   0.4167 0.3333-0.0000  plane waves:     845
 k-point 37 :   0.5000 0.3333 0.0000  plane waves:     839
 k-point 38 :  -0.4167 0.3333-0.0000  plane waves:     839
 k-point 39 :  -0.3333 0.3333-0.0000  plane waves:     846
 k-point 40 :   0.4167 0.4167-0.0000  plane waves:     833
 k-point 41 :   0.5000 0.4167-0.0000  plane waves:     842
 k-point 42 :  -0.4167 0.4167-0.0000  plane waves:     838
 k-point 43 :   0.5000 0.5000-0.0000  plane waves:     844
 k-point 44 :   0.0833 0.0833 0.0833  plane waves:     832
 k-point 45 :   0.1667 0.0833 0.0833  plane waves:     825
 k-point 46 :   0.2500 0.0833 0.0833  plane waves:     832
 k-point 47 :   0.3333 0.0833 0.0833  plane waves:     830
 k-point 48 :   0.4167 0.0833 0.0833  plane waves:     829
 k-point 49 :   0.5000 0.0833 0.0833  plane waves:     837
 k-point 50 :  -0.4167 0.0833 0.0833  plane waves:     835
 k-point 51 :  -0.3333 0.0833 0.0833  plane waves:     843
 k-point 52 :  -0.2500 0.0833 0.0833  plane waves:     843
 k-point 53 :  -0.1667 0.0833 0.0833  plane waves:     833
 k-point 54 :  -0.0833 0.0833 0.0833  plane waves:     834
 k-point 55 :   0.1667 0.1667 0.0833  plane waves:     828
 k-point 56 :   0.2500 0.1667 0.0833  plane waves:     824
 k-point 57 :   0.3333 0.1667 0.0833  plane waves:     833
 k-point 58 :   0.4167 0.1667 0.0833  plane waves:     835
 k-point 59 :   0.5000 0.1667 0.0833  plane waves:     838
 k-point 60 :  -0.4167 0.1667 0.0833  plane waves:     843
 k-point 61 :  -0.3333 0.1667 0.0833  plane waves:     844
 k-point 62 :  -0.2500 0.1667 0.0833  plane waves:     845
 k-point 63 :  -0.1667 0.1667 0.0833  plane waves:     837
 k-point 64 :  -0.0833 0.1667 0.0833  plane waves:     831
 k-point 65 :   0.2500 0.2500 0.0833  plane waves:     828
 k-point 66 :   0.3333 0.2500 0.0833  plane waves:     832
 k-point 67 :   0.4167 0.2500 0.0833  plane waves:     838
 k-point 68 :   0.5000 0.2500 0.0833  plane waves:     840
 k-point 69 :  -0.4167 0.2500 0.0833  plane waves:     844
 k-point 70 :  -0.3333 0.2500 0.0833  plane waves:     840
 k-point 71 :  -0.2500 0.2500 0.0833  plane waves:     838
 k-point 72 :  -0.1667 0.2500 0.0833  plane waves:     841
 k-point 73 :  -0.0833 0.2500 0.0833  plane waves:     839
 k-point 74 :   0.3333 0.3333 0.0833  plane waves:     833
 k-point 75 :   0.4167 0.3333 0.0833  plane waves:     841
 k-point 76 :   0.5000 0.3333 0.0833  plane waves:     838
 k-point 77 :  -0.4167 0.3333 0.0833  plane waves:     842
 k-point 78 :  -0.3333 0.3333 0.0833  plane waves:     844
 k-point 79 :  -0.2500 0.3333 0.0833  plane waves:     839
 k-point 80 :  -0.1667 0.3333 0.0833  plane waves:     842
 k-point 81 :  -0.0833 0.3333 0.0833  plane waves:     839
 k-point 82 :   0.4167 0.4167 0.0833  plane waves:     837
 k-point 83 :   0.5000 0.4167 0.0833  plane waves:     842
 k-point 84 :  -0.4167 0.4167 0.0833  plane waves:     839
 k-point 85 :  -0.3333 0.4167 0.0833  plane waves:     843
 k-point 86 :  -0.2500 0.4167 0.0833  plane waves:     843
 k-point 87 :  -0.1667 0.4167 0.0833  plane waves:     839
 k-point 88 :  -0.0833 0.4167 0.0833  plane waves:     842
 k-point 89 :   0.5000 0.5000 0.0833  plane waves:     839
 k-point 90 :  -0.4167 0.5000 0.0833  plane waves:     843
 k-point 91 :  -0.3333 0.5000 0.0833  plane waves:     842
 k-point 92 :  -0.2500 0.5000 0.0833  plane waves:     838
 k-point 93 :  -0.1667 0.5000 0.0833  plane waves:     835
 k-point 94 :  -0.0833 0.5000 0.0833  plane waves:     844
 k-point 95 :  -0.4167-0.4167 0.0833  plane waves:     836
 k-point 96 :  -0.3333-0.4167 0.0833  plane waves:     837
 k-point 97 :  -0.2500-0.4167 0.0833  plane waves:     837
 k-point 98 :  -0.1667-0.4167 0.0833  plane waves:     838
 k-point 99 :  -0.3333-0.3333 0.0833  plane waves:     837
 k-point ** :  -0.2500-0.3333 0.0833  plane waves:     842
 k-point ** :  -0.1667-0.3333 0.0833  plane waves:     834
 k-point ** :  -0.2500-0.2500 0.0833  plane waves:     839
 k-point ** :  -0.1667-0.2500 0.0833  plane waves:     834
 k-point ** :  -0.1667-0.1667 0.0833  plane waves:     836
 k-point ** :   0.1667 0.1667 0.1667  plane waves:     817
 k-point ** :   0.2500 0.1667 0.1667  plane waves:     823
 k-point ** :   0.3333 0.1667 0.1667  plane waves:     823
 k-point ** :   0.4167 0.1667 0.1667  plane waves:     831
 k-point ** :   0.5000 0.1667 0.1667  plane waves:     839
 k-point ** :  -0.4167 0.1667 0.1667  plane waves:     844
 k-point ** :  -0.3333 0.1667 0.1667  plane waves:     849
 k-point ** :  -0.2500 0.1667 0.1667  plane waves:     839
 k-point ** :  -0.1667 0.1667 0.1667  plane waves:     841
 k-point ** :   0.2500 0.2500 0.1667  plane waves:     827
 k-point ** :   0.3333 0.2500 0.1667  plane waves:     831
 k-point ** :   0.4167 0.2500 0.1667  plane waves:     836
 k-point ** :   0.5000 0.2500 0.1667  plane waves:     842
 k-point ** :  -0.4167 0.2500 0.1667  plane waves:     843
 k-point ** :  -0.3333 0.2500 0.1667  plane waves:     846
 k-point ** :  -0.2500 0.2500 0.1667  plane waves:     844
 k-point ** :  -0.1667 0.2500 0.1667  plane waves:     844
 k-point ** :   0.3333 0.3333 0.1667  plane waves:     831
 k-point ** :   0.4167 0.3333 0.1667  plane waves:     840
 k-point ** :   0.5000 0.3333 0.1667  plane waves:     838
 k-point ** :  -0.4167 0.3333 0.1667  plane waves:     837
 k-point ** :  -0.3333 0.3333 0.1667  plane waves:     839
 k-point ** :  -0.2500 0.3333 0.1667  plane waves:     845
 k-point ** :  -0.1667 0.3333 0.1667  plane waves:     842
 k-point ** :   0.4167 0.4167 0.1667  plane waves:     841
 k-point ** :   0.5000 0.4167 0.1667  plane waves:     837
 k-point ** :  -0.4167 0.4167 0.1667  plane waves:     841
 k-point ** :  -0.3333 0.4167 0.1667  plane waves:     841
 k-point ** :  -0.2500 0.4167 0.1667  plane waves:     841
 k-point ** :  -0.1667 0.4167 0.1667  plane waves:     834
 k-point ** :   0.5000 0.5000 0.1667  plane waves:     847
 k-point ** :  -0.4167 0.5000 0.1667  plane waves:     845
 k-point ** :  -0.3333 0.5000 0.1667  plane waves:     844
 k-point ** :  -0.2500 0.5000 0.1667  plane waves:     835
 k-point ** :  -0.1667 0.5000 0.1667  plane waves:     832
 k-point ** :  -0.4167-0.4167 0.1667  plane waves:     844
 k-point ** :  -0.3333-0.4167 0.1667  plane waves:     839
 k-point ** :  -0.2500-0.4167 0.1667  plane waves:     837
 k-point ** :  -0.3333-0.3333 0.1667  plane waves:     836
 k-point ** :  -0.2500-0.3333 0.1667  plane waves:     840
 k-point ** :  -0.2500-0.2500 0.1667  plane waves:     847
 k-point ** :   0.2500 0.2500 0.2500  plane waves:     835
 k-point ** :   0.3333 0.2500 0.2500  plane waves:     836
 k-point ** :   0.4167 0.2500 0.2500  plane waves:     836
 k-point ** :   0.5000 0.2500 0.2500  plane waves:     842
 k-point ** :  -0.4167 0.2500 0.2500  plane waves:     845
 k-point ** :  -0.3333 0.2500 0.2500  plane waves:     842
 k-point ** :  -0.2500 0.2500 0.2500  plane waves:     843
 k-point ** :   0.3333 0.3333 0.2500  plane waves:     835
 k-point ** :   0.4167 0.3333 0.2500  plane waves:     843
 k-point ** :   0.5000 0.3333 0.2500  plane waves:     843
 k-point ** :  -0.4167 0.3333 0.2500  plane waves:     839
 k-point ** :  -0.3333 0.3333 0.2500  plane waves:     838
 k-point ** :  -0.2500 0.3333 0.2500  plane waves:     840
 k-point ** :   0.4167 0.4167 0.2500  plane waves:     846
 k-point ** :   0.5000 0.4167 0.2500  plane waves:     842
 k-point ** :  -0.4167 0.4167 0.2500  plane waves:     842
 k-point ** :  -0.3333 0.4167 0.2500  plane waves:     841
 k-point ** :  -0.2500 0.4167 0.2500  plane waves:     840
 k-point ** :   0.5000 0.5000 0.2500  plane waves:     846
 k-point ** :  -0.4167 0.5000 0.2500  plane waves:     848
 k-point ** :  -0.3333 0.5000 0.2500  plane waves:     846
 k-point ** :  -0.2500 0.5000 0.2500  plane waves:     836
 k-point ** :  -0.4167-0.4167 0.2500  plane waves:     850
 k-point ** :  -0.3333-0.4167 0.2500  plane waves:     841
 k-point ** :  -0.3333-0.3333 0.2500  plane waves:     845
 k-point ** :   0.3333 0.3333 0.3333  plane waves:     838
 k-point ** :   0.4167 0.3333 0.3333  plane waves:     847
 k-point ** :   0.5000 0.3333 0.3333  plane waves:     843
 k-point ** :  -0.4167 0.3333 0.3333  plane waves:     845
 k-point ** :  -0.3333 0.3333 0.3333  plane waves:     842
 k-point ** :   0.4167 0.4167 0.3333  plane waves:     847
 k-point ** :   0.5000 0.4167 0.3333  plane waves:     846
 k-point ** :  -0.4167 0.4167 0.3333  plane waves:     848
 k-point ** :  -0.3333 0.4167 0.3333  plane waves:     843
 k-point ** :   0.5000 0.5000 0.3333  plane waves:     848
 k-point ** :  -0.4167 0.5000 0.3333  plane waves:     851
 k-point ** :  -0.3333 0.5000 0.3333  plane waves:     850
 k-point ** :  -0.4167-0.4167 0.3333  plane waves:     847
 k-point ** :   0.4167 0.4167 0.4167  plane waves:     862
 k-point ** :   0.5000 0.4167 0.4167  plane waves:     852
 k-point ** :  -0.4167 0.4167 0.4167  plane waves:     847
 k-point ** :   0.5000 0.5000 0.4167  plane waves:     853
 k-point ** :  -0.4167 0.5000 0.4167  plane waves:     842
 k-point ** :   0.5000 0.5000 0.5000  plane waves:     858

 maximum and minimum number of plane-waves per node :       223      197

 maximum number of plane-waves:       862
 maximum index in each direction: 
   IXMAX=    6   IYMAX=    6   IZMAX=    5
   IXMIN=   -6   IYMIN=   -6   IZMIN=   -6


 parallel 3D FFT for wavefunctions:
    minimum data exchange during FFTs selected (reduces bandwidth)
 parallel 3D FFT for charge:
    minimum data exchange during FFTs selected (reduces bandwidth)


 total amount of memory used by VASP MPI-rank0    37803. kBytes
=======================================================================

   base      :      30000. kBytes
   nonl-proj :       2689. kBytes
   fftplans  :        346. kBytes
   grid      :        481. kBytes
   one-center:          6. kBytes
   wavefun   :       4281. kBytes
 
     INWAV:  cpu time    0.0004: real time    0.0005
 Broyden mixing: mesh for mixing (old mesh)
   NGX = 11   NGY = 11   NGZ = 11
  (NGX  = 48   NGY  = 48   NGZ  = 48)
  gives a total of   1331 points

 initial charge density was supplied:
 charge density of overlapping atoms calculated
 number of electron      32.0000000 magnetization 
 keeping initial charge density in first step


--------------------------------------------------------------------------------------------------------


 Maximum index for augmentation-charges          277 (set IRDMAX)


--------------------------------------------------------------------------------------------------------


 First call to EWALD:  gamma=   0.494
 Maximum number of real-space cells 3x 3x 3
 Maximum number of reciprocal cells 3x 3x 3

    FEWALD:  cpu time    0.0053: real time    0.0053


--------------------------------------- Iteration      1(   1)  ---------------------------------------


    POTLOK:  cpu time    0.0262: real time    0.0309
    SETDIJ:  cpu time    0.0064: real time    0.0064
     EDDAV:  cpu time    8.7085: real time    8.7210
 BZINTS: Fermi energy: 18.065212; 32.000000 electrons
         Band energy: 117.507032;  BLOECHL correction: -0.137650
       DOS:  cpu time    0.1647: real time    0.1647
    --------------------------------------------
      LOOP:  cpu time    8.9058: real time    8.9230

 eigenvalue-minimisations  :  9080
 total energy-change (2. order) : 0.5696376E+02  (-0.1439655E+04)
 number of electron      32.0000000 magnetization 
 augmentation part       32.0000000 magnetization 

 Free energy of the ion-electron system (eV)
  ---------------------------------------------------
  alpha Z        PSCENC =       112.85586723
  Ewald energy   TEWEN  =     -1382.76696498
  -Hartree energ DENC   =       -72.38423696
  -exchange      EXHF   =         0.00000000
  -V(xc)+E(xc)   XCENC  =       113.93810588
  PAW double counting   =       302.65154477     -311.85538214
  entropy T*S    EENTRO =         0.00000000
  eigenvalues    EBANDS =       117.50703152
  atomic energy  EATOM  =      1177.01779097
  Solvation  Ediel_sol  =         0.00000000
  ---------------------------------------------------
  free energy    TOTEN  =        56.96375629 eV

  energy without entropy =       56.96375629  energy(sigma->0) =       56.96375629


--------------------------------------------------------------------------------------------------------




--------------------------------------- Iteration      1(   2)  ---------------------------------------


     EDDAV:  cpu time   10.8975: real time   10.8988
 BZINTS: Fermi energy:  8.653595; 32.000000 electrons
         Band energy: -10.258071;  BLOECHL correction:  0.000000
       DOS:  cpu time    0.0410: real time    0.0410
    --------------------------------------------
      LOOP:  cpu time   10.9385: real time   10.9398

 eigenvalue-minimisations  : 12392
 total energy-change (2. order) :-0.1277651E+03  (-0.1216358E+03)
 number of electron      32.0000000 magnetization 
 augmentation part       32.0000000 magnetization 

 Free energy of the ion-electron system (eV)
  ---------------------------------------------------
  alpha Z        PSCENC =       112.85586723
  Ewald energy   TEWEN  =     -1382.76696498
  -Hartree energ DENC   =       -72.38423696
  -exchange      EXHF   =         0.00000000
  -V(xc)+E(xc)   XCENC  =       113.93810588
  PAW double counting   =       302.65154477     -311.85538214
  entropy T*S    EENTRO =         0.00000000
  eigenvalues    EBANDS =       -10.25807057
  atomic energy  EATOM  =      1177.01779097
  Solvation  Ediel_sol  =         0.00000000
  ---------------------------------------------------
  free energy    TOTEN  =       -70.80134579 eV

  energy without entropy =      -70.80134579  energy(sigma->0) =      -70.80134579


--------------------------------------------------------------------------------------------------------




--------------------------------------- Iteration      1(   3)  ---------------------------------------


     EDDAV:  cpu time   10.7666: real time   11.2656
 BZINTS: Fermi energy:  8.193071; 32.000000 electrons
         Band energy: -14.379559;  BLOECHL correction:  0.000000
       DOS:  cpu time    0.0366: real time    0.0366
    --------------------------------------------
      LOOP:  cpu time   10.8032: real time   11.3022

 eigenvalue-minimisations  : 11880
 total energy-change (2. order) :-0.4121488E+01  (-0.4102218E+01)
 number of electron      32.0000000 magnetization 
 augmentation part       32.0000000 magnetization 

 Free energy of the ion-electron system (eV)
  ---------------------------------------------------
  alpha Z        PSCENC =       112.85586723
  Ewald energy   TEWEN  =     -1382.76696498
  -Hartree energ DENC   =       -72.38423696
  -exchange      EXHF   =         0.00000000
  -V(xc)+E(xc)   XCENC  =       113.93810588
  PAW double counting   =       302.65154477     -311.85538214
  entropy T*S    EENTRO =         0.00000000
  eigenvalues    EBANDS =       -14.37955853
  atomic energy  EATOM  =      1177.01779097
  Solvation  Ediel_sol  =         0.00000000
  ---------------------------------------------------
  free energy    TOTEN  =       -74.92283376 eV

  energy without entropy =      -74.92283376  energy(sigma->0) =      -74.92283376


--------------------------------------------------------------------------------------------------------




--------------------------------------- Iteration      1(   4)  ---------------------------------------


     EDDAV:  cpu time   10.0301: real time   10.0313
 BZINTS: Fermi energy:  8.252036; 32.000000 electrons
         Band energy: -14.421419;  BLOECHL correction:  0.000000
       DOS:  cpu time    0.0408: real time    0.0408
    --------------------------------------------
      LOOP:  cpu time   10.0709: real time   10.0721

 eigenvalue-minimisations  : 11296
 total energy-change (2. order) :-0.4186021E-01  (-0.4182773E-01)
 number of electron      32.0000000 magnetization 
 augmentation part       32.0000000 magnetization 

 Free energy of the ion-electron system (eV)
  ---------------------------------------------------
  alpha Z        PSCENC =       112.85586723
  Ewald energy   TEWEN  =     -1382.76696498
  -Hartree energ DENC   =       -72.38423696
  -exchange      EXHF   =         0.00000000
  -V(xc)+E(xc)   XCENC  =       113.93810588
  PAW double counting   =       302.65154477     -311.85538214
  entropy T*S    EENTRO =         0.00000000
  eigenvalues    EBANDS =       -14.42141875
  atomic energy  EATOM  =      1177.01779097
  Solvation  Ediel_sol  =         0.00000000
  ---------------------------------------------------
  free energy    TOTEN  =       -74.96469397 eV

  energy without entropy =      -74.96469397  energy(sigma->0) =      -74.96469397


--------------------------------------------------------------------------------------------------------




--------------------------------------- Iteration      1(   5)  ---------------------------------------


     EDDAV:  cpu time   10.4581: real time   10.4593
 BZINTS: Fermi energy:  8.242967; 32.000000 electrons
         Band energy: -14.422263;  BLOECHL correction:  0.000000
       DOS:  cpu time    0.0408: real time    0.0408
    CHARGE:  cpu time    0.2508: real time    0.2508
    MIXING:  cpu time    0.0016: real time    0.0016
    --------------------------------------------
      LOOP:  cpu time   10.7513: real time   10.7525

 eigenvalue-minimisations  : 11824
 total energy-change (2. order) :-0.8444662E-03  (-0.8440742E-03)
 number of electron      32.0000025 magnetization 
 augmentation part        0.7750381 magnetization 

 Broyden mixing:
  rms(total) = 0.93361E+00    rms(broyden)= 0.93342E+00
  rms(prec ) = 0.22008E+01
  weight for this iteration     100.00

 Free energy of the ion-electron system (eV)
  ---------------------------------------------------
  alpha Z        PSCENC =       112.85586723
  Ewald energy   TEWEN  =     -1382.76696498
  -Hartree energ DENC   =       -72.38423696
  -exchange      EXHF   =         0.00000000
  -V(xc)+E(xc)   XCENC  =       113.93810588
  PAW double counting   =       302.65154477     -311.85538214
  entropy T*S    EENTRO =         0.00000000
  eigenvalues    EBANDS =       -14.42226321
  atomic energy  EATOM  =      1177.01779097
  Solvation  Ediel_sol  =         0.00000000
  ---------------------------------------------------
  free energy    TOTEN  =       -74.96553844 eV

  energy without entropy =      -74.96553844  energy(sigma->0) =      -74.96553844


--------------------------------------------------------------------------------------------------------




--------------------------------------- Iteration      1(   6)  ---------------------------------------


    POTLOK:  cpu time    0.0195: real time    0.0199
    SETDIJ:  cpu time    0.0057: real time    0.0057
     EDDAV:  cpu time    9.6687: real time    9.6695
 BZINTS: Fermi energy:  8.748579; 32.000000 electrons
         Band energy:   1.540785;  BLOECHL correction:  0.000000
       DOS:  cpu time    0.0318: real time    0.0318
    CHARGE:  cpu time    0.2405: real time    0.2405
    MIXING:  cpu time    0.0020: real time    0.0020
    --------------------------------------------
      LOOP:  cpu time    9.9682: real time    9.9694

 eigenvalue-minimisations  : 10352
 total energy-change (2. order) : 0.1821558E+01  (-0.1216662E+00)
 number of electron      32.0000025 magnetization 
 augmentation part        0.7576207 magnetization 

 Broyden mixing:
  rms(total) = 0.51285E+00    rms(broyden)= 0.51283E+00
  rms(prec ) = 0.11912E+01
  weight for this iteration     100.00

 eigenvalues of (default mixing * dielectric matrix)
  average eigenvalue GAMMA=   2.1709
  2.1709

 Free energy of the ion-electron system (eV)
  ---------------------------------------------------
  alpha Z        PSCENC =       112.85586723
  Ewald energy   TEWEN  =     -1382.76696498
  -Hartree energ DENC   =       -87.40385534
  -exchange      EXHF   =         0.00000000
  -V(xc)+E(xc)   XCENC  =       115.33766528
  PAW double counting   =       390.97914089     -400.70440910
  entropy T*S    EENTRO =         0.00000000
  eigenvalues    EBANDS =         1.54078475
  atomic energy  EATOM  =      1177.01779097
  Solvation  Ediel_sol  =         0.00000000
  ---------------------------------------------------
  free energy    TOTEN  =       -73.14398030 eV

  energy without entropy =      -73.14398030  energy(sigma->0) =      -73.14398030


--------------------------------------------------------------------------------------------------------




--------------------------------------- Iteration      1(   7)  ---------------------------------------


    POTLOK:  cpu time    0.0198: real time    0.0202
    SETDIJ:  cpu time    0.0057: real time    0.0057
     EDDAV:  cpu time    9.8567: real time    9.8575
 BZINTS: Fermi energy:  9.627200; 32.000000 electrons
         Band energy:  19.998959;  BLOECHL correction:  0.000000
       DOS:  cpu time    0.0410: real time    0.0410
    CHARGE:  cpu time    0.2479: real time    0.2480
    MIXING:  cpu time    0.0016: real time    0.0016
    --------------------------------------------
      LOOP:  cpu time   10.1727: real time   10.1739

 eigenvalue-minimisations  : 10864
 total energy-change (2. order) : 0.6139348E+00  (-0.1388272E+00)
 number of electron      32.0000024 magnetization 
 augmentation part        0.7388997 magnetization 

 Broyden mixing:
  rms(total) = 0.69754E-01    rms(broyden)= 0.69420E-01
  rms(prec ) = 0.12190E+00
  weight for this iteration     100.00

 eigenvalues of (default mixing * dielectric matrix)
  average eigenvalue GAMMA=   2.2713
  2.0149  2.5277

 Free energy of the ion-electron system (eV)
  ---------------------------------------------------
  alpha Z        PSCENC =       112.85586723
  Ewald energy   TEWEN  =     -1382.76696498
  -Hartree energ DENC   =      -106.56157637
  -exchange      EXHF   =         0.00000000
  -V(xc)+E(xc)   XCENC  =       117.14510186
  PAW double counting   =       510.68051140     -520.89973465
  entropy T*S    EENTRO =         0.00000000
  eigenvalues    EBANDS =        19.99895908
  atomic energy  EATOM  =      1177.01779097
  Solvation  Ediel_sol  =         0.00000000
  ---------------------------------------------------
  free energy    TOTEN  =       -72.53004546 eV

  energy without entropy =      -72.53004546  energy(sigma->0) =      -72.53004546


--------------------------------------------------------------------------------------------------------




--------------------------------------- Iteration      1(   8)  ---------------------------------------


    POTLOK:  cpu time    0.0194: real time    0.0198
    SETDIJ:  cpu time    0.0059: real time    0.0059
     EDDAV:  cpu time   10.2240: real time   10.2248
 BZINTS: Fermi energy:  9.629142; 32.000000 electrons
         Band energy:  20.267519;  BLOECHL correction:  0.000000
       DOS:  cpu time    0.0410: real time    0.0410
    CHARGE:  cpu time    0.2653: real time    0.2653
    MIXING:  cpu time    0.0021: real time    0.0021
    --------------------------------------------
      LOOP:  cpu time   10.5577: real time   10.5589

 eigenvalue-minimisations  : 11408
 total energy-change (2. order) :-0.7508201E-02  (-0.3097517E-02)
 number of electron      32.0000024 magnetization 
 augmentation part        0.7394047 magnetization 

 Broyden mixing:
  rms(total) = 0.76979E-02    rms(broyden)= 0.75929E-02
  rms(prec ) = 0.13192E-01
  weight for this iteration     100.00

 eigenvalues of (default mixing * dielectric matrix)
  average eigenvalue GAMMA=   2.0731
  1.4244  2.6597  2.1354

 Free energy of the ion-electron system (eV)
  ---------------------------------------------------
  alpha Z        PSCENC =       112.85586723
  Ewald energy   TEWEN  =     -1382.76696498
  -Hartree energ DENC   =      -107.01263250
  -exchange      EXHF   =         0.00000000
  -V(xc)+E(xc)   XCENC  =       117.19194038
  PAW double counting   =       519.45302678     -529.54410007
[...]

 k-point   177 :       0.5000    0.4167    0.3333
  band No.  band energies     occupation 
      1      -7.4767      2.00000
      2      -6.9513      2.00000
      3      -5.8793      2.00000
      4      -5.7904      2.00000
      5      -3.2407      2.00000
      6      -3.1490      2.00000
      7      -2.2942      2.00000
      8      -2.1135      2.00000
      9       5.3665      2.00000
     10       5.4357      2.00000
     11       6.1359      2.00000
     12       6.1942      2.00000
     13       6.2125      2.00000
     14       6.5892      2.00000
     15       6.6860      2.00000
     16       7.1074      2.00000
     17      17.0305      0.00000
     18      17.1563      0.00000
     19      17.4478      0.00000
     20      17.9239      0.00000
     21      18.2053      0.00000
     22      18.4172      0.00000
     23      18.5030      0.00000
     24      18.5502      0.00000

 k-point   178 :      -0.4167    0.4167    0.3333
  band No.  band energies     occupation 
      1      -7.6057      2.00000
      2      -6.8814      2.00000
      3      -6.3382      2.00000
      4      -5.5327      2.00000
      5      -3.3554      2.00000
      6      -2.7429      2.00000
      7      -2.5656      2.00000
      8      -1.3462      2.00000
      9       5.0825      2.00000
     10       5.5729      2.00000
     11       6.0049      2.00000
     12       6.0511      2.00000
     13       6.0576      2.00000
     14       6.4785      2.00000
     15       6.5980      2.00000
     16       6.9804      2.00000
     17      16.8235      0.00000
     18      16.8677      0.00000
     19      17.0441      0.00000
     20      17.7203      0.00000
     21      18.1926      0.00000
     22      18.3560      0.00000
     23      18.7063      0.00000
     24      18.7710      0.00000

 k-point   179 :      -0.3333    0.4167    0.3333
  band No.  band energies     occupation 
      1      -8.1668      2.00000
      2      -6.7824      2.00000
      3      -6.3105      2.00000
      4      -5.5956      2.00000
      5      -2.9423      2.00000
      6      -2.9405      2.00000
      7      -1.7902      2.00000
      8      -0.4603      2.00000
      9       4.5673      2.00000
     10       5.0938      2.00000
     11       5.5183      2.00000
     12       5.7952      2.00000
     13       5.8255      2.00000
     14       6.1617      2.00000
     15       6.6768      2.00000
     16       6.9399      2.00000
     17      16.5391      0.00000
     18      16.6578      0.00000
     19      16.9043      0.00000
     20      17.4784      0.00000
     21      18.1610      0.00000
     22      18.3106      0.00000
     23      18.5500      0.00000
     24      19.0126      0.00000

 k-point   180 :       0.5000    0.5000    0.3333
  band No.  band energies     occupation 
      1      -7.0017      2.00000
      2      -6.4589      2.00000
      3      -6.3750      2.00000
      4      -6.3750      2.00000
      5      -2.8580      2.00000
      6      -2.7619      2.00000
      7      -2.7619      2.00000
      8      -2.6747      2.00000
      9       5.7471      2.00000
     10       5.7818      2.00000
     11       5.7818      2.00000
     12       6.2758      2.00000
     13       6.5583      2.00000
     14       6.6080      2.00000
     15       6.6080      2.00000
     16       7.0452      2.00000
     17      17.0579      0.00000
     18      17.0579      0.00000
     19      17.4915      0.00000
     20      18.0967      0.00000
     21      18.2586      0.00000
     22      18.2586      0.00000
     23      18.3274      0.00000
     24      18.4842      0.00000

 k-point   181 :      -0.4167    0.5000    0.3333
  band No.  band energies     occupation 
      1      -7.0272      2.00000
      2      -6.9809      2.00000
      3      -6.5464      2.00000
      4      -5.8023      2.00000
      5      -3.1925      2.00000
      6      -3.1768      2.00000
      7      -2.0465      2.00000
      8      -1.9972      2.00000
      9       5.2865      2.00000
     10       5.8356      2.00000
     11       6.0472      2.00000
     12       6.0641      2.00000
     13       6.3056      2.00000
     14       6.5940      2.00000
     15       6.6812      2.00000
     16       6.6891      2.00000
     17      16.9530      0.00000
     18      17.1317      0.00000
     19      17.2344      0.00000
     20      17.9293      0.00000
     21      17.9872      0.00000
     22      18.1145      0.00000
     23      18.3721      0.00000
     24      18.5146      0.00000

 k-point   182 :      -0.3333    0.5000    0.3333
  band No.  band energies     occupation 
      1      -7.5214      2.00000
      2      -7.5214      2.00000
      3      -6.2186      2.00000
      4      -5.4083      2.00000
      5      -3.2322      2.00000
      6      -3.1435      2.00000
      7      -1.1846      2.00000
      8      -1.1846      2.00000
      9       4.5997      2.00000
     10       5.1848      2.00000
     11       5.9175      2.00000
     12       6.2211      2.00000
     13       6.2211      2.00000
     14       6.2218      2.00000
     15       6.4020      2.00000
     16       6.4020      2.00000
     17      16.8210      0.00000
     18      16.8210      0.00000
     19      17.3365      0.00000
     20      17.6341      0.00000
     21      17.9934      0.00000
     22      18.4665      0.00000
     23      18.4665      0.00000
     24      18.9014      0.00000

 k-point   183 :      -0.4167   -0.4167    0.3333
  band No.  band energies     occupation 
      1      -7.6454      2.00000
      2      -6.3348      2.00000
      3      -6.2876      2.00000
      4      -6.2876      2.00000
      5      -3.2636      2.00000
      6      -2.6006      2.00000
      7      -2.6006      2.00000
      8      -1.2854      2.00000
      9       5.4350      2.00000
     10       5.4350      2.00000
     11       5.5360      2.00000
     12       6.2220      2.00000
     13       6.2220      2.00000
     14       6.4487      2.00000
     15       6.5269      2.00000
     16       6.8969      2.00000
     17      16.9021      0.00000
     18      16.9021      0.00000
     19      17.1726      0.00000
     20      17.6226      0.00000
     21      18.1673      0.00000
     22      18.1673      0.00000
     23      18.1938      0.00000
     24      18.2042      0.00000

 k-point   184 :       0.4167    0.4167    0.4167
  band No.  band energies     occupation 
      1      -7.5985      2.00000
      2      -5.9065      2.00000
      3      -5.9065      2.00000
      4      -5.9065      2.00000
      5      -3.3585      2.00000
      6      -3.3585      2.00000
      7      -3.3585      2.00000
      8      -2.4095      2.00000
      9       6.0382      2.00000
     10       6.0382      2.00000
     11       6.0382      2.00000
     12       6.2864      2.00000
     13       6.2864      2.00000
     14       6.2864      2.00000
     15       7.2495      2.00000
     16       7.2495      2.00000
     17      17.2109      0.00000
     18      17.2109      0.00000
     19      17.2109      0.00000
     20      18.0831      0.00000
     21      18.0831      0.00000
     22      18.2937      0.00000
     23      18.2937      0.00000
     24      18.2937      0.00000

 k-point   185 :       0.5000    0.4167    0.4167
  band No.  band energies     occupation 
      1      -7.1210      2.00000
      2      -6.4942      2.00000
      3      -5.7639      2.00000
      4      -5.7639      2.00000
      5      -3.5902      2.00000
      6      -3.5902      2.00000
      7      -2.9779      2.00000
      8      -2.8763      2.00000
      9       6.1155      2.00000
     10       6.1155      2.00000
     11       6.3753      2.00000
     12       6.3753      2.00000
     13       6.4901      2.00000
     14       6.6452      2.00000
     15       7.0343      2.00000
     16       7.0664      2.00000
     17      16.9797      0.00000
     18      17.1823      0.00000
     19      17.1823      0.00000
     20      17.9868      0.00000
     21      18.1319      0.00000
     22      18.3188      0.00000
     23      18.3191      0.00000
     24      18.3430      0.00000

 k-point   186 :      -0.4167    0.4167    0.4167
  band No.  band energies     occupation 
      1      -7.1027      2.00000
      2      -6.6634      2.00000
      3      -5.9478      2.00000
      4      -5.9478      2.00000
      5      -3.2987      2.00000
      6      -3.2797      2.00000
      7      -3.2797      2.00000
      8      -2.1554      2.00000
      9       5.9529      2.00000
     10       5.9529      2.00000
     11       6.3003      2.00000
     12       6.3003      2.00000
     13       6.4600      2.00000
     14       6.7005      2.00000
     15       6.7853      2.00000
     16       6.7941      2.00000
     17      16.9039      0.00000
     18      16.9903      0.00000
     19      16.9903      0.00000
     20      17.8354      0.00000
     21      18.1583      0.00000
     22      18.2670      0.00000
     23      18.3546      0.00000
     24      18.3546      0.00000

 k-point   187 :       0.5000    0.5000    0.4167
  band No.  band energies     occupation 
      1      -6.7815      2.00000
      2      -6.0657      2.00000
      3      -6.0362      2.00000
      4      -6.0362      2.00000
      5      -3.4264      2.00000
      6      -3.4264      2.00000
      7      -3.4197      2.00000
      8      -3.3959      2.00000
      9       6.3719      2.00000
     10       6.3719      2.00000
     11       6.4292      2.00000
     12       6.5652      2.00000
     13       6.6516      2.00000
     14       6.6516      2.00000
     15       6.9124      2.00000
     16       7.1146      2.00000
     17      16.9691      0.00000
     18      16.9691      0.00000
     19      17.1054      0.00000
     20      18.1443      0.00000
     21      18.2118      0.00000
     22      18.2272      0.00000
     23      18.2631      0.00000
     24      18.2635      0.00000

 k-point   188 :      -0.4167    0.5000    0.4167
  band No.  band energies     occupation 
      1      -6.5679      2.00000
      2      -6.5275      2.00000
      3      -6.5275      2.00000
      4      -5.7548      2.00000
      5      -3.5817      2.00000
      6      -3.5072      2.00000
      7      -2.8239      2.00000
      8      -2.8239      2.00000
      9       5.9889      2.00000
     10       6.4910      2.00000
     11       6.4929      2.00000
     12       6.4929      2.00000
     13       6.5673      2.00000
     14       6.5831      2.00000
     15       6.5831      2.00000
     16       6.9071      2.00000
     17      16.9885      0.00000
     18      16.9885      0.00000
     19      17.0355      0.00000
     20      18.0497      0.00000
     21      18.0655      0.00000
     22      18.2428      0.00000
     23      18.2452      0.00000
     24      18.3952      0.00000

 k-point   189 :       0.5000    0.5000    0.5000
  band No.  band energies     occupation 
      1      -6.6849      2.00000
      2      -5.8706      2.00000
      3      -5.8706      2.00000
      4      -5.8706      2.00000
      5      -3.7012      2.00000
      6      -3.7012      2.00000
      7      -3.7012      2.00000
      8      -3.6305      2.00000
      9       6.5704      2.00000
     10       6.5704      2.00000
     11       6.5704      2.00000
     12       6.6813      2.00000
     13       6.6813      2.00000
     14       6.6813      2.00000
     15       7.1393      2.00000
     16       7.1393      2.00000
     17      16.9246      0.00000
     18      16.9246      0.00000
     19      16.9246      0.00000
     20      18.1309      0.00000
     21      18.1311      0.00000
     22      18.2067      0.00000
     23      18.2069      0.00000
     24      18.2091      0.00000


--------------------------------------------------------------------------------------------------------


 soft charge-density along one line, spin component           1
         0         1         2         3         4         5         6         7         8         9
 total charge-density along one line
 
 pseudopotential strength for first ion, spin component:           1
  9.453  -0.004   0.000   0.000   0.000  -0.000  -0.000  -0.000
 -0.004  -0.002   0.000   0.000   0.000  -0.000  -0.000  -0.000
  0.000   0.000  -3.674  -0.000  -0.000  -0.008   0.000   0.000
  0.000   0.000  -0.000  -3.674  -0.000   0.000  -0.008   0.000
  0.000   0.000  -0.000  -0.000  -3.674   0.000   0.000  -0.008
 -0.000  -0.000  -0.008   0.000   0.000  -0.757  -0.000  -0.000
 -0.000  -0.000   0.000  -0.008   0.000  -0.000  -0.757  -0.000
 -0.000  -0.000   0.000   0.000  -0.008  -0.000  -0.000  -0.757
 total augmentation occupancy for first ion, spin component:           1
  1.423  -1.012   0.009   0.008   0.009   0.005   0.005   0.005
 -1.012   1.000  -0.025  -0.024  -0.025  -0.008  -0.008  -0.008
  0.009  -0.025   1.090  -0.019  -0.020   0.182  -0.003  -0.003
  0.008  -0.024  -0.019   1.091  -0.020  -0.003   0.182  -0.003
  0.009  -0.025  -0.020  -0.020   1.089  -0.003  -0.003   0.182
  0.005  -0.008   0.182  -0.003  -0.003   0.036  -0.001  -0.001
  0.005  -0.008  -0.003   0.182  -0.003  -0.001   0.036  -0.001
  0.005  -0.008  -0.003  -0.003   0.182  -0.001  -0.001   0.036


------------------------ aborting loop because EDIFF is reached ----------------------------------------


    CHARGE:  cpu time    0.2548: real time    0.2548
    FORLOC:  cpu time    0.0018: real time    0.0018
    FORNL :  cpu time    0.4179: real time    0.4180
    STRESS:  cpu time    1.0096: real time    1.0099
    FORHAR:  cpu time    0.0055: real time    0.0055
    MIXING:  cpu time    0.0024: real time    0.0024
    OFIELD:  cpu time    0.0001: real time    0.0001

  FORCE on cell =-STRESS in cart. coord.  units (eV):
  Direction    XX          YY          ZZ          XY          YZ          ZX
  --------------------------------------------------------------------------------------
  Alpha Z   112.85587   112.85587   112.85587
  Ewald    -461.85292  -460.89610  -460.02035   -15.94128   -15.02587   -15.48354
  Hartree    35.40963    35.67124    35.91067    -4.35848    -4.10818    -4.23332
  E(xc)    -119.23783  -119.23665  -119.23557    -0.01968    -0.01855    -0.01912
  Local     -47.10933   -48.24713   -49.28855    18.95675    17.86810    18.41241
  n-local   -27.51347   -27.85625   -27.53748     0.63982     1.09323     0.27135
  augment    -2.77967    -2.77972    -2.77977     0.00085     0.00080     0.00083
  Kinetic   502.04627   507.28567   514.16945    -3.64254    -7.21799    -0.52448
  Fock        0.00000     0.00000     0.00000     0.00000     0.00000     0.00000
  -------------------------------------------------------------------------------------
  Total      -2.70892    -2.42882    -2.17251    -4.66623    -4.39825    -4.53224
  in kB     -93.92896   -84.21686   -75.32933  -161.79631  -152.50461  -157.15048
  external pressure =      -84.49 kB  Pullay stress =        0.00 kB


 VOLUME and BASIS-vectors are now :
 -----------------------------------------------------------------------------
  energy-cutoff  :      400.00
  volume of cell :       46.21
      direct lattice vectors                 reciprocal lattice vectors
     3.589999359  0.000000000  0.000000000     0.278551582 -0.008360288 -0.008120228
     0.107699679  3.588383025  0.000000000     0.000000000  0.278677051 -0.008120269
     0.107699679  0.104516235  3.586861119     0.000000000  0.000000000  0.278795294

  length of vectors
     3.589999359  3.589998880  3.589999381     0.278795294  0.278795333  0.278795294


 FORCES acting on ions
    electron-ion (+dipol)            ewald-force                    non-local-force                 convergence-correction
 -----------------------------------------------------------------------------------------------
   0.539E+01 0.523E+01 0.508E+01   -.546E+01 -.530E+01 -.514E+01   0.712E-01 0.691E-01 0.672E-01   0.156E-04 0.152E-04 0.147E-04
   -.539E+01 -.523E+01 -.508E+01   0.546E+01 0.530E+01 0.514E+01   -.712E-01 -.691E-01 -.672E-01   -.156E-04 -.152E-04 -.147E-04
   0.539E+01 0.523E+01 0.508E+01   -.546E+01 -.530E+01 -.514E+01   0.712E-01 0.691E-01 0.672E-01   0.156E-04 0.152E-04 0.147E-04
   -.539E+01 -.523E+01 -.508E+01   0.546E+01 0.530E+01 0.514E+01   -.712E-01 -.691E-01 -.672E-01   -.156E-04 -.152E-04 -.147E-04
   0.539E+01 0.523E+01 0.508E+01   -.546E+01 -.530E+01 -.514E+01   0.712E-01 0.691E-01 0.672E-01   0.156E-04 0.152E-04 0.147E-04
   -.539E+01 -.523E+01 -.508E+01   0.546E+01 0.530E+01 0.514E+01   -.712E-01 -.691E-01 -.672E-01   -.156E-04 -.152E-04 -.147E-04
   0.539E+01 0.523E+01 0.508E+01   -.546E+01 -.530E+01 -.514E+01   0.712E-01 0.691E-01 0.672E-01   0.156E-04 0.152E-04 0.147E-04
   -.539E+01 -.523E+01 -.508E+01   0.546E+01 0.530E+01 0.514E+01   -.712E-01 -.691E-01 -.672E-01   -.156E-04 -.152E-04 -.147E-04
 -----------------------------------------------------------------------------------------------
   0.116E-11 0.102E-11 0.975E-12   0.107E-13 -.888E-15 0.000E+00   -.278E-16 -.125E-15 0.278E-16   -.374E-13 0.788E-14 -.751E-14
 
 
 POSITION                                       TOTAL-FORCE (eV/Angst)
 -----------------------------------------------------------------------------------
      1.00520      2.71742      0.89672         0.001488      0.001444      0.001403
      0.05385      0.05226      1.79343        -0.001488     -0.001444     -0.001403
      1.00520      0.97548      2.69015         0.001488      0.001444      0.001403
      0.05385      1.79419      0.00000        -0.001488     -0.001444     -0.001403
      2.85405      2.76967      2.69015         0.001488      0.001444      0.001403
      1.79500      0.00000      0.00000        -0.001488     -0.001444     -0.001403
      2.74635      0.92322      0.89672         0.001488      0.001444      0.001403
      1.90270      1.84645      1.79343        -0.001488     -0.001444     -0.001403
 -----------------------------------------------------------------------------------
    total drift:                                0.000000      0.000000      0.000000


--------------------------------------------------------------------------------------------------------



  FREE ENERGIE OF THE ION-ELECTRON SYSTEM (eV)
  ---------------------------------------------------
  free  energy   TOTEN  =       -72.53784194 eV

  energy  without entropy=      -72.53784194  energy(sigma->0) =      -72.53784194
 


--------------------------------------------------------------------------------------------------------


    POTLOK:  cpu time    0.0265: real time    0.0265


--------------------------------------------------------------------------------------------------------


     LOOP+:  cpu time  122.8876: real time  123.4696
    4ORBIT:  cpu time    0.0000: real time    0.0000
 BZINTS: Fermi energy:  9.621527; 32.000000 electrons
         Band energy:  20.239012;  BLOECHL correction:  0.000000

 total amount of memory used by VASP MPI-rank0    37803. kBytes
=======================================================================

   base      :      30000. kBytes
   nonl-proj :       2689. kBytes
   fftplans  :        346. kBytes
   grid      :        481. kBytes
   one-center:          6. kBytes
   wavefun   :       4281. kBytes
 
  
  
 General timing and accounting informations for this job:
 ========================================================
  
                  Total CPU time used (sec):      126.416
                            User time (sec):      122.796
                          System time (sec):        3.620
                         Elapsed time (sec):      127.449
  
                   Maximum memory used (kb):      193692.
                   Average memory used (kb):           0.
  
                          Minor page faults:        36893
                          Major page faults:           36
                 Voluntary context switches:          783
