  64  64   0   0
  0.6130545E+01  0.7392262E-09  0.7392262E-09  0.7179999E-09  0.5000000E-15
  1.000000000000000E-004
  CAR 
 unknown system                          
     21.24729129    -13.37258755  301      9.25294577      1.00000000
    -13.373  0.0000E+00  0.0000E+00
    -13.257  0.0000E+00  0.0000E+00
    -13.142  0.0000E+00  0.0000E+00
    -13.026  0.0000E+00  0.0000E+00
    -12.911  0.0000E+00  0.0000E+00
    -12.796  0.0000E+00  0.0000E+00
    -12.680  0.0000E+00  0.0000E+00
    -12.565  0.0000E+00  0.0000E+00
    -12.449  0.0000E+00  0.0000E+00
    -12.334  0.0000E+00  0.0000E+00
    -12.219  0.0000E+00  0.0000E+00
    -12.103  0.1009E-12  0.1164E-13
    -11.988  0.1158E-05  0.1336E-06
    -11.872  0.1130E-01  0.1304E-02
    -11.757  0.2370E+00  0.2865E-01
    -11.642  0.1148E+01  0.1611E+00
    -11.526  0.2110E+01  0.4046E+00
    -11.411  0.2295E+01  0.6694E+00
    -11.295  0.1765E+01  0.8731E+00
    -11.180  0.1802E+01  0.1081E+01
    -11.065  0.5492E+01  0.1715E+01
    -10.949  0.5599E+01  0.2361E+01
    -10.834  0.1484E+01  0.2532E+01
    -10.718  0.1427E+01  0.2697E+01
    -10.603  0.4130E+01  0.3173E+01
    -10.488  0.6854E+01  0.3964E+01
    -10.372  0.5437E+01  0.4592E+01
    -10.257  0.5472E+01  0.5223E+01
    -10.141  0.2902E+01  0.5558E+01
    -10.026  0.4369E+01  0.6062E+01
     -9.911  0.8695E+01  0.7066E+01
     -9.795  0.6597E+01  0.7827E+01
     -9.680  0.6620E+00  0.7903E+01
     -9.564  0.3015E+01  0.8251E+01
     -9.449  0.1008E+02  0.9415E+01
     -9.334  0.8508E+01  0.1040E+02
     -9.218  0.7097E+01  0.1122E+02
     -9.103  0.5657E+01  0.1187E+02
     -8.987  0.8994E+01  0.1291E+02
     -8.872  0.8607E+01  0.1390E+02
     -8.757  0.4340E+01  0.1440E+02
     -8.641  0.1811E+01  0.1461E+02
     -8.526  0.5580E+01  0.1525E+02
     -8.410  0.8325E+01  0.1621E+02
     -8.295  0.1385E+02  0.1781E+02
     -8.180  0.9918E+01  0.1896E+02
     -8.064  0.3429E+01  0.1935E+02
     -7.949  0.1311E+02  0.2087E+02
     -7.833  0.1213E+02  0.2227E+02
     -7.718  0.4682E+01  0.2281E+02
     -7.603  0.3876E+01  0.2325E+02
     -7.487  0.7500E+01  0.2412E+02
     -7.372  0.1293E+02  0.2561E+02
     -7.256  0.1044E+02  0.2682E+02
     -7.141  0.1073E+02  0.2805E+02
     -7.026  0.7655E+01  0.2894E+02
     -6.910  0.1029E+02  0.3012E+02
     -6.795  0.9864E+01  0.3126E+02
     -6.679  0.8774E+01  0.3228E+02
     -6.564  0.1004E+02  0.3343E+02
     -6.449  0.1932E+02  0.3566E+02
     -6.333  0.1488E+02  0.3738E+02
     -6.218  0.1670E+02  0.3931E+02
     -6.102  0.1322E+02  0.4083E+02
     -5.987  0.7809E+01  0.4174E+02
     -5.872  0.7486E+01  0.4260E+02
     -5.756  0.1178E+02  0.4396E+02
     -5.641  0.1121E+02  0.4525E+02
     -5.525  0.8101E+01  0.4619E+02
     -5.410  0.1271E+02  0.4765E+02
     -5.295  0.1316E+02  0.4917E+02
     -5.179  0.1086E+02  0.5043E+02
     -5.064  0.7488E+01  0.5129E+02
     -4.948  0.1144E+02  0.5261E+02
     -4.833  0.6329E+01  0.5334E+02
     -4.718  0.1602E+02  0.5519E+02
     -4.602  0.1084E+02  0.5644E+02
     -4.487  0.1153E+02  0.5777E+02
     -4.371  0.8019E+01  0.5870E+02
     -4.256  0.7289E+01  0.5954E+02
     -4.141  0.5745E+00  0.5960E+02
     -4.025  0.3129E+01  0.5996E+02
     -3.910  0.3282E+01  0.6034E+02
     -3.794  0.4000E+01  0.6080E+02
     -3.679  0.4634E+01  0.6134E+02
     -3.564  0.1804E+02  0.6342E+02
     -3.448  0.4810E+01  0.6398E+02
     -3.333  0.1109E+02  0.6526E+02
     -3.217  0.6815E+01  0.6604E+02
     -3.102  0.1604E+02  0.6789E+02
     -2.987  0.1233E+02  0.6932E+02
     -2.871  0.1466E+02  0.7101E+02
     -2.756  0.6686E+01  0.7178E+02
     -2.640  0.6196E+01  0.7249E+02
     -2.525  0.1213E+02  0.7389E+02
     -2.410  0.1832E+02  0.7601E+02
     -2.294  0.1368E+02  0.7759E+02
     -2.179  0.1907E+02  0.7979E+02
     -2.063  0.2657E+02  0.8285E+02
     -1.948  0.1981E+02  0.8514E+02
     -1.833  0.6828E+01  0.8593E+02
     -1.717  0.2207E+02  0.8847E+02
     -1.602  0.1781E+02  0.9053E+02
     -1.486  0.1277E+02  0.9200E+02
     -1.371  0.1814E+02  0.9410E+02
     -1.256  0.1312E+02  0.9561E+02
     -1.140  0.1011E+02  0.9678E+02
     -1.025  0.2888E+01  0.9711E+02
     -0.909  0.3043E+01  0.9746E+02
     -0.794  0.8314E+01  0.9842E+02
     -0.679  0.1144E+02  0.9974E+02
     -0.563  0.1728E+02  0.1017E+03
     -0.448  0.9627E+01  0.1028E+03
     -0.332  0.1887E+01  0.1031E+03
     -0.217  0.7453E+00  0.1032E+03
     -0.102  0.8992E+01  0.1042E+03
      0.014  0.1219E+02  0.1056E+03
      0.129  0.1494E+02  0.1073E+03
      0.245  0.1680E+02  0.1093E+03
      0.360  0.2230E+02  0.1118E+03
      0.475  0.1626E+02  0.1137E+03
      0.591  0.6851E+01  0.1145E+03
      0.706  0.8001E+01  0.1154E+03
      0.822  0.1994E+02  0.1177E+03
      0.937  0.2098E+02  0.1201E+03
      1.052  0.8499E+01  0.1211E+03
      1.168  0.2068E+02  0.1235E+03
      1.283  0.3134E+02  0.1271E+03
      1.399  0.2280E+02  0.1298E+03
      1.514  0.1915E+02  0.1320E+03
      1.629  0.8797E+01  0.1330E+03
      1.745  0.1150E+02  0.1343E+03
      1.860  0.1144E+02  0.1356E+03
      1.976  0.2526E+02  0.1385E+03
      2.091  0.1812E+02  0.1406E+03
      2.206  0.1773E+02  0.1427E+03
      2.322  0.1695E+02  0.1446E+03
      2.437  0.2442E+02  0.1475E+03
      2.553  0.2714E+02  0.1506E+03
      2.668  0.3791E+02  0.1550E+03
      2.783  0.3169E+02  0.1586E+03
      2.899  0.1880E+02  0.1608E+03
      3.014  0.1876E+02  0.1630E+03
      3.130  0.1285E+02  0.1644E+03
      3.245  0.1767E+02  0.1665E+03
      3.360  0.2246E+02  0.1691E+03
      3.476  0.3036E+02  0.1726E+03
      3.591  0.3657E+02  0.1768E+03
      3.707  0.3278E+02  0.1806E+03
      3.822  0.3114E+02  0.1842E+03
      3.937  0.3344E+02  0.1880E+03
      4.053  0.1866E+02  0.1902E+03
      4.168  0.1751E+02  0.1922E+03
      4.284  0.1476E+02  0.1939E+03
      4.399  0.2328E+02  0.1966E+03
      4.514  0.2883E+02  0.1999E+03
      4.630  0.2252E+02  0.2025E+03
      4.745  0.2055E+02  0.2049E+03
      4.861  0.3007E+02  0.2084E+03
      4.976  0.2270E+02  0.2110E+03
      5.091  0.2797E+02  0.2142E+03
      5.207  0.2760E+02  0.2174E+03
      5.322  0.1628E+02  0.2193E+03
      5.438  0.2353E+02  0.2220E+03
      5.553  0.1491E+02  0.2237E+03
      5.668  0.2308E+02  0.2264E+03
      5.784  0.2106E+02  0.2288E+03
      5.899  0.1787E+02  0.2309E+03
      6.015  0.1927E+02  0.2331E+03
      6.130  0.2780E+02  0.2363E+03
      6.245  0.2423E+02  0.2391E+03
      6.361  0.1491E+02  0.2408E+03
      6.476  0.8524E+01  0.2418E+03
      6.592  0.6841E+01  0.2426E+03
      6.707  0.1123E+02  0.2439E+03
      6.822  0.8655E+01  0.2449E+03
      6.938  0.1616E+02  0.2467E+03
      7.053  0.9228E+01  0.2478E+03
      7.169  0.1197E+02  0.2492E+03
      7.284  0.1228E+02  0.2506E+03
      7.399  0.6063E+01  0.2513E+03
      7.515  0.2005E+01  0.2515E+03
      7.630  0.3397E+01  0.2519E+03
      7.746  0.4684E+01  0.2525E+03
      7.861  0.7034E+01  0.2533E+03
      7.976  0.5956E+01  0.2540E+03
      8.092  0.7012E+01  0.2548E+03
      8.207  0.2913E+01  0.2551E+03
      8.323  0.2202E+01  0.2554E+03
      8.438  0.1562E+01  0.2555E+03
      8.553  0.1007E+01  0.2557E+03
      8.669  0.2391E+01  0.2559E+03
      8.784  0.2415E+00  0.2560E+03
      8.900  0.1874E-01  0.2560E+03
      9.015  0.2228E+00  0.2560E+03
      9.130  0.2928E-01  0.2560E+03
      9.246  0.1030E-04  0.2560E+03
      9.361  0.3316E-11  0.2560E+03
      9.477  0.0000E+00  0.2560E+03
      9.592  0.0000E+00  0.2560E+03
      9.707  0.0000E+00  0.2560E+03
      9.823  0.0000E+00  0.2560E+03
      9.938  0.0000E+00  0.2560E+03
     10.054  0.0000E+00  0.2560E+03
     10.169  0.0000E+00  0.2560E+03
     10.284  0.0000E+00  0.2560E+03
     10.400  0.0000E+00  0.2560E+03
     10.515  0.0000E+00  0.2560E+03
     10.631  0.0000E+00  0.2560E+03
     10.746  0.0000E+00  0.2560E+03
     10.861  0.0000E+00  0.2560E+03
     10.977  0.0000E+00  0.2560E+03
     11.092  0.0000E+00  0.2560E+03
     11.208  0.0000E+00  0.2560E+03
     11.323  0.0000E+00  0.2560E+03
     11.438  0.0000E+00  0.2560E+03
     11.554  0.0000E+00  0.2560E+03
     11.669  0.0000E+00  0.2560E+03
     11.785  0.0000E+00  0.2560E+03
     11.900  0.8193E-12  0.2560E+03
     12.015  0.5622E-05  0.2560E+03
     12.131  0.3391E-01  0.2560E+03
     12.246  0.5898E+00  0.2561E+03
     12.362  0.7019E+00  0.2562E+03
     12.477  0.3250E+00  0.2562E+03
     12.592  0.4416E+00  0.2562E+03
     12.708  0.2859E+00  0.2563E+03
     12.823  0.2964E+01  0.2566E+03
     12.939  0.5367E+01  0.2572E+03
     13.054  0.5760E+01  0.2579E+03
     13.169  0.5319E+01  0.2585E+03
     13.285  0.2051E+01  0.2588E+03
     13.400  0.3382E+01  0.2591E+03
     13.516  0.1114E+02  0.2604E+03
     13.631  0.7988E+01  0.2613E+03
     13.746  0.1601E+02  0.2632E+03
     13.862  0.1301E+02  0.2647E+03
     13.977  0.9291E+01  0.2658E+03
     14.093  0.1414E+02  0.2674E+03
     14.208  0.8811E+01  0.2684E+03
     14.323  0.1227E+02  0.2698E+03
     14.439  0.1774E+02  0.2719E+03
     14.554  0.1576E+02  0.2737E+03
     14.670  0.1927E+02  0.2759E+03
     14.785  0.2384E+02  0.2787E+03
     14.900  0.1754E+02  0.2807E+03
     15.016  0.1988E+02  0.2830E+03
     15.131  0.2013E+02  0.2853E+03
     15.247  0.1844E+02  0.2874E+03
     15.362  0.2119E+02  0.2899E+03
     15.477  0.2948E+02  0.2933E+03
     15.593  0.2367E+02  0.2960E+03
     15.708  0.1884E+02  0.2982E+03
     15.824  0.2047E+02  0.3006E+03
     15.939  0.2178E+02  0.3031E+03
     16.054  0.2412E+02  0.3059E+03
     16.170  0.3091E+02  0.3094E+03
     16.285  0.4018E+02  0.3141E+03
     16.401  0.4674E+02  0.3195E+03
     16.516  0.5189E+02  0.3254E+03
     16.631  0.4147E+02  0.3302E+03
     16.747  0.2257E+02  0.3328E+03
     16.862  0.2403E+02  0.3356E+03
     16.978  0.2264E+02  0.3382E+03
     17.093  0.3243E+02  0.3420E+03
     17.208  0.3216E+02  0.3457E+03
     17.324  0.4473E+02  0.3508E+03
     17.439  0.4245E+02  0.3557E+03
     17.555  0.2624E+02  0.3588E+03
     17.670  0.1898E+02  0.3609E+03
     17.785  0.2643E+02  0.3640E+03
     17.901  0.3009E+02  0.3675E+03
     18.016  0.2742E+02  0.3706E+03
     18.132  0.2667E+02  0.3737E+03
     18.247  0.1639E+02  0.3756E+03
     18.362  0.1821E+02  0.3777E+03
     18.478  0.9931E+01  0.3789E+03
     18.593  0.1419E+02  0.3805E+03
     18.709  0.7972E+01  0.3814E+03
     18.824  0.8844E+01  0.3824E+03
     18.939  0.2082E+01  0.3827E+03
     19.055  0.5510E+01  0.3833E+03
     19.170  0.1675E+01  0.3835E+03
     19.285  0.1207E-01  0.3835E+03
     19.401  0.7107E+00  0.3836E+03
     19.516  0.1415E+01  0.3837E+03
     19.632  0.3878E+00  0.3838E+03
     19.747  0.1726E+01  0.3840E+03
     19.862  0.9035E-01  0.3840E+03
     19.978  0.9251E-05  0.3840E+03
     20.093  0.8056E-12  0.3840E+03
     20.209  0.0000E+00  0.3840E+03
     20.324  0.0000E+00  0.3840E+03
     20.439  0.0000E+00  0.3840E+03
     20.555  0.0000E+00  0.3840E+03
     20.670  0.0000E+00  0.3840E+03
     20.786  0.0000E+00  0.3840E+03
     20.901  0.0000E+00  0.3840E+03
     21.016  0.0000E+00  0.3840E+03
     21.132  0.0000E+00  0.3840E+03
     21.247  0.0000E+00  0.3840E+03
