   64   64    1    1
  0.6130545E+01  0.7392262E-09  0.7392262E-09  0.7179999E-09  0.5000000E-15
  1.000000000000000E-004
  CAR 
 unknown system                          
    256     18    192
 
  0.0000000E+00  0.0000000E+00  0.0000000E+00  0.1562500E-01
    1      -11.798957   1.000000
    2       -9.677011   1.000000
    3       -9.677011   1.000000
    4       -9.677011   1.000000
    5       -9.677011   1.000000
    6       -9.552713   1.000000
    7       -9.552713   1.000000
    8       -7.658301   1.000000
    9       -7.658301   1.000000
   10       -7.658301   1.000000
   11       -7.658301   1.000000
   12       -7.548459   1.000000
   13       -7.548459   1.000000
   14       -7.548459   1.000000
   15       -7.548459   1.000000
   16       -7.548459   1.000000
   17       -7.548459   1.000000
   18       -7.548459   1.000000
   19       -7.548459   1.000000
   20       -6.454106   1.000000
   21       -6.454106   1.000000
   22       -6.454106   1.000000
   23       -6.454106   1.000000
   24       -3.877415   1.000000
   25       -3.877415   1.000000
   26       -3.877415   1.000000
   27       -3.877415   1.000000
   28       -3.709877   1.000000
   29       -3.709877   1.000000
   30       -3.709877   1.000000
   31       -3.709877   1.000000
   32       -3.294134   1.000000
   33       -3.294134   1.000000
   34       -2.980235   1.000000
   35       -2.980235   1.000000
   36       -2.980235   1.000000
   37       -2.980235   1.000000
   38       -2.869100   1.000000
   39       -2.869100   1.000000
   40       -2.869100   1.000000
   41       -2.869100   1.000000
   42       -2.869100   1.000000
   43       -2.869100   1.000000
   44       -2.869100   1.000000
   45       -2.869100   1.000000
   46        0.255746   1.000000
   47        0.255746   1.000000
   48        0.255746   1.000000
   49        0.255746   1.000000
   50        0.255746   1.000000
   51        0.255746   1.000000
   52        0.255746   1.000000
   53        0.255746   1.000000
   54        0.486733   1.000000
   55        0.486733   1.000000
   56        0.486733   1.000000
   57        0.486733   1.000000
   58        0.977799   1.000000
   59        0.977799   1.000000
   60        0.977799   1.000000
   61        0.977799   1.000000
   62        1.016487   1.000000
   63        1.016487   1.000000
   64        1.016487   1.000000
   65        1.016487   1.000000
   66        1.016487   1.000000
   67        1.016487   1.000000
   68        1.016487   1.000000
   69        1.016487   1.000000
   70        1.472959   1.000000
   71        1.472959   1.000000
   72        1.472959   1.000000
   73        1.472959   1.000000
   74        1.472959   1.000000
   75        1.472959   1.000000
   76        1.472959   1.000000
   77        1.472959   1.000000
   78        1.814678   1.000000
   79        1.814678   1.000000
   80        1.814678   1.000000
   81        1.814678   1.000000
   82        2.563068   1.000000
   83        2.563068   1.000000
   84        2.963476   1.000000
   85        2.963476   1.000000
   86        2.963476   1.000000
   87        2.963476   1.000000
   88        4.064039   1.000000
   89        4.064039   1.000000
   90        4.064039   1.000000
   91        4.064039   1.000000
   92        4.551179   1.000000
   93        4.551179   1.000000
   94        4.664097   1.000000
   95        4.664097   1.000000
   96        4.664097   1.000000
   97        4.664097   1.000000
   98        4.893151   1.000000
   99        4.893151   1.000000
  100        4.893151   1.000000
  101        4.893151   1.000000
  102        5.040329   1.000000
  103        5.040329   1.000000
  104        5.040329   1.000000
  105        5.040329   1.000000
  106        5.614578   1.000000
  107        5.614578   1.000000
  108        5.614578   1.000000
  109        5.614578   1.000000
  110        5.825141   1.000000
  111        5.825141   1.000000
  112        5.825141   1.000000
  113        5.825141   1.000000
  114        6.006376   1.000000
  115        6.006376   1.000000
  116        6.006376   1.000000
  117        6.006376   1.000000
  118        6.006376   1.000000
  119        6.006376   1.000000
  120        6.006376   1.000000
  121        6.006376   1.000000
  122        6.298911   1.000000
  123        6.298911   1.000000
  124        6.298911   1.000000
  125        6.298911   1.000000
  126        8.535567   1.000000
  127        8.535567   1.000000
  128        8.962478   1.000000
  129       12.545937   0.000000
  130       12.545937   0.000000
  131       12.835930   0.000000
  132       12.835930   0.000000
  133       13.118764   0.000000
  134       13.118764   0.000000
  135       13.118764   0.000000
  136       13.118764   0.000000
  137       13.478517   0.000000
  138       13.478517   0.000000
  139       13.478517   0.000000
  140       13.478517   0.000000
  141       13.835477   0.000000
  142       14.172083   0.000000
  143       14.172083   0.000000
  144       15.737037   0.000000
  145       15.737037   0.000000
  146       15.737037   0.000000
  147       15.737037   0.000000
  148       16.156175   0.000000
  149       16.156175   0.000000
  150       16.156175   0.000000
  151       16.156175   0.000000
  152       16.409311   0.000000
  153       16.409311   0.000000
  154       16.409311   0.000000
  155       16.409311   0.000000
  156       16.409311   0.000000
  157       16.409311   0.000000
  158       16.409311   0.000000
  159       16.409311   0.000000
  160       16.707271   0.000000
  161       16.707271   0.000000
  162       16.707271   0.000000
  163       16.707271   0.000000
  164       17.223086   0.000000
  165       17.223086   0.000000
  166       17.223086   0.000000
  167       17.223086   0.000000
  168       18.054855   0.000000
  169       18.054855   0.000000
  170       18.054855   0.000000
  171       18.054855   0.000000
  172       18.054855   0.000000
  173       18.054855   0.000000
  174       18.054855   0.000000
  175       18.054856   0.000000
  176       18.223101   0.000000
  177       18.223102   0.000000
  178       18.237606   0.000000
  179       18.237606   0.000000
  180       18.237607   0.000000
  181       18.237613   0.000000
  182       18.412766   0.000000
  183       18.412766   0.000000
  184       18.412767   0.000000
  185       18.412971   0.000000
  186       18.690354   0.000000
  187       18.690356   0.000000
  188       18.690358   0.000000
  189       18.690387   0.000000
  190       18.690420   0.000000
  191       18.690559   0.000000
  192       18.690926   0.000000
 
  0.2500000E+00  0.0000000E+00  0.0000000E+00  0.6250000E-01
    1      -11.664889   1.000000
    2      -10.599027   1.000000
    3       -9.547795   1.000000
    4       -9.547795   1.000000
    5       -9.424099   1.000000
    6       -9.424099   1.000000
    7       -8.527775   1.000000
    8       -8.527775   1.000000
    9       -8.507817   1.000000
   10       -8.410143   1.000000
   11       -8.410143   1.000000
   12       -7.438625   1.000000
   13       -7.438625   1.000000
   14       -7.438625   1.000000
   15       -7.438625   1.000000
   16       -6.701942   1.000000
   17       -6.701942   1.000000
   18       -6.701942   1.000000
   19       -6.701942   1.000000
   20       -6.580568   1.000000
   21       -6.580568   1.000000
   22       -6.485970   1.000000
   23       -6.485970   1.000000
   24       -5.496437   1.000000
   25       -4.053548   1.000000
   26       -4.053548   1.000000
   27       -4.051215   1.000000
   28       -4.051215   1.000000
   29       -3.625827   1.000000
   30       -3.625827   1.000000
   31       -3.396568   1.000000
   32       -3.396568   1.000000
   33       -3.396568   1.000000
   34       -3.396568   1.000000
   35       -3.225363   1.000000
   36       -3.225363   1.000000
   37       -3.091503   1.000000
   38       -3.091503   1.000000
   39       -2.874179   1.000000
   40       -2.874179   1.000000
   41       -2.147701   1.000000
   42       -2.147701   1.000000
   43       -1.935448   1.000000
   44       -1.935448   1.000000
   45       -1.792786   1.000000
   46       -0.880226   1.000000
   47       -0.880226   1.000000
   48       -0.880226   1.000000
   49       -0.880226   1.000000
   50       -0.642453   1.000000
   51       -0.642453   1.000000
   52       -0.383908   1.000000
   53       -0.383908   1.000000
   54        0.397251   1.000000
   55        0.397251   1.000000
   56        0.574178   1.000000
   57        0.574178   1.000000
   58        0.774296   1.000000
   59        0.774296   1.000000
   60        1.087366   1.000000
   61        1.087366   1.000000
   62        1.160537   1.000000
   63        1.160537   1.000000
   64        1.279339   1.000000
   65        1.279339   1.000000
   66        1.377018   1.000000
   67        1.377018   1.000000
   68        1.455965   1.000000
   69        1.455965   1.000000
   70        2.029365   1.000000
   71        2.029365   1.000000
   72        2.136405   1.000000
   73        2.136405   1.000000
   74        2.174314   1.000000
   75        2.299278   1.000000
   76        2.299278   1.000000
   77        2.384540   1.000000
   78        2.384540   1.000000
   79        2.674969   1.000000
   80        2.674969   1.000000
   81        2.674969   1.000000
   82        2.674969   1.000000
   83        2.687163   1.000000
   84        2.687163   1.000000
   85        2.746650   1.000000
   86        2.746650   1.000000
   87        3.077461   1.000000
   88        3.108411   1.000000
   89        3.457981   1.000000
   90        3.457981   1.000000
   91        3.532685   1.000000
   92        3.532685   1.000000
   93        4.060345   1.000000
   94        4.161357   1.000000
   95        4.278707   1.000000
   96        4.278707   1.000000
   97        4.657355   1.000000
   98        4.657355   1.000000
   99        4.704955   1.000000
  100        4.704955   1.000000
  101        5.015216   1.000000
  102        5.015216   1.000000
  103        5.319154   1.000000
  104        5.319154   1.000000
  105        5.413006   1.000000
  106        5.413006   1.000000
  107        5.413006   1.000000
  108        5.413006   1.000000
  109        5.510642   1.000000
  110        5.510642   1.000000
  111        5.774710   1.000000
  112        5.911287   1.000000
  113        5.937364   1.000000
  114        5.937364   1.000000
  115        6.033163   1.000000
  116        6.033163   1.000000
  117        6.033163   1.000000
  118        6.033163   1.000000
  119        6.113429   1.000000
  120        6.205312   1.000000
  121        6.205312   1.000000
  122        6.205312   1.000000
  123        6.205312   1.000000
  124        6.360378   1.000000
  125        6.360378   1.000000
  126        8.059790   1.000000
  127        8.181098   1.000000
  128        8.420858   1.000000
  129       12.903018   0.000000
  130       13.035766   0.000000
  131       13.114559   0.000000
  132       13.114559   0.000000
  133       13.370221   0.000000
  134       13.370221   0.000000
  135       13.442025   0.000000
  136       13.683505   0.000000
  137       13.683505   0.000000
  138       14.009075   0.000000
  139       14.009075   0.000000
  140       14.070116   0.000000
  141       14.228841   0.000000
  142       14.414126   0.000000
  143       14.825373   0.000000
  144       15.636396   0.000000
  145       15.636396   0.000000
  146       16.351798   0.000000
  147       16.351798   0.000000
  148       16.413825   0.000000
  149       16.413825   0.000000
  150       16.455507   0.000000
  151       16.455507   0.000000
  152       16.455507   0.000000
  153       16.455507   0.000000
  154       16.462440   0.000000
  155       16.462440   0.000000
  156       16.462440   0.000000
  157       16.462440   0.000000
  158       16.525497   0.000000
  159       16.525497   0.000000
  160       16.733459   0.000000
  161       16.733459   0.000000
  162       16.752318   0.000000
  163       16.786085   0.000000
  164       16.786085   0.000000
  165       16.786085   0.000000
  166       16.786085   0.000000
  167       16.828750   0.000000
  168       16.828750   0.000000
  169       17.094775   0.000000
  170       17.094775   0.000000
  171       17.335808   0.000000
  172       17.335808   0.000000
  173       17.335808   0.000000
  174       17.335808   0.000000
  175       17.341572   0.000000
  176       17.341572   0.000000
  177       17.348577   0.000000
  178       17.348577   0.000000
  179       17.420354   0.000000
  180       17.828479   0.000000
  181       17.828479   0.000000
  182       17.828479   0.000000
  183       17.828479   0.000000
  184       18.085486   0.000000
  185       18.196146   0.000000
  186       18.196147   0.000000
  187       18.520075   0.000000
  188       18.520622   0.000000
  189       18.630472   0.000000
  190       18.632291   0.000000
  191       18.763876   0.000000
  192       18.780431   0.000000
 
  0.5000000E+00  0.0000000E+00  0.0000000E+00  0.3125000E-01
    1      -11.263761   1.000000
    2      -11.263761   1.000000
    3       -9.162352   1.000000
    4       -9.162352   1.000000
    5       -9.162352   1.000000
    6       -9.162352   1.000000
    7       -9.040641   1.000000
    8       -9.040641   1.000000
    9       -9.040641   1.000000
   10       -9.040641   1.000000
   11       -7.127458   1.000000
   12       -7.127458   1.000000
   13       -7.127458   1.000000
   14       -7.127458   1.000000
   15       -7.127458   1.000000
   16       -7.127458   1.000000
   17       -7.127458   1.000000
   18       -7.127458   1.000000
   19       -7.106801   1.000000
   20       -7.106801   1.000000
   21       -5.345039   1.000000
   22       -5.345039   1.000000
   23       -5.345039   1.000000
   24       -5.345039   1.000000
   25       -5.282023   1.000000
   26       -5.282023   1.000000
   27       -5.282023   1.000000
   28       -5.282023   1.000000
   29       -3.394565   1.000000
   30       -3.394565   1.000000
   31       -3.394565   1.000000
   32       -3.394565   1.000000
   33       -3.049673   1.000000
   34       -3.049673   1.000000
   35       -3.049673   1.000000
   36       -3.049673   1.000000
   37       -2.283587   1.000000
   38       -2.283587   1.000000
   39       -2.283587   1.000000
   40       -2.283587   1.000000
   41       -2.283587   1.000000
   42       -2.283587   1.000000
   43       -2.283587   1.000000
   44       -2.283587   1.000000
   45       -1.420394   1.000000
   46       -1.420394   1.000000
   47       -1.420394   1.000000
   48       -1.420394   1.000000
   49       -1.163355   1.000000
   50       -1.163355   1.000000
   51       -1.163355   1.000000
   52       -1.163355   1.000000
   53        0.192753   1.000000
   54        0.192753   1.000000
   55        0.378667   1.000000
   56        0.378667   1.000000
   57        0.378667   1.000000
   58        0.378667   1.000000
   59        0.642722   1.000000
   60        0.642722   1.000000
   61        0.642722   1.000000
   62        0.642722   1.000000
   63        1.703766   1.000000
   64        1.703766   1.000000
   65        1.703766   1.000000
   66        1.703766   1.000000
   67        2.040189   1.000000
   68        2.040189   1.000000
   69        2.040189   1.000000
   70        2.040189   1.000000
   71        2.393950   1.000000
   72        2.393950   1.000000
   73        2.393950   1.000000
   74        2.393950   1.000000
   75        2.477676   1.000000
   76        2.477676   1.000000
   77        2.477676   1.000000
   78        2.477676   1.000000
   79        3.390694   1.000000
   80        3.390694   1.000000
   81        3.390694   1.000000
   82        3.390694   1.000000
   83        3.392078   1.000000
   84        3.392078   1.000000
   85        3.392078   1.000000
   86        3.392078   1.000000
   87        3.447699   1.000000
   88        3.447699   1.000000
   89        3.511596   1.000000
   90        3.511596   1.000000
   91        3.606701   1.000000
   92        3.606701   1.000000
   93        3.606701   1.000000
   94        3.606701   1.000000
   95        3.765629   1.000000
   96        3.765629   1.000000
   97        3.765629   1.000000
   98        3.765629   1.000000
   99        4.226291   1.000000
  100        4.226291   1.000000
  101        4.226291   1.000000
  102        4.226291   1.000000
  103        4.226291   1.000000
  104        4.226291   1.000000
  105        4.226291   1.000000
  106        4.226291   1.000000
  107        5.778445   1.000000
  108        5.778445   1.000000
  109        5.778445   1.000000
  110        5.778445   1.000000
  111        6.105098   1.000000
  112        6.105098   1.000000
  113        6.105098   1.000000
  114        6.105098   1.000000
  115        6.105098   1.000000
  116        6.105098   1.000000
  117        6.105098   1.000000
  118        6.105098   1.000000
  119        6.141285   1.000000
  120        6.141285   1.000000
  121        6.141285   1.000000
  122        6.141285   1.000000
  123        7.028904   1.000000
  124        7.028904   1.000000
  125        7.198961   1.000000
  126        7.198961   1.000000
  127        7.302042   1.000000
  128        7.302042   1.000000
  129       12.856974   0.000000
  130       12.856974   0.000000
  131       13.800147   0.000000
  132       13.800147   0.000000
  133       14.536833   0.000000
  134       14.536833   0.000000
  135       14.536833   0.000000
  136       14.536833   0.000000
  137       14.788225   0.000000
  138       14.788225   0.000000
  139       14.788225   0.000000
  140       14.788225   0.000000
  141       15.088557   0.000000
  142       15.088557   0.000000
  143       15.088557   0.000000
  144       15.088557   0.000000
  145       15.318871   0.000000
  146       15.318871   0.000000
  147       15.416112   0.000000
  148       15.416112   0.000000
  149       15.416112   0.000000
  150       15.416112   0.000000
  151       15.768926   0.000000
  152       15.768926   0.000000
  153       16.236459   0.000000
  154       16.236459   0.000000
  155       16.236459   0.000000
  156       16.236459   0.000000
  157       16.310855   0.000000
  158       16.310855   0.000000
  159       16.576616   0.000000
  160       16.576616   0.000000
  161       16.576616   0.000000
  162       16.576616   0.000000
  163       16.576616   0.000000
  164       16.576616   0.000000
  165       16.576616   0.000000
  166       16.576616   0.000000
  167       17.081170   0.000000
  168       17.081170   0.000000
  169       17.081170   0.000000
  170       17.081170   0.000000
  171       17.284935   0.000000
  172       17.284935   0.000000
  173       17.284935   0.000000
  174       17.284935   0.000000
  175       17.284935   0.000000
  176       17.284935   0.000000
  177       17.284935   0.000000
  178       17.284935   0.000000
  179       17.674969   0.000000
  180       17.674969   0.000000
  181       17.674980   0.000000
  182       17.674990   0.000000
  183       18.005040   0.000000
  184       18.005040   0.000000
  185       18.005040   0.000000
  186       18.005040   0.000000
  187       18.005040   0.000000
  188       18.005040   0.000000
  189       18.008745   0.000000
  190       18.021370   0.000000
  191       18.161817   0.000000
  192       18.161818   0.000000
 
  0.2500000E+00  0.2500000E+00  0.0000000E+00  0.6250000E-01
    1      -11.531056   1.000000
    2      -10.467385   1.000000
    3      -10.467385   1.000000
    4       -9.424245   1.000000
    5       -9.296099   1.000000
    6       -9.296099   1.000000
    7       -8.382638   1.000000
    8       -8.382638   1.000000
    9       -8.289170   1.000000
   10       -8.289170   1.000000
   11       -8.289170   1.000000
   12       -8.289170   1.000000
   13       -7.401957   1.000000
   14       -7.401957   1.000000
   15       -7.373024   1.000000
   16       -7.373024   1.000000
   17       -6.404804   1.000000
   18       -6.404804   1.000000
   19       -6.404804   1.000000
   20       -6.404804   1.000000
   21       -6.215713   1.000000
   22       -6.215713   1.000000
   23       -5.593065   1.000000
   24       -5.390069   1.000000
   25       -5.390069   1.000000
   26       -4.606301   1.000000
   27       -4.606301   1.000000
   28       -4.373267   1.000000
   29       -4.373267   1.000000
   30       -3.642238   1.000000
   31       -3.642238   1.000000
   32       -3.579001   1.000000
   33       -3.579001   1.000000
   34       -3.287829   1.000000
   35       -3.053324   1.000000
   36       -2.505041   1.000000
   37       -2.505041   1.000000
   38       -2.338362   1.000000
   39       -2.338362   1.000000
   40       -2.309283   1.000000
   41       -2.309283   1.000000
   42       -1.753065   1.000000
   43       -1.753065   1.000000
   44       -1.696465   1.000000
   45       -1.696465   1.000000
   46       -1.684736   1.000000
   47       -1.684736   1.000000
   48       -1.684736   1.000000
   49       -1.684736   1.000000
   50       -1.147281   1.000000
   51        0.145917   1.000000
   52        0.145917   1.000000
   53        0.145917   1.000000
   54        0.145917   1.000000
   55        0.350339   1.000000
   56        0.350339   1.000000
   57        0.437130   1.000000
   58        0.455948   1.000000
   59        0.455948   1.000000
   60        0.738297   1.000000
   61        0.738297   1.000000
   62        1.221224   1.000000
   63        1.221224   1.000000
   64        1.471490   1.000000
   65        1.918861   1.000000
   66        1.918861   1.000000
   67        1.918861   1.000000
   68        1.918861   1.000000
   69        1.919953   1.000000
   70        1.919953   1.000000
   71        1.969705   1.000000
   72        1.969705   1.000000
   73        2.018608   1.000000
   74        2.018608   1.000000
   75        2.369257   1.000000
   76        2.369257   1.000000
   77        2.525437   1.000000
   78        2.595244   1.000000
   79        2.595244   1.000000
   80        2.605952   1.000000
   81        2.605952   1.000000
   82        2.783184   1.000000
   83        2.795753   1.000000
   84        2.795753   1.000000
   85        2.859149   1.000000
   86        2.859149   1.000000
   87        3.524393   1.000000
   88        3.524393   1.000000
   89        3.524393   1.000000
   90        3.524393   1.000000
   91        3.712374   1.000000
   92        3.799954   1.000000
   93        3.799954   1.000000
   94        4.149260   1.000000
   95        4.149260   1.000000
   96        4.414115   1.000000
   97        4.608699   1.000000
   98        4.608699   1.000000
   99        4.723887   1.000000
  100        4.723887   1.000000
  101        4.797970   1.000000
  102        4.797970   1.000000
  103        4.809509   1.000000
  104        4.809509   1.000000
  105        5.100878   1.000000
  106        5.100878   1.000000
  107        5.100878   1.000000
  108        5.100878   1.000000
  109        5.489225   1.000000
  110        5.489225   1.000000
  111        5.626844   1.000000
  112        5.626844   1.000000
  113        5.705961   1.000000
  114        5.705961   1.000000
  115        5.789782   1.000000
  116        5.789782   1.000000
  117        6.187196   1.000000
  118        6.187196   1.000000
  119        6.330737   1.000000
  120        6.330737   1.000000
  121        6.330737   1.000000
  122        6.330737   1.000000
  123        6.647121   1.000000
  124        6.647121   1.000000
  125        6.812424   1.000000
  126        7.241389   1.000000
  127        7.927396   1.000000
  128        8.352515   1.000000
  129       13.057485   0.000000
  130       13.468293   0.000000
  131       13.468293   0.000000
  132       13.518441   0.000000
  133       13.518441   0.000000
  134       13.584451   0.000000
  135       13.584451   0.000000
  136       13.996612   0.000000
  137       13.996612   0.000000
  138       14.444299   0.000000
  139       14.586796   0.000000
  140       14.674736   0.000000
  141       14.733668   0.000000
  142       14.733668   0.000000
  143       14.780068   0.000000
  144       14.989083   0.000000
  145       15.365315   0.000000
  146       15.365315   0.000000
  147       15.941054   0.000000
  148       15.941054   0.000000
  149       16.177279   0.000000
  150       16.177279   0.000000
  151       16.177279   0.000000
  152       16.177279   0.000000
  153       16.338665   0.000000
  154       16.468001   0.000000
  155       16.468001   0.000000
  156       16.468001   0.000000
  157       16.468001   0.000000
  158       16.528793   0.000000
  159       16.658204   0.000000
  160       16.658204   0.000000
  161       16.808070   0.000000
  162       16.808070   0.000000
  163       16.999059   0.000000
  164       16.999059   0.000000
  165       17.130281   0.000000
  166       17.130281   0.000000
  167       17.130281   0.000000
  168       17.130281   0.000000
  169       17.149996   0.000000
  170       17.149996   0.000000
  171       17.155012   0.000000
  172       17.155012   0.000000
  173       17.179379   0.000000
  174       17.179379   0.000000
  175       17.186359   0.000000
  176       17.186359   0.000000
  177       17.283271   0.000000
  178       17.283271   0.000000
  179       17.363907   0.000000
  180       17.363907   0.000000
  181       17.688835   0.000000
  182       17.688835   0.000000
  183       17.853553   0.000000
  184       17.853555   0.000000
  185       17.920908   0.000000
  186       17.920918   0.000000
  187       18.057160   0.000000
  188       18.057196   0.000000
  189       18.474382   0.000000
  190       18.506347   0.000000
  191       18.537326   0.000000
  192       18.541006   0.000000
 
  0.5000000E+00  0.2500000E+00  0.0000000E+00  0.6250000E-01
    1      -11.130680   1.000000
    2      -11.130680   1.000000
    3      -10.074067   1.000000
    4      -10.074067   1.000000
    5       -8.914801   1.000000
    6       -8.914801   1.000000
    7       -8.914801   1.000000
    8       -8.914801   1.000000
    9       -8.010384   1.000000
   10       -8.010384   1.000000
   11       -7.933606   1.000000
   12       -7.933606   1.000000
   13       -7.933606   1.000000
   14       -7.933606   1.000000
   15       -6.988462   1.000000
   16       -6.988462   1.000000
   17       -6.222092   1.000000
   18       -6.222092   1.000000
   19       -6.222092   1.000000
   20       -6.222092   1.000000
   21       -6.076751   1.000000
   22       -6.076751   1.000000
   23       -5.289944   1.000000
   24       -5.289944   1.000000
   25       -5.289944   1.000000
   26       -5.289944   1.000000
   27       -5.081177   1.000000
   28       -5.081177   1.000000
   29       -4.535074   1.000000
   30       -4.535074   1.000000
   31       -3.345988   1.000000
   32       -3.345988   1.000000
   33       -2.946463   1.000000
   34       -2.946463   1.000000
   35       -2.946463   1.000000
   36       -2.946463   1.000000
   37       -2.746108   1.000000
   38       -2.746108   1.000000
   39       -2.201640   1.000000
   40       -2.201640   1.000000
   41       -2.201640   1.000000
   42       -2.201640   1.000000
   43       -1.793735   1.000000
   44       -1.793735   1.000000
   45       -1.677652   1.000000
   46       -1.677652   1.000000
   47       -1.275710   1.000000
   48       -1.275710   1.000000
   49       -1.275710   1.000000
   50       -1.275710   1.000000
   51       -0.542768   1.000000
   52       -0.542768   1.000000
   53        0.138492   1.000000
   54        0.138492   1.000000
   55        0.139613   1.000000
   56        0.139613   1.000000
   57        0.698361   1.000000
   58        0.698361   1.000000
   59        1.276617   1.000000
   60        1.276617   1.000000
   61        1.288735   1.000000
   62        1.288735   1.000000
   63        1.288735   1.000000
   64        1.288735   1.000000
   65        1.334715   1.000000
   66        1.334715   1.000000
   67        1.334715   1.000000
   68        1.334715   1.000000
   69        1.443991   1.000000
   70        1.443991   1.000000
   71        2.053151   1.000000
   72        2.053151   1.000000
   73        2.384082   1.000000
   74        2.384082   1.000000
   75        2.741841   1.000000
   76        2.741841   1.000000
   77        2.948645   1.000000
   78        2.948645   1.000000
   79        3.171580   1.000000
   80        3.171580   1.000000
   81        3.176815   1.000000
   82        3.176815   1.000000
   83        3.333786   1.000000
   84        3.333786   1.000000
   85        3.479266   1.000000
   86        3.479266   1.000000
   87        3.479266   1.000000
   88        3.479266   1.000000
   89        3.577871   1.000000
   90        3.577871   1.000000
   91        3.659164   1.000000
   92        3.659164   1.000000
   93        3.792377   1.000000
   94        3.792377   1.000000
   95        3.792377   1.000000
   96        3.792377   1.000000
   97        4.355955   1.000000
   98        4.355955   1.000000
   99        4.355955   1.000000
  100        4.355955   1.000000
  101        4.369529   1.000000
  102        4.369529   1.000000
  103        4.770277   1.000000
  104        4.770277   1.000000
  105        4.880469   1.000000
  106        4.880469   1.000000
  107        4.880469   1.000000
  108        4.880469   1.000000
  109        5.355147   1.000000
  110        5.355147   1.000000
  111        5.355147   1.000000
  112        5.355147   1.000000
  113        6.029484   1.000000
  114        6.029484   1.000000
  115        6.029484   1.000000
  116        6.029484   1.000000
  117        6.064975   1.000000
  118        6.064975   1.000000
  119        6.234796   1.000000
  120        6.234796   1.000000
  121        6.234796   1.000000
  122        6.234796   1.000000
  123        6.861444   1.000000
  124        6.861444   1.000000
  125        7.028545   1.000000