       N       E                     dE             d eps       ncg     rms          rms(c)
DAV:   1     0.497413509610E+03    0.49741E+03   -0.11258E+05  6912   0.105E+03
DAV:   2    -0.551817072648E+03   -0.10492E+04   -0.99796E+03  9088   0.227E+02
DAV:   3    -0.594141251899E+03   -0.42324E+02   -0.42049E+02  9216   0.427E+01
DAV:   4    -0.594655393372E+03   -0.51414E+00   -0.51303E+00  9408   0.509E+00
DAV:   5    -0.594665221121E+03   -0.98277E-02   -0.98225E-02  8800   0.673E-01    0.244E+01
DAV:   6    -0.582867218912E+03    0.11798E+02   -0.79410E+00  8160   0.553E+00    0.136E+01
DAV:   7    -0.578873624448E+03    0.39936E+01   -0.92892E+00  8416   0.617E+00    0.188E+00
DAV:   8    -0.578925588896E+03   -0.51964E-01   -0.21405E-01  8704   0.913E-01    0.202E-01
DAV:   9    -0.578927724591E+03   -0.21357E-02   -0.36285E-03  9024   0.142E-01    0.765E-02
DAV:  10    -0.578928186764E+03   -0.46217E-03   -0.44674E-04  8512   0.545E-02    0.778E-03
DAV:  11    -0.578928189772E+03   -0.30074E-05   -0.11619E-05  9184   0.755E-03    0.207E-03
DAV:  12    -0.578928190067E+03   -0.29561E-06   -0.57526E-07  8960   0.176E-03    0.177E-04
DAV:  13    -0.578928190197E+03   -0.12967E-06   -0.91066E-09  6912   0.228E-04    0.606E-05
DAV:  14    -0.578928190203E+03   -0.55861E-08   -0.15159E-09  6176   0.910E-05
   1 F= -.57892819E+03 E0= -.57892819E+03  d E =-.349932E-13
 Linear response reoptimize wavefunctions
DAV:   1    -0.578928190203E+03    0.66393E-10   -0.35945E-10  5440   0.425E-05
 Linear response DOF=           2
 Linear response progress:
  Degree of freedom:   1/  2
       N       E                     dE             d eps       ncg     rms          rms(c)
RMM:   1    -0.140743082031E+00   -0.14074E+00    0.99319E-03 32110   0.712E-01
RMM:   2    -0.121058198193E+00    0.19685E-01   -0.71203E-03 19648   0.183E-01    0.162E-01
RMM:   3    -0.120960046160E+00    0.98152E-04   -0.73480E-04 20654   0.450E-02    0.839E-02
RMM:   4    -0.121164121872E+00   -0.20408E-03   -0.19727E-04 20730   0.241E-02    0.262E-02
RMM:   5    -0.121228141270E+00   -0.64019E-04   -0.17932E-05 20962   0.704E-03    0.627E-03
RMM:   6    -0.121211213194E+00    0.16928E-04   -0.13627E-05 21427   0.190E-03    0.134E-03
RMM:   7    -0.121202529819E+00    0.86834E-05   -0.13612E-05 21736   0.681E-04    0.366E-04
RMM:   8    -0.121202038030E+00    0.49179E-06   -0.11503E-05 22534   0.333E-04    0.902E-05
RMM:   9    -0.121202036147E+00    0.18831E-08   -0.14357E-05 23512   0.257E-04    0.393E-05
RMM:  10    -0.121202080878E+00   -0.44731E-07   -0.13824E-05 24208   0.248E-04    0.122E-05
RMM:  11    -0.121202098788E+00   -0.17911E-07   -0.13925E-05 24336   0.245E-04    0.490E-06
 Linear response progress:
  Degree of freedom:   2/  2
       N       E                     dE             d eps       ncg     rms          rms(c)
RMM:   1    -0.139852409549E+00   -0.13985E+00    0.92467E-03 22225   0.703E-01
RMM:   2    -0.121212562910E+00    0.18640E-01   -0.69255E-03 13701   0.177E-01    0.159E-01
RMM:   3    -0.121145342488E+00    0.67220E-04   -0.66524E-04 14347   0.432E-02    0.828E-02
RMM:   4    -0.121352700034E+00   -0.20736E-03   -0.18339E-04 14456   0.236E-02    0.252E-02
RMM:   5    -0.121412246653E+00   -0.59547E-04   -0.14598E-05 14661   0.663E-03    0.620E-03
RMM:   6    -0.121395250053E+00    0.16997E-04   -0.11764E-05 14896   0.190E-03    0.128E-03
RMM:   7    -0.121387483555E+00    0.77665E-05   -0.12627E-05 15177   0.647E-04    0.362E-04
RMM:   8    -0.121387177213E+00    0.30634E-06   -0.14270E-05 15747   0.343E-04    0.874E-05
RMM:   9    -0.121387270486E+00   -0.93273E-07   -0.17514E-05 16468   0.270E-04    0.385E-05
RMM:  10    -0.121387039441E+00    0.23104E-06   -0.14312E-05 16860   0.262E-04    0.114E-05
RMM:  11    -0.121386801592E+00    0.23785E-06   -0.11885E-05 17025   0.260E-04    0.465E-06
 Linear response finished
