 vasp.5.4.4.18Apr17-6-g9f103f2a35 (build Mar 12 2022 03:36:41) complex          
  
 executed on IFC19.0.3.199_CrayMP date 2022.12.02  11:32:15
 running on   32 total cores
 distrk:  each k-point on   32 cores,    1 groups
 distr:  one band on NCORES_PER_BAND=   1 cores,   32 groups


--------------------------------------------------------------------------------------------------------


 INCAR:
 POTCAR:   PAW_PBE C 08Apr2002                    

 ----------------------------------------------------------------------------- 
|                                                                             |
|           W    W    AA    RRRRR   N    N  II  N    N   GGGG   !!!           |
|           W    W   A  A   R    R  NN   N  II  NN   N  G    G  !!!           |
|           W    W  A    A  R    R  N N  N  II  N N  N  G       !!!           |
|           W WW W  AAAAAA  RRRRR   N  N N  II  N  N N  G  GGG   !            |
|           WW  WW  A    A  R   R   N   NN  II  N   NN  G    G                |
|           W    W  A    A  R    R  N    N  II  N    N   GGGG   !!!           |
|                                                                             |
|      For optimal performance we recommend to set                            |
|        NCORE= 4 - approx SQRT( number of cores)                             |
|      NCORE specifies how many cores store one orbital (NPAR=cpu/NCORE).     |
|      This setting can  greatly improve the performance of VASP for DFT.     |
|      The default,   NCORE=1            might be grossly inefficient         |
|      on modern multi-core architectures or massively parallel machines.     |
|      Do your own testing !!!!                                               |
|      Unfortunately you need to use the default for GW and RPA calculations. |
|      (for HF NCORE is supported but not extensively tested yet)             |
|                                                                             |
 ----------------------------------------------------------------------------- 

 POTCAR:   PAW_PBE C 08Apr2002                    
   VRHFIN =C: s2p2                                                              
   LEXCH  = PE                                                                  
   EATOM  =   147.1560 eV,   10.8157 Ry                                         
                                                                                
   TITEL  = PAW_PBE C 08Apr2002                                                 
   LULTRA =        F    use ultrasoft PP ?                                      
   IUNSCR =        0    unscreen: 0-lin 1-nonlin 2-no                           
   RPACOR =     .000    partial core radius                                     
   POMASS =   12.011; ZVAL   =    4.000    mass and valenz                      
   RCORE  =    1.500    outmost cutoff radius                                   
   RWIGS  =    1.630; RWIGS  =     .863    wigner-seitz radius (au A)           
   ENMAX  =  400.000; ENMIN  =  300.000 eV                                      
   ICORE  =        2    local potential                                         
   LCOR   =        T    correct aug charges                                     
   LPAW   =        T    paw PP                                                  
   EAUG   =  644.873                                                            
   DEXC   =     .000                                                            
   RMAX   =    2.266    core radius for proj-oper                               
   RAUG   =    1.300    factor for augmentation sphere                          
   RDEP   =    1.501    radius for radial grids                                 
   RDEPT  =    1.300    core radius for aug-charge                              
   QCUT   =   -5.516; QGAM   =   11.032    optimization parameters              
                                                                                
   Description                                                                  
     l     E      TYP  RCUT    TYP  RCUT                                        
     0   .000     23  1.200                                                     
     0   .000     23  1.200                                                     
     1   .000     23  1.500                                                     
     1  2.500     23  1.500                                                     
     2   .000      7  1.500                                                     
  local pseudopotential read in
  atomic valenz-charges read in
  non local Contribution for L=           0  read in
    real space projection operators read in
  non local Contribution for L=           0  read in
    real space projection operators read in
  non local Contribution for L=           1  read in
    real space projection operators read in
  non local Contribution for L=           1  read in
    real space projection operators read in
    PAW grid and wavefunctions read in
 
   number of l-projection  operators is LMAX  =           4
   number of lm-projection operators is LMMAX =           8
 

 ----------------------------------------------------------------------------- 
|                                                                             |
|  ADVICE TO THIS USER RUNNING 'VASP/VAMP'   (HEAR YOUR MASTER'S VOICE ...):  |
|                                                                             |
|      You have a (more or less) 'large supercell' and for larger cells       |
|      it might be more efficient to use real space projection operators      |
|      So try LREAL= Auto  in the INCAR   file.                               |
|      Mind: If you want to do a very accurate calculations keep the          |
|      reciprocal projection scheme          (i.e. LREAL=.FALSE.)             |
|                                                                             |
 ----------------------------------------------------------------------------- 

 PAW_PBE C 08Apr2002                    :
 energy of atom  1       EATOM= -147.1560
 kinetic energy error for atom=    0.0288 (will be added to EATOM!!)
 
 
 POSCAR: generated by phonopy                    
  positions in direct lattice
  No initial velocities read in
 exchange correlation table for  LEXCH =        8
   RHO(1)=    0.500       N(1)  =     2000
   RHO(2)=  100.500       N(2)  =     4000
 


--------------------------------------------------------------------------------------------------------


 ion  position               nearest neighbor table
   1  0.125  0.375  0.125-  11 1.59  25 1.59  43 1.59  57 1.59
   2  0.625  0.375  0.125-  12 1.59  26 1.59  44 1.59  58 1.59
   3  0.125  0.875  0.125-   9 1.59  27 1.59  41 1.59  59 1.59
   4  0.625  0.875  0.125-  10 1.59  28 1.59  42 1.59  60 1.59
   5  0.125  0.375  0.625-  15 1.59  29 1.59  47 1.59  61 1.59
   6  0.625  0.375  0.625-  16 1.59  30 1.59  48 1.59  62 1.59
   7  0.125  0.875  0.625-  13 1.59  31 1.59  45 1.59  63 1.59
   8  0.625  0.875  0.625-  14 1.59  32 1.59  46 1.59  64 1.59
   9  0.000  0.000  0.250-   3 1.59  17 1.59  36 1.59  50 1.59
  10  0.500  0.000  0.250-   4 1.59  18 1.59  35 1.59  49 1.59
  11  0.000  0.500  0.250-   1 1.59  19 1.59  34 1.59  52 1.59
  12  0.500  0.500  0.250-   2 1.59  20 1.59  33 1.59  51 1.59
  13  0.000  0.000  0.750-   7 1.59  21 1.59  40 1.59  54 1.59
  14  0.500  0.000  0.750-   8 1.59  22 1.59  39 1.59  53 1.59
  15  0.000  0.500  0.750-   5 1.59  23 1.59  38 1.59  56 1.59
  16  0.500  0.500  0.750-   6 1.59  24 1.59  37 1.59  55 1.59
  17  0.125  0.125  0.375-   9 1.59  29 1.59  45 1.59  57 1.59
  18  0.625  0.125  0.375-  10 1.59  30 1.59  46 1.59  58 1.59
  19  0.125  0.625  0.375-  11 1.59  31 1.59  47 1.59  59 1.59
  20  0.625  0.625  0.375-  12 1.59  32 1.59  48 1.59  60 1.59
  21  0.125  0.125  0.875-  13 1.59  25 1.59  41 1.59  61 1.59
  22  0.625  0.125  0.875-  14 1.59  26 1.59  42 1.59  62 1.59
  23  0.125  0.625  0.875-  15 1.59  27 1.59  43 1.59  63 1.59
  24  0.625  0.625  0.875-  16 1.59  28 1.59  44 1.59  64 1.59
  25  0.000  0.250  0.000-   1 1.59  21 1.59  38 1.59  50 1.59
  26  0.500  0.250  0.000-   2 1.59  22 1.59  37 1.59  49 1.59
  27  0.000  0.750  0.000-   3 1.59  23 1.59  40 1.59  52 1.59
  28  0.500  0.750  0.000-   4 1.59  24 1.59  39 1.59  51 1.59
  29  0.000  0.250  0.500-   5 1.59  17 1.59  34 1.59  54 1.59
  30  0.500  0.250  0.500-   6 1.59  18 1.59  33 1.59  53 1.59
  31  0.000  0.750  0.500-   7 1.59  19 1.59  36 1.59  56 1.59
  32  0.500  0.750  0.500-   8 1.59  20 1.59  35 1.59  55 1.59
  33  0.375  0.375  0.375-  12 1.59  30 1.59  47 1.59  57 1.59
  34  0.875  0.375  0.375-  11 1.59  29 1.59  48 1.59  58 1.59
  35  0.375  0.875  0.375-  10 1.59  32 1.59  45 1.59  59 1.59
  36  0.875  0.875  0.375-   9 1.59  31 1.59  46 1.59  60 1.59
  37  0.375  0.375  0.875-  16 1.59  26 1.59  43 1.59  61 1.59
  38  0.875  0.375  0.875-  15 1.59  25 1.59  44 1.59  62 1.59
  39  0.375  0.875  0.875-  14 1.59  28 1.59  41 1.59  63 1.59
  40  0.875  0.875  0.875-  13 1.59  27 1.59  42 1.59  64 1.59
  41  0.250  0.000  0.000-   3 1.59  21 1.59  39 1.59  49 1.59
  42  0.750  0.000  0.000-   4 1.59  22 1.59  40 1.59  50 1.59
  43  0.250  0.500  0.000-   1 1.59  23 1.59  37 1.59  51 1.59
  44  0.750  0.500  0.000-   2 1.59  24 1.59  38 1.59  52 1.59
  45  0.250  0.000  0.500-   7 1.59  17 1.59  35 1.59  53 1.59
  46  0.750  0.000  0.500-   8 1.59  18 1.59  36 1.59  54 1.59
  47  0.250  0.500  0.500-   5 1.59  19 1.59  33 1.59  55 1.59
  48  0.750  0.500  0.500-   6 1.59  20 1.59  34 1.59  56 1.59
  49  0.375  0.125  0.125-  10 1.59  26 1.59  41 1.59  57 1.59
  50  0.875  0.125  0.125-   9 1.59  25 1.59  42 1.59  58 1.59
  51  0.375  0.625  0.125-  12 1.59  28 1.59  43 1.59  59 1.59
  52  0.875  0.625  0.125-  11 1.59  27 1.59  44 1.59  60 1.59
  53  0.375  0.125  0.625-  14 1.59  30 1.59  45 1.59  61 1.59
  54  0.875  0.125  0.625-  13 1.59  29 1.59  46 1.59  62 1.59
  55  0.375  0.625  0.625-  16 1.59  32 1.59  47 1.59  63 1.59
  56  0.875  0.625  0.625-  15 1.59  31 1.59  48 1.59  64 1.59
  57  0.250  0.250  0.250-   1 1.59  17 1.59  33 1.59  49 1.59
  58  0.750  0.250  0.250-   2 1.59  18 1.59  34 1.59  50 1.59
  59  0.250  0.750  0.250-   3 1.59  19 1.59  35 1.59  51 1.59
  60  0.750  0.750  0.250-   4 1.59  20 1.59  36 1.59  52 1.59
  61  0.250  0.250  0.750-   5 1.59  21 1.59  37 1.59  53 1.59
  62  0.750  0.250  0.750-   6 1.59  22 1.59  38 1.59  54 1.59
  63  0.250  0.750  0.750-   7 1.59  23 1.59  39 1.59  55 1.59
  64  0.750  0.750  0.750-   8 1.59  24 1.59  40 1.59  56 1.59
 
  LATTYP: Found a simple tetragonal cell.
 ALAT       =     7.3922618463
 C/A-ratio  =     0.9712857671
  
  Lattice vectors:
  
 A1 = (   7.3922618463,   0.0000000000,   0.0000000000)
 A2 = (   0.0000000000,   7.3922618463,   0.0000000000)
 A3 = (   0.0000000000,   0.0000000000,   7.1799987179)


Analysis of symmetry for initial positions (statically):
=====================================================================
 Subroutine PRICEL returns following result:
 
  LATTYP: Found a body centered tetragonal cell.
 ALAT       =     2.6135592399
 C/A-ratio  =     1.3736055048
  
  Lattice vectors:
  
 A1 = (   1.8480654616,   0.0000000000,   1.7949996795)
 A2 = (  -1.8480654616,   0.0000000000,   1.7949996795)
 A3 = (   0.0000000000,  -1.8480654616,  -1.7949996795)
 
  32 primitive cells build up your supercell.
 

 Routine SETGRP: Setting up the symmetry group for a 
 simple tetragonal supercell.


 Subroutine GETGRP returns: Found 16 space group operations
 (whereof  8 operations were pure point group operations)
 out of a pool of 16 trial point group operations.


The static configuration has the point symmetry D_2d.
 The point group associated with its full space group is D_4h.


Analysis of symmetry for dynamics (positions and initial velocities):
=====================================================================
 Subroutine PRICEL returns following result:
 
  LATTYP: Found a body centered tetragonal cell.
 ALAT       =     2.6135592399
 C/A-ratio  =     1.3736055048
  
  Lattice vectors:
  
 A1 = (   1.8480654616,   0.0000000000,   1.7949996795)
 A2 = (  -1.8480654616,   0.0000000000,   1.7949996795)
 A3 = (   0.0000000000,  -1.8480654616,  -1.7949996795)
 
  32 primitive cells build up your supercell.
 

 Routine SETGRP: Setting up the symmetry group for a 
 simple tetragonal supercell.


 Subroutine GETGRP returns: Found 16 space group operations
 (whereof  8 operations were pure point group operations)
 out of a pool of 16 trial point group operations.


The dynamic configuration has the point symmetry D_2d.
 The point group associated with its full space group is D_4h.


 Subroutine INISYM returns: Found 16 space group operations
 (whereof  8 operations are pure point group operations),
 and found    32 'primitive' translations

 
 
 KPOINTS: kpt_density=3000                        

Automatic generation of k-mesh.
Space group operators:
 irot       det(A)        alpha          n_x          n_y          n_z        tau_x        tau_y        tau_z
    1     1.000000     0.000000     1.000000     0.000000     0.000000     0.000000     0.000000     0.000000
    2    -1.000000    90.000000     0.000000     0.000000    -1.000000     0.000000     0.000000     0.000000
    3     1.000000   180.000000     0.000000     0.000000     1.000000     0.000000     0.000000     0.000000
    4    -1.000000    90.000000     0.000000     0.000000     1.000000     0.000000     0.000000     0.000000
    5     1.000000   180.000000     0.000000     1.000000     0.000000     0.000000     0.000000     0.000000
    6    -1.000000   180.000000     0.707107     0.707107     0.000000     0.000000     0.000000     0.000000
    7     1.000000   180.000000     1.000000     0.000000     0.000000     0.000000     0.000000     0.000000
    8    -1.000000   180.000000     0.707107    -0.707107     0.000000     0.000000     0.000000     0.000000
    9    -1.000000     0.000000     1.000000     0.000000     0.000000    -0.125000    -0.125000     0.125000
   10     1.000000    90.000000     0.000000     0.000000    -1.000000    -0.125000    -0.125000     0.125000
   11    -1.000000   180.000000     0.000000     0.000000     1.000000    -0.125000    -0.125000     0.125000
   12     1.000000    90.000000     0.000000     0.000000     1.000000    -0.125000    -0.125000     0.125000
   13    -1.000000   180.000000     0.000000     1.000000     0.000000    -0.125000    -0.125000     0.125000
   14     1.000000   180.000000     0.707107     0.707107     0.000000    -0.125000    -0.125000     0.125000
   15    -1.000000   180.000000     1.000000     0.000000     0.000000    -0.125000    -0.125000     0.125000
   16     1.000000   180.000000     0.707107    -0.707107     0.000000    -0.125000    -0.125000     0.125000
 
 Subroutine IBZKPT returns following result:
 ===========================================
 
 Found     18 irreducible k-points:
 
 Following reciprocal coordinates:
            Coordinates               Weight
  0.000000  0.000000  0.000000      1.000000
  0.250000  0.000000  0.000000      4.000000
  0.500000  0.000000  0.000000      2.000000
  0.250000  0.250000  0.000000      4.000000
  0.500000  0.250000  0.000000      4.000000
  0.500000  0.500000  0.000000      1.000000
  0.000000  0.000000  0.250000      2.000000
  0.250000  0.000000  0.250000      8.000000
  0.500000  0.000000  0.250000      4.000000
  0.250000  0.250000  0.250000      8.000000
  0.500000  0.250000  0.250000      8.000000
  0.500000  0.500000  0.250000      2.000000
  0.000000  0.000000  0.500000      1.000000
  0.250000  0.000000  0.500000      4.000000
  0.500000  0.000000  0.500000      2.000000
  0.250000  0.250000  0.500000      4.000000
  0.500000  0.250000  0.500000      4.000000
  0.500000  0.500000  0.500000      1.000000
 
 Following cartesian coordinates:
            Coordinates               Weight
  0.000000  0.000000  0.000000      1.000000
  0.033819  0.000000  0.000000      4.000000
  0.067638  0.000000  0.000000      2.000000
  0.033819  0.033819  0.000000      4.000000
  0.067638  0.033819  0.000000      4.000000
  0.067638  0.067638  0.000000      1.000000
  0.000000  0.000000  0.034819      2.000000
  0.033819  0.000000  0.034819      8.000000
  0.067638  0.000000  0.034819      4.000000
  0.033819  0.033819  0.034819      8.000000
  0.067638  0.033819  0.034819      8.000000
  0.067638  0.067638  0.034819      2.000000
  0.000000  0.000000  0.069638      1.000000
  0.033819  0.000000  0.069638      4.000000
  0.067638  0.000000  0.069638      2.000000
  0.033819  0.033819  0.069638      4.000000
  0.067638  0.033819  0.069638      4.000000
  0.067638  0.067638  0.069638      1.000000
 
 
 Subroutine IBZKPT_HF returns following result:
 ==============================================
 
 Found     64 k-points in 1st BZ
 the following     64 k-points will be used (e.g. in the exchange kernel)
 Following reciprocal coordinates:   # in IRBZ
  0.000000  0.000000  0.000000    0.01562500   1 t-inv F
  0.250000  0.000000  0.000000    0.01562500   2 t-inv F
  0.500000  0.000000  0.000000    0.01562500   3 t-inv F
  0.250000  0.250000  0.000000    0.01562500   4 t-inv F
  0.500000  0.250000  0.000000    0.01562500   5 t-inv F
  0.500000  0.500000  0.000000    0.01562500   6 t-inv F
  0.000000  0.000000  0.250000    0.01562500   7 t-inv F
  0.250000  0.000000  0.250000    0.01562500   8 t-inv F
  0.500000  0.000000  0.250000    0.01562500   9 t-inv F
  0.250000  0.250000  0.250000    0.01562500  10 t-inv F
  0.500000  0.250000  0.250000    0.01562500  11 t-inv F
  0.500000  0.500000  0.250000    0.01562500  12 t-inv F
  0.000000  0.000000  0.500000    0.01562500  13 t-inv F
  0.250000  0.000000  0.500000    0.01562500  14 t-inv F
  0.500000  0.000000  0.500000    0.01562500  15 t-inv F
  0.250000  0.250000  0.500000    0.01562500  16 t-inv F
  0.500000  0.250000  0.500000    0.01562500  17 t-inv F
  0.500000  0.500000  0.500000    0.01562500  18 t-inv F
  0.000000 -0.250000  0.000000    0.01562500   2 t-inv F
 -0.250000  0.000000  0.000000    0.01562500   2 t-inv F
  0.000000  0.250000  0.000000    0.01562500   2 t-inv F
  0.000000 -0.500000  0.000000    0.01562500   3 t-inv F
  0.250000 -0.250000  0.000000    0.01562500   4 t-inv F
 -0.250000 -0.250000  0.000000    0.01562500   4 t-inv F
 -0.250000  0.250000  0.000000    0.01562500   4 t-inv F
  0.250000 -0.500000  0.000000    0.01562500   5 t-inv F
 -0.500000 -0.250000  0.000000    0.01562500   5 t-inv F
 -0.250000  0.500000  0.000000    0.01562500   5 t-inv F
  0.000000  0.000000 -0.250000    0.01562500   7 t-inv F
  0.000000 -0.250000 -0.250000    0.01562500   8 t-inv F
 -0.250000  0.000000  0.250000    0.01562500   8 t-inv F
  0.000000  0.250000 -0.250000    0.01562500   8 t-inv F
 -0.250000  0.000000 -0.250000    0.01562500   8 t-inv F
  0.000000 -0.250000  0.250000    0.01562500   8 t-inv F
  0.250000  0.000000 -0.250000    0.01562500   8 t-inv F
  0.000000  0.250000  0.250000    0.01562500   8 t-inv F
  0.000000 -0.500000 -0.250000    0.01562500   9 t-inv F
 -0.500000  0.000000 -0.250000    0.01562500   9 t-inv F
  0.000000 -0.500000  0.250000    0.01562500   9 t-inv F
  0.250000 -0.250000 -0.250000    0.01562500  10 t-inv F
 -0.250000 -0.250000  0.250000    0.01562500  10 t-inv F
 -0.250000  0.250000 -0.250000    0.01562500  10 t-inv F
 -0.250000 -0.250000 -0.250000    0.01562500  10 t-inv F
 -0.250000  0.250000  0.250000    0.01562500  10 t-inv F
  0.250000  0.250000 -0.250000    0.01562500  10 t-inv F
  0.250000 -0.250000  0.250000    0.01562500  10 t-inv F
  0.250000 -0.500000 -0.250000    0.01562500  11 t-inv F
 -0.500000 -0.250000  0.250000    0.01562500  11 t-inv F
 -0.250000  0.500000 -0.250000    0.01562500  11 t-inv F
 -0.500000  0.250000 -0.250000    0.01562500  11 t-inv F
 -0.250000 -0.500000  0.250000    0.01562500  11 t-inv F
  0.500000 -0.250000 -0.250000    0.01562500  11 t-inv F
  0.250000  0.500000  0.250000    0.01562500  11 t-inv F
  0.500000 -0.500000 -0.250000    0.01562500  12 t-inv F
  0.000000 -0.250000 -0.500000    0.01562500  14 t-inv F
 -0.250000  0.000000  0.500000    0.01562500  14 t-inv F
  0.000000  0.250000 -0.500000    0.01562500  14 t-inv F
  0.000000 -0.500000 -0.500000    0.01562500  15 t-inv F
  0.250000 -0.250000 -0.500000    0.01562500  16 t-inv F
 -0.250000 -0.250000  0.500000    0.01562500  16 t-inv F
 -0.250000  0.250000 -0.500000    0.01562500  16 t-inv F
  0.250000 -0.500000 -0.500000    0.01562500  17 t-inv F
 -0.500000 -0.250000  0.500000    0.01562500  17 t-inv F
 -0.250000  0.500000 -0.500000    0.01562500  17 t-inv F


--------------------------------------------------------------------------------------------------------




 Dimension of arrays:
   k-points           NKPTS =     18   k-points in BZ     NKDIM =     18   number of bands    NBANDS=    192
   number of dos      NEDOS =    301   number of ions     NIONS =     64
   non local maximal  LDIM  =      4   non local SUM 2l+1 LMDIM =      8
   total plane-waves  NPLWV = 110592
   max r-space proj   IRMAX =      1   max aug-charges    IRDMAX=  26807
   dimension x,y,z NGX =    48 NGY =   48 NGZ =   48
   dimension x,y,z NGXF=    96 NGYF=   96 NGZF=   96
   support grid    NGXF=   192 NGYF=  192 NGZF=  192
   ions per type =              64
   NGX,Y,Z   is equivalent  to a cutoff of  10.79, 10.79, 11.11 a.u.
   NGXF,Y,Z  is equivalent  to a cutoff of  21.59, 21.59, 22.23 a.u.

 SYSTEM =  unknown system                          
 POSCAR =  generated by phonopy                    

 Startparameter for this run:
   NWRITE =      2    write-flag & timer
   PREC   = accura    normal or accurate (medium, high low for compatibility)
   ISTART =      0    job   : 0-new  1-cont  2-samecut
   ICHARG =      2    charge: 1-file 2-atom 10-const
   ISPIN  =      1    spin polarized calculation?
   LNONCOLLINEAR =      F non collinear calculations
   LSORBIT =      F    spin-orbit coupling
   INIWAV =      1    electr: 0-lowe 1-rand  2-diag
   LASPH  =      F    aspherical Exc in radial PAW
   METAGGA=      F    non-selfconsistent MetaGGA calc.

 Electronic Relaxation 1
   ENCUT  =  400.0 eV  29.40 Ry    5.42 a.u.  12.05 12.05 11.71*2*pi/ulx,y,z
   ENINI  =  400.0     initial cutoff
   ENAUG  =  644.9 eV  augmentation charge cutoff
   NELM   =     60;   NELMIN=  2; NELMDL= -5     # of ELM steps 
   EDIFF  = 0.1E-07   stopping-criterion for ELM
   LREAL  =      F    real-space projection
   NLSPLINE    = F    spline interpolate recip. space projectors
   LCOMPAT=      F    compatible to vasp.4.4
   GGA_COMPAT  = T    GGA compatible to vasp.4.4-vasp.4.6
   LMAXPAW     = -100 max onsite density
   LMAXMIX     =    2 max onsite mixed and CHGCAR
   VOSKOWN=      0    Vosko Wilk Nusair interpolation
   ROPT   =    0.00000
 Ionic relaxation
   EDIFFG = 0.1E-06   stopping-criterion for IOM
   NSW    =      1    number of steps for IOM
   NBLOCK =      1;   KBLOCK =      1    inner block; outer block 
   IBRION =      8    ionic relax: 0-MD 1-quasi-New 2-CG
   NFREE  =      0    steps in history (QN), initial steepest desc. (CG)
   ISIF   =      2    stress and relaxation
   IWAVPR =     11    prediction:  0-non 1-charg 2-wave 3-comb
   ISYM   =      2    0-nonsym 1-usesym 2-fastsym
   LCORR  =      T    Harris-Foulkes like correction to forces

   POTIM  = 0.5000    time-step for ionic-motion
   TEIN   =    0.0    initial temperature
   TEBEG  =    0.0;   TEEND  =   0.0 temperature during run
   SMASS  =  -3.00    Nose mass-parameter (am)
   estimated Nose-frequenzy (Omega)   =  0.10E-29 period in steps =****** mass=  -0.125E-26a.u.
   SCALEE = 1.0000    scale energy and forces
   NPACO  =    256;   APACO  = 16.0  distance and # of slots for P.C.
   PSTRESS=    0.0 pullay stress

  Mass of Ions in am
   POMASS =  12.01
  Ionic Valenz
   ZVAL   =   4.00
  Atomic Wigner-Seitz radii
   RWIGS  =  -1.00
  virtual crystal weights 
   VCA    =   1.00
   NELECT =     256.0000    total number of electrons
   NUPDOWN=      -1.0000    fix difference up-down

 DOS related values:
   EMIN   =  10.00;   EMAX   =-10.00  energy-range for DOS
   EFERMI =   0.00
   ISMEAR =     0;   SIGMA  =   0.06  broadening in eV -4-tet -1-fermi 0-gaus

 Electronic relaxation 2 (details)
   IALGO  =     38    algorithm
   LDIAG  =      T    sub-space diagonalisation (order eigenvalues)
   LSUBROT=      F    optimize rotation matrix (better conditioning)
   TURBO    =      0    0=normal 1=particle mesh
   IRESTART =      0    0=no restart 2=restart with 2 vectors
   NREBOOT  =      0    no. of reboots
   NMIN     =      0    reboot dimension
   EREF     =   0.00    reference energy to select bands
   IMIX   =      4    mixing-type and parameters
     AMIX     =   0.40;   BMIX     =  1.00
     AMIX_MAG =   1.60;   BMIX_MAG =  1.00
     AMIN     =   0.10
     WC   =   100.;   INIMIX=   1;  MIXPRE=   1;  MAXMIX= -45

 Intra band minimization:
   WEIMIN = 0.0010     energy-eigenvalue tresh-hold
   EBREAK =  0.13E-10  absolut break condition
   DEPER  =   0.30     relativ break condition  

   TIME   =   0.40     timestep for ELM

  volume/ion in A,a.u.               =       6.13        41.37
  Fermi-wavevector in a.u.,A,eV,Ry     =   1.419913  2.683247 27.431434  2.016154
  Thomas-Fermi vector in A             =   2.540884
 
 Write flags
   LWAVE        =      F    write WAVECAR
   LDOWNSAMPLE  =      F    k-point downsampling of WAVECAR
   LCHARG       =      F    write CHGCAR
   LVTOT        =      F    write LOCPOT, total local potential
   LVHAR        =      F    write LOCPOT, Hartree potential only
   LELF         =      F    write electronic localiz. function (ELF)
   LORBIT       =      0    0 simple, 1 ext, 2 COOP (PROOUT), +10 PAW based schemes


 Dipole corrections
   LMONO  =      F    monopole corrections only (constant potential shift)
   LDIPOL =      F    correct potential (dipole corrections)
   IDIPOL =      0    1-x, 2-y, 3-z, 4-all directions 
   EPSILON=  1.0000000 bulk dielectric constant

 Exchange correlation treatment:
   GGA     =    --    GGA type
   LEXCH   =     8    internal setting for exchange type
   VOSKOWN=      0    Vosko Wilk Nusair interpolation
   LHFCALC =     F    Hartree Fock is set to
   LHFONE  =     F    Hartree Fock one center treatment
   AEXX    =    0.0000 exact exchange contribution

 Linear response parameters
   LEPSILON=     F    determine dielectric tensor
   LRPA    =     F    only Hartree local field effects (RPA)
   LNABLA  =     F    use nabla operator in PAW spheres
   LVEL    =     F    velocity operator in full k-point grid
   LINTERFAST=   F  fast interpolation
   KINTER  =     0    interpolate to denser k-point grid
   CSHIFT  =0.1000    complex shift for real part using Kramers Kronig
   OMEGAMAX=  -1.0    maximum frequency
   DEG_THRESHOLD= 0.2000000E-02 threshold for treating states as degnerate
   RTIME   =   -0.100 relaxation time in fs
  (WPLASMAI=    0.000 imaginary part of plasma frequency in eV, 0.658/RTIME)
   DFIELD  = 0.0000000 0.0000000 0.0000000 field for delta impulse in time
 
 Orbital magnetization related:
   ORBITALMAG=     F  switch on orbital magnetization
   LCHIMAG   =     F  perturbation theory with respect to B field
   DQ        =  0.001000  dq finite difference perturbation B field
   LLRAUG    =     F  two centre corrections for induced B field



--------------------------------------------------------------------------------------------------------


 linear response using symmetry
 charge density and potential will be updated during run
 non-spin polarized calculation
 Variant of blocked Davidson
 Davidson routine will perform the subspace rotation
 perform sub-space diagonalisation
    after iterative eigenvector-optimisation
 modified Broyden-mixing scheme, WC =      100.0
 initial mixing is a Kerker type mixing with AMIX =  0.4000 and BMIX =      1.0000
 Hartree-type preconditioning will be used
 using additional bands           64
 reciprocal scheme for non local part
 calculate Harris-corrections to forces 
   (improved forces if not selfconsistent)
 use gradient corrections 
 use of overlap-Matrix (Vanderbilt PP)
 Gauss-broadening in eV      SIGMA  =   0.06


--------------------------------------------------------------------------------------------------------


  energy-cutoff  :      400.00
  volume of cell :      392.35
      direct lattice vectors                 reciprocal lattice vectors
     7.392261846  0.000000000  0.000000000     0.135276593  0.000000000  0.000000000
     0.000000000  7.392261846  0.000000000     0.000000000  0.135276593  0.000000000
     0.000000000  0.000000000  7.179998718     0.000000000  0.000000000  0.139275791

  length of vectors
     7.392261846  7.392261846  7.179998718     0.135276593  0.135276593  0.139275791


 
 k-points in units of 2pi/SCALE and weight: kpt_density=3000                        
   0.00000000  0.00000000  0.00000000       0.016
   0.03381915  0.00000000  0.00000000       0.062
   0.06763830  0.00000000  0.00000000       0.031
   0.03381915  0.03381915  0.00000000       0.062
   0.06763830  0.03381915  0.00000000       0.062
   0.06763830  0.06763830  0.00000000       0.016
   0.00000000  0.00000000  0.03481895       0.031
   0.03381915  0.00000000  0.03481895       0.125
   0.06763830  0.00000000  0.03481895       0.062
   0.03381915  0.03381915  0.03481895       0.125
   0.06763830  0.03381915  0.03481895       0.125
   0.06763830  0.06763830  0.03481895       0.031
   0.00000000  0.00000000  0.06963790       0.016
   0.03381915  0.00000000  0.06963790       0.062
   0.06763830  0.00000000  0.06963790       0.031
   0.03381915  0.03381915  0.06963790       0.062
   0.06763830  0.03381915  0.06963790       0.062
   0.06763830  0.06763830  0.06963790       0.016
 
 k-points in reciprocal lattice and weights: kpt_density=3000                        
   0.00000000  0.00000000  0.00000000       0.016
   0.25000000  0.00000000  0.00000000       0.062
   0.50000000  0.00000000  0.00000000       0.031
   0.25000000  0.25000000  0.00000000       0.062
   0.50000000  0.25000000  0.00000000       0.062
   0.50000000  0.50000000  0.00000000       0.016
   0.00000000  0.00000000  0.25000000       0.031
   0.25000000  0.00000000  0.25000000       0.125
   0.50000000  0.00000000  0.25000000       0.062
   0.25000000  0.25000000  0.25000000       0.125
   0.50000000  0.25000000  0.25000000       0.125
   0.50000000  0.50000000  0.25000000       0.031
   0.00000000  0.00000000  0.50000000       0.016
   0.25000000  0.00000000  0.50000000       0.062
   0.50000000  0.00000000  0.50000000       0.031
   0.25000000  0.25000000  0.50000000       0.062
   0.50000000  0.25000000  0.50000000       0.062
   0.50000000  0.50000000  0.50000000       0.016
 
 position of ions in fractional coordinates (direct lattice) 
   0.12500000  0.37500000  0.12500000
   0.62500000  0.37500000  0.12500000
   0.12500000  0.87500000  0.12500000
   0.62500000  0.87500000  0.12500000
   0.12500000  0.37500000  0.62500000
   0.62500000  0.37500000  0.62500000
   0.12500000  0.87500000  0.62500000
   0.62500000  0.87500000  0.62500000
   0.00000000  0.00000000  0.25000000
   0.50000000  0.00000000  0.25000000
   0.00000000  0.50000000  0.25000000
   0.50000000  0.50000000  0.25000000
   0.00000000  0.00000000  0.75000000
   0.50000000  0.00000000  0.75000000
   0.00000000  0.50000000  0.75000000
   0.50000000  0.50000000  0.75000000
   0.12500000  0.12500000  0.37500000
   0.62500000  0.12500000  0.37500000
   0.12500000  0.62500000  0.37500000
   0.62500000  0.62500000  0.37500000
   0.12500000  0.12500000  0.87500000
   0.62500000  0.12500000  0.87500000
   0.12500000  0.62500000  0.87500000
   0.62500000  0.62500000  0.87500000
   0.00000000  0.25000000  0.00000000
   0.50000000  0.25000000  0.00000000
   0.00000000  0.75000000  0.00000000
   0.50000000  0.75000000  0.00000000
   0.00000000  0.25000000  0.50000000
   0.50000000  0.25000000  0.50000000
   0.00000000  0.75000000  0.50000000
   0.50000000  0.75000000  0.50000000
   0.37500000  0.37500000  0.37500000
   0.87500000  0.37500000  0.37500000
   0.37500000  0.87500000  0.37500000
   0.87500000  0.87500000  0.37500000
   0.37500000  0.37500000  0.87500000
   0.87500000  0.37500000  0.87500000
   0.37500000  0.87500000  0.87500000
   0.87500000  0.87500000  0.87500000
   0.25000000  0.00000000  0.00000000
   0.75000000  0.00000000  0.00000000
   0.25000000  0.50000000  0.00000000
   0.75000000  0.50000000  0.00000000
   0.25000000  0.00000000  0.50000000
   0.75000000  0.00000000  0.50000000
   0.25000000  0.50000000  0.50000000
   0.75000000  0.50000000  0.50000000
   0.37500000  0.12500000  0.12500000
   0.87500000  0.12500000  0.12500000
   0.37500000  0.62500000  0.12500000
   0.87500000  0.62500000  0.12500000
   0.37500000  0.12500000  0.62500000
   0.87500000  0.12500000  0.62500000
   0.37500000  0.62500000  0.62500000
   0.87500000  0.62500000  0.62500000
   0.25000000  0.25000000  0.25000000
   0.75000000  0.25000000  0.25000000
   0.25000000  0.75000000  0.25000000
   0.75000000  0.75000000  0.25000000
   0.25000000  0.25000000  0.75000000
   0.75000000  0.25000000  0.75000000
   0.25000000  0.75000000  0.75000000
   0.75000000  0.75000000  0.75000000
 
 position of ions in cartesian coordinates  (Angst):
   0.92403273  2.77209819  0.89749984
   4.62016365  2.77209819  0.89749984
   0.92403273  6.46822912  0.89749984
   4.62016365  6.46822912  0.89749984
   0.92403273  2.77209819  4.48749920
   4.62016365  2.77209819  4.48749920
   0.92403273  6.46822912  4.48749920
   4.62016365  6.46822912  4.48749920
   0.00000000  0.00000000  1.79499968
   3.69613092  0.00000000  1.79499968
   0.00000000  3.69613092  1.79499968
   3.69613092  3.69613092  1.79499968
   0.00000000  0.00000000  5.38499904
   3.69613092  0.00000000  5.38499904
   0.00000000  3.69613092  5.38499904
   3.69613092  3.69613092  5.38499904
   0.92403273  0.92403273  2.69249952
   4.62016365  0.92403273  2.69249952
   0.92403273  4.62016365  2.69249952
   4.62016365  4.62016365  2.69249952
   0.92403273  0.92403273  6.28249888
   4.62016365  0.92403273  6.28249888
   0.92403273  4.62016365  6.28249888
   4.62016365  4.62016365  6.28249888
   0.00000000  1.84806546  0.00000000
   3.69613092  1.84806546  0.00000000
   0.00000000  5.54419638  0.00000000
   3.69613092  5.54419638  0.00000000
   0.00000000  1.84806546  3.58999936
   3.69613092  1.84806546  3.58999936
   0.00000000  5.54419638  3.58999936
   3.69613092  5.54419638  3.58999936
   2.77209819  2.77209819  2.69249952
   6.46822912  2.77209819  2.69249952
   2.77209819  6.46822912  2.69249952
   6.46822912  6.46822912  2.69249952
   2.77209819  2.77209819  6.28249888
   6.46822912  2.77209819  6.28249888
   2.77209819  6.46822912  6.28249888
   6.46822912  6.46822912  6.28249888
   1.84806546  0.00000000  0.00000000
   5.54419638  0.00000000  0.00000000
   1.84806546  3.69613092  0.00000000
   5.54419638  3.69613092  0.00000000
   1.84806546  0.00000000  3.58999936
   5.54419638  0.00000000  3.58999936
   1.84806546  3.69613092  3.58999936
   5.54419638  3.69613092  3.58999936
   2.77209819  0.92403273  0.89749984
   6.46822912  0.92403273  0.89749984
   2.77209819  4.62016365  0.89749984
   6.46822912  4.62016365  0.89749984
   2.77209819  0.92403273  4.48749920
   6.46822912  0.92403273  4.48749920
   2.77209819  4.62016365  4.48749920
   6.46822912  4.62016365  4.48749920
   1.84806546  1.84806546  1.79499968
   5.54419638  1.84806546  1.79499968
   1.84806546  5.54419638  1.79499968
   5.54419638  5.54419638  1.79499968
   1.84806546  1.84806546  5.38499904
   5.54419638  1.84806546  5.38499904
   1.84806546  5.54419638  5.38499904
   5.54419638  5.54419638  5.38499904
 


--------------------------------------------------------------------------------------------------------


 k-point  1 :   0.0000 0.0000 0.0000  plane waves:    7087
 k-point  2 :   0.2500 0.0000 0.0000  plane waves:    7136
 k-point  3 :   0.5000 0.0000 0.0000  plane waves:    7140
 k-point  4 :   0.2500 0.2500 0.0000  plane waves:    7129
 k-point  5 :   0.5000 0.2500 0.0000  plane waves:    7160
 k-point  6 :   0.5000 0.5000 0.0000  plane waves:    7132
 k-point  7 :   0.0000 0.0000 0.2500  plane waves:    7095
 k-point  8 :   0.2500 0.0000 0.2500  plane waves:    7125
 k-point  9 :   0.5000 0.0000 0.2500  plane waves:    7120
 k-point 10 :   0.2500 0.2500 0.2500  plane waves:    7134
 k-point 11 :   0.5000 0.2500 0.2500  plane waves:    7128
 k-point 12 :   0.5000 0.5000 0.2500  plane waves:    7140
 k-point 13 :   0.0000 0.0000 0.5000  plane waves:    7136
 k-point 14 :   0.2500 0.0000 0.5000  plane waves:    7120
 k-point 15 :   0.5000 0.0000 0.5000  plane waves:    7148
 k-point 16 :   0.2500 0.2500 0.5000  plane waves:    7148
 k-point 17 :   0.5000 0.2500 0.5000  plane waves:    7108
 k-point 18 :   0.5000 0.5000 0.5000  plane waves:    7136

 maximum and minimum number of plane-waves per node :      7160     7087

 maximum number of plane-waves:      7160
 maximum index in each direction: 
   IXMAX=   12   IYMAX=   12   IZMAX=   11
   IXMIN=  -12   IYMIN=  -12   IZMIN=  -12


 serial   3D FFT for wavefunctions
 parallel 3D FFT for charge:
    minimum data exchange during FFTs selected (reduces bandwidth)


 total amount of memory used by VASP MPI-rank0    69407. kBytes
=======================================================================

   base      :      30000. kBytes
   nonl-proj :      15597. kBytes
   fftplans  :       4537. kBytes
   grid      :       5806. kBytes
   one-center:        196. kBytes
   wavefun   :      13271. kBytes
 
     INWAV:  cpu time    0.0004: real time    0.0006
 Broyden mixing: mesh for mixing (old mesh)
   NGX = 25   NGY = 25   NGZ = 23
  (NGX  = 96   NGY  = 96   NGZ  = 96)
  gives a total of  14375 points

 initial charge density was supplied:
 charge density of overlapping atoms calculated
 number of electron     256.0000000 magnetization 
 keeping initial charge density in first step


--------------------------------------------------------------------------------------------------------


 Maximum index for augmentation-charges         1065 (set IRDMAX)


--------------------------------------------------------------------------------------------------------


 First call to EWALD:  gamma=   0.242
 Maximum number of real-space cells 3x 3x 3
 Maximum number of reciprocal cells 3x 3x 3

    FEWALD:  cpu time    0.0084: real time    0.0084


--------------------------------------- Iteration      1(   1)  ---------------------------------------


    POTLOK:  cpu time    0.0630: real time    0.0915
    SETDIJ:  cpu time    0.0395: real time    0.0397
     EDDAV:  cpu time   11.3460: real time   11.3601
       DOS:  cpu time    0.0052: real time    0.0052
    --------------------------------------------
      LOOP:  cpu time   11.4539: real time   11.4966

 eigenvalue-minimisations  :  6912
 total energy-change (2. order) : 0.4974135E+03  (-0.1125773E+05)
 number of electron     256.0000000 magnetization 
 augmentation part      256.0000000 magnetization 

 Free energy of the ion-electron system (eV)
  ---------------------------------------------------
  alpha Z        PSCENC =       850.61452006
  Ewald energy   TEWEN  =    -10851.34196882
  -Hartree energ DENC   =      -618.97226407
  -exchange      EXHF   =         0.00000000
  -V(xc)+E(xc)   XCENC  =       899.62173600
  PAW double counting   =      2421.21235816    -2494.84305711
  entropy T*S    EENTRO =        -0.00915032
  eigenvalues    EBANDS =       874.98900793
  atomic energy  EATOM  =      9416.14232778
  Solvation  Ediel_sol  =         0.00000000
  ---------------------------------------------------
  free energy    TOTEN  =       497.41350961 eV

  energy without entropy =      497.42265993  energy(sigma->0) =      497.41808477


--------------------------------------------------------------------------------------------------------




--------------------------------------- Iteration      1(   2)  ---------------------------------------


     EDDAV:  cpu time   14.3309: real time   14.3320
       DOS:  cpu time    0.0025: real time    0.0025
    --------------------------------------------
      LOOP:  cpu time   14.3334: real time   14.3345

 eigenvalue-minimisations  :  9088
 total energy-change (2. order) :-0.1049231E+04  (-0.9979551E+03)
 number of electron     256.0000000 magnetization 
 augmentation part      256.0000000 magnetization 

 Free energy of the ion-electron system (eV)
  ---------------------------------------------------
  alpha Z        PSCENC =       850.61452006
  Ewald energy   TEWEN  =    -10851.34196882
  -Hartree energ DENC   =      -618.97226407
  -exchange      EXHF   =         0.00000000
  -V(xc)+E(xc)   XCENC  =       899.62173600
  PAW double counting   =      2421.21235816    -2494.84305711
  entropy T*S    EENTRO =        -0.00000000
  eigenvalues    EBANDS =      -174.25072465
  atomic energy  EATOM  =      9416.14232778
  Solvation  Ediel_sol  =         0.00000000
  ---------------------------------------------------
  free energy    TOTEN  =      -551.81707265 eV

  energy without entropy =     -551.81707265  energy(sigma->0) =     -551.81707265


--------------------------------------------------------------------------------------------------------




--------------------------------------- Iteration      1(   3)  ---------------------------------------


     EDDAV:  cpu time   14.6900: real time   14.6913
       DOS:  cpu time    0.0028: real time    0.0028
    --------------------------------------------
      LOOP:  cpu time   14.6928: real time   14.6941

 eigenvalue-minimisations  :  9216
 total energy-change (2. order) :-0.4232418E+02  (-0.4204881E+02)
 number of electron     256.0000000 magnetization 
 augmentation part      256.0000000 magnetization 

 Free energy of the ion-electron system (eV)
  ---------------------------------------------------
  alpha Z        PSCENC =       850.61452006
  Ewald energy   TEWEN  =    -10851.34196882
  -Hartree energ DENC   =      -618.97226407
  -exchange      EXHF   =         0.00000000
  -V(xc)+E(xc)   XCENC  =       899.62173600
  PAW double counting   =      2421.21235816    -2494.84305711
  entropy T*S    EENTRO =        -0.00000000
  eigenvalues    EBANDS =      -216.57490390
  atomic energy  EATOM  =      9416.14232778
  Solvation  Ediel_sol  =         0.00000000
  ---------------------------------------------------
  free energy    TOTEN  =      -594.14125190 eV

  energy without entropy =     -594.14125190  energy(sigma->0) =     -594.14125190


--------------------------------------------------------------------------------------------------------




--------------------------------------- Iteration      1(   4)  ---------------------------------------


     EDDAV:  cpu time   14.8818: real time   14.8832
       DOS:  cpu time    0.0024: real time    0.0024
    --------------------------------------------
      LOOP:  cpu time   14.8842: real time   14.8856

 eigenvalue-minimisations  :  9408
 total energy-change (2. order) :-0.5141415E+00  (-0.5130301E+00)
 number of electron     256.0000000 magnetization 
 augmentation part      256.0000000 magnetization 

 Free energy of the ion-electron system (eV)
  ---------------------------------------------------
  alpha Z        PSCENC =       850.61452006
  Ewald energy   TEWEN  =    -10851.34196882
  -Hartree energ DENC   =      -618.97226407
  -exchange      EXHF   =         0.00000000
  -V(xc)+E(xc)   XCENC  =       899.62173600
  PAW double counting   =      2421.21235816    -2494.84305711
  entropy T*S    EENTRO =        -0.00000000
  eigenvalues    EBANDS =      -217.08904537
  atomic energy  EATOM  =      9416.14232778
  Solvation  Ediel_sol  =         0.00000000
  ---------------------------------------------------
  free energy    TOTEN  =      -594.65539337 eV

  energy without entropy =     -594.65539337  energy(sigma->0) =     -594.65539337


--------------------------------------------------------------------------------------------------------




--------------------------------------- Iteration      1(   5)  ---------------------------------------


     EDDAV:  cpu time   13.9541: real time   13.9552
       DOS:  cpu time    0.0025: real time    0.0025
    CHARGE:  cpu time    0.4458: real time    0.4460
    MIXING:  cpu time    0.0033: real time    0.0033
    --------------------------------------------
      LOOP:  cpu time   14.4056: real time   14.4069

 eigenvalue-minimisations  :  8800
 total energy-change (2. order) :-0.9827749E-02  (-0.9822528E-02)
 number of electron     256.0000001 magnetization 
 augmentation part        5.8129325 magnetization 

 Broyden mixing:
  rms(total) = 0.24429E+01    rms(broyden)= 0.24426E+01
  rms(prec ) = 0.35180E+01
  weight for this iteration     100.00

 Free energy of the ion-electron system (eV)
  ---------------------------------------------------
  alpha Z        PSCENC =       850.61452006
  Ewald energy   TEWEN  =    -10851.34196882
  -Hartree energ DENC   =      -618.97226407
  -exchange      EXHF   =         0.00000000
  -V(xc)+E(xc)   XCENC  =       899.62173600
  PAW double counting   =      2421.21235816    -2494.84305711
  entropy T*S    EENTRO =        -0.00000000
  eigenvalues    EBANDS =      -217.09887312
  atomic energy  EATOM  =      9416.14232778
  Solvation  Ediel_sol  =         0.00000000
  ---------------------------------------------------
  free energy    TOTEN  =      -594.66522112 eV

  energy without entropy =     -594.66522112  energy(sigma->0) =     -594.66522112


--------------------------------------------------------------------------------------------------------




--------------------------------------- Iteration      1(   6)  ---------------------------------------


    POTLOK:  cpu time    0.0563: real time    0.0566
    SETDIJ:  cpu time    0.0382: real time    0.0382
     EDDAV:  cpu time   13.2104: real time   13.2113
       DOS:  cpu time    0.0025: real time    0.0025
    CHARGE:  cpu time    0.4444: real time    0.4444
    MIXING:  cpu time    0.0042: real time    0.0042
    --------------------------------------------
      LOOP:  cpu time   13.7560: real time   13.7572

 eigenvalue-minimisations  :  8160
 total energy-change (2. order) : 0.1179800E+02  (-0.7941044E+00)
 number of electron     256.0000001 magnetization 
 augmentation part        5.6874524 magnetization 

 Broyden mixing:
  rms(total) = 0.13576E+01    rms(broyden)= 0.13576E+01
  rms(prec ) = 0.19343E+01
  weight for this iteration     100.00

 eigenvalues of (default mixing * dielectric matrix)
  average eigenvalue GAMMA=   2.1981
  2.1981

 Free energy of the ion-electron system (eV)
  ---------------------------------------------------
  alpha Z        PSCENC =       850.61452006
  Ewald energy   TEWEN  =    -10851.34196882
  -Hartree energ DENC   =      -731.41588002
  -exchange      EXHF   =         0.00000000
  -V(xc)+E(xc)   XCENC  =       910.06614423
  PAW double counting   =      3040.17639040    -3117.35284778
  entropy T*S    EENTRO =        -0.00000000
  eigenvalues    EBANDS =       -99.75590478
  atomic energy  EATOM  =      9416.14232778
  Solvation  Ediel_sol  =         0.00000000
  ---------------------------------------------------
  free energy    TOTEN  =      -582.86721891 eV

  energy without entropy =     -582.86721891  energy(sigma->0) =     -582.86721891


--------------------------------------------------------------------------------------------------------




--------------------------------------- Iteration      1(   7)  ---------------------------------------


    POTLOK:  cpu time    0.0654: real time    0.0658
    SETDIJ:  cpu time    0.0390: real time    0.0390
     EDDAV:  cpu time   13.6095: real time   13.6104
       DOS:  cpu time    0.0028: real time    0.0028
    CHARGE:  cpu time    0.4450: real time    0.4450
    MIXING:  cpu time    0.0040: real time    0.0040
    --------------------------------------------
      LOOP:  cpu time   14.1658: real time   14.1670

 eigenvalue-minimisations  :  8416
 total energy-change (2. order) : 0.3993594E+01  (-0.9289201E+00)
 number of electron     256.0000001 magnetization 
 augmentation part        5.5561608 magnetization 

 Broyden mixing:
  rms(total) = 0.18850E+00    rms(broyden)= 0.18814E+00
  rms(prec ) = 0.23047E+00
  weight for this iteration     100.00

 eigenvalues of (default mixing * dielectric matrix)
  average eigenvalue GAMMA=   2.2708
  2.0088  2.5329

 Free energy of the ion-electron system (eV)
  ---------------------------------------------------
  alpha Z        PSCENC =       850.61452006
  Ewald energy   TEWEN  =    -10851.34196882
  -Hartree energ DENC   =      -876.18940819
  -exchange      EXHF   =         0.00000000
  -V(xc)+E(xc)   XCENC  =       923.72021035
  PAW double counting   =      3875.34139773    -3955.87148240
  entropy T*S    EENTRO =        -0.00000000
  eigenvalues    EBANDS =        38.71077904
  atomic energy  EATOM  =      9416.14232778
  Solvation  Ediel_sol  =         0.00000000
  ---------------------------------------------------
  free energy    TOTEN  =      -578.87362445 eV

  energy without entropy =     -578.87362445  energy(sigma->0) =     -578.87362445


--------------------------------------------------------------------------------------------------------




--------------------------------------- Iteration      1(   8)  ---------------------------------------


    POTLOK:  cpu time    0.0566: real time    0.0571
    SETDIJ:  cpu time    0.0378: real time    0.0378
     EDDAV:  cpu time   13.9642: real time   13.9651
       DOS:  cpu time    0.0025: real time    0.0025
    CHARGE:  cpu time    0.4445: real time    0.4445
    MIXING:  cpu time    0.0042: real time    0.0041
    --------------------------------------------
      LOOP:  cpu time   14.5097: real time   14.5112

 eigenvalue-minimisations  :  8704
 total energy-change (2. order) :-0.5196445E-01  (-0.2140544E-01)
 number of electron     256.0000001 magnetization 
 augmentation part        5.5658155 magnetization 

 Broyden mixing:
  rms(total) = 0.20223E-01    rms(broyden)= 0.20140E-01
  rms(prec ) = 0.24696E-01
  weight for this iteration     100.00

 eigenvalues of (default mixing * dielectric matrix)
  average eigenvalue GAMMA=   2.1057
  1.4633  2.6826  2.1711

 Free energy of the ion-electron system (eV)
  ---------------------------------------------------
  alpha Z        PSCENC =       850.61452006
  Ewald energy   TEWEN  =    -10851.34196882
  -Hartree energ DENC   =      -878.50294161
  -exchange      EXHF   =         0.00000000
  -V(xc)+E(xc)   XCENC  =       923.95581017
  PAW double counting   =      3918.25530750    -3997.78652920
  entropy T*S    EENTRO =        -0.00000000
  eigenvalues    EBANDS =        39.73788523
  atomic energy  EATOM  =      9416.14232778
  Solvation  Ediel_sol  =         0.00000000
  ---------------------------------------------------
  free energy    TOTEN  =      -578.92558890 eV

  energy without entropy =     -578.92558890  energy(sigma->0) =     -578.92558890


--------------------------------------------------------------------------------------------------------




--------------------------------------- Iteration      1(   9)  ---------------------------------------


    POTLOK:  cpu time    0.0582: real time    0.0586
    SETDIJ:  cpu time    0.0389: real time    0.0389
     EDDAV:  cpu time   14.4853: real time   14.4862
       DOS:  cpu time    0.0026: real time    0.0026
    CHARGE:  cpu time    0.4451: real time    0.4451
    MIXING:  cpu time    0.0044: real time    0.0043
    --------------------------------------------
      LOOP:  cpu time   15.0344: real time   15.0357

 eigenvalue-minimisations  :  9024
 total energy-change (2. order) :-0.2135695E-02  (-0.3628480E-03)
 number of electron     256.0000001 magnetization 
 augmentation part        5.5647773 magnetization 

 Broyden mixing:
  rms(total) = 0.76459E-02    rms(broyden)= 0.76407E-02
  rms(prec ) = 0.97787E-02
  weight for this iteration     100.00

 eigenvalues of (default mixing * dielectric matrix)
  average eigenvalue GAMMA=   2.0512
  0.9665  2.7751  2.4809  1.9823

 Free energy of the ion-electron system (eV)
  ---------------------------------------------------
  alpha Z        PSCENC =       850.61452006
  Ewald energy   TEWEN  =    -10851.34196882
  -Hartree energ DENC   =      -878.02120853
  -exchange      EXHF   =         0.00000000
  -V(xc)+E(xc)   XCENC  =       923.90872870
  PAW double counting   =      3913.33274322    -3992.76899697
  entropy T*S    EENTRO =        -0.00000000
  eigenvalues    EBANDS =        39.20612997
  atomic energy  EATOM  =      9416.14232778
  Solvation  Ediel_sol  =         0.00000000
  ---------------------------------------------------
  free energy    TOTEN  =      -578.92772459 eV

  energy without entropy =     -578.92772459  energy(sigma->0) =     -578.92772459


--------------------------------------------------------------------------------------------------------




--------------------------------------- Iteration      1(  10)  ---------------------------------------


    POTLOK:  cpu time    0.0578: real time    0.0586
    SETDIJ:  cpu time    0.0377: real time    0.0377
     EDDAV:  cpu time   13.7162: real time   13.7170
       DOS:  cpu time    0.0027: real time    0.0027
    CHARGE:  cpu time    0.4452: real time    0.4452
    MIXING:  cpu time    0.0046: real time    0.0046
    --------------------------------------------
      LOOP:  cpu time   14.2642: real time   14.2658

 eigenvalue-minimisations  :  8512
 total energy-change (2. order) :-0.4621735E-03  (-0.4467352E-04)
 number of electron     256.0000001 magnetization 
 augmentation part        5.5644891 magnetization 

 Broyden mixing:
  rms(total) = 0.77819E-03    rms(broyden)= 0.77366E-03
  rms(prec ) = 0.11566E-02
  weight for this iteration     100.00

 eigenvalues of (default mixing * dielectric matrix)
  average eigenvalue GAMMA=   1.9654
  2.9469  2.5504  2.0683  0.9849  1.2766

 Free energy of the ion-electron system (eV)
  ---------------------------------------------------
  alpha Z        PSCENC =       850.61452006
  Ewald energy   TEWEN  =    -10851.34196882
  -Hartree energ DENC   =      -878.44331782
  -exchange      EXHF   =         0.00000000
  -V(xc)+E(xc)   XCENC  =       923.94607224
  PAW double counting   =      3910.37815951    -3989.83008451
  entropy T*S    EENTRO =        -0.00000000
  eigenvalues    EBANDS =        39.60610479
  atomic energy  EATOM  =      9416.14232778
  Solvation  Ediel_sol  =         0.00000000
  ---------------------------------------------------
  free energy    TOTEN  =      -578.92818676 eV

  energy without entropy =     -578.92818676  energy(sigma->0) =     -578.92818676


--------------------------------------------------------------------------------------------------------




--------------------------------------- Iteration      1(  11)  ---------------------------------------


    POTLOK:  cpu time    0.0552: real time    0.0556
    SETDIJ:  cpu time    0.0378: real time    0.0378
     EDDAV:  cpu time   14.7273: real time   14.7282
       DOS:  cpu time    0.0025: real time    0.0025
    CHARGE:  cpu time    0.4443: real time    0.4443
    MIXING:  cpu time    0.0048: real time    0.0048
    --------------------------------------------
      LOOP:  cpu time   15.2717: real time   15.2731

 eigenvalue-minimisations  :  9184
 total energy-change (2. order) :-0.3007382E-05  (-0.1161891E-05)
 number of electron     256.0000001 magnetization 
 augmentation part        5.5642835 magnetization 

 Broyden mixing:
  rms(total) = 0.20748E-03    rms(broyden)= 0.20544E-03
  rms(prec ) = 0.27903E-03
  weight for this iteration     100.00

 eigenvalues of (default mixing * dielectric matrix)
  average eigenvalue GAMMA=   1.9980
  3.0004  2.5805  2.3953  2.0216  0.9951  0.9951

 Free energy of the ion-electron system (eV)
  ---------------------------------------------------
  alpha Z        PSCENC =       850.61452006
  Ewald energy   TEWEN  =    -10851.34196882
  -Hartree energ DENC   =      -878.56313083
  -exchange      EXHF   =         0.00000000
  -V(xc)+E(xc)   XCENC  =       923.95730499
  PAW double counting   =      3910.76781123    -3990.22468001
  entropy T*S    EENTRO =        -0.00000000
  eigenvalues    EBANDS =        39.71962582
  atomic energy  EATOM  =      9416.14232778
  Solvation  Ediel_sol  =         0.00000000
  ---------------------------------------------------
  free energy    TOTEN  =      -578.92818977 eV

  energy without entropy =     -578.92818977  energy(sigma->0) =     -578.92818977


--------------------------------------------------------------------------------------------------------




--------------------------------------- Iteration      1(  12)  ---------------------------------------


    POTLOK:  cpu time    0.0656: real time    0.0660
    SETDIJ:  cpu time    0.0380: real time    0.0380
     EDDAV:  cpu time   14.3689: real time   14.3698
       DOS:  cpu time    0.0026: real time    0.0026
    CHARGE:  cpu time    0.4441: real time    0.4441
    MIXING:  cpu time    0.0050: real time    0.0050
    --------------------------------------------
      LOOP:  cpu time   14.9242: real time   14.9255

 eigenvalue-minimisations  :  8960
 total energy-change (2. order) :-0.2956058E-06  (-0.5752609E-07)
 number of electron     256.0000001 magnetization 
 augmentation part        5.5643076 magnetization 

 Broyden mixing:
  rms(total) = 0.17739E-04    rms(broyden)= 0.17370E-04
  rms(prec ) = 0.20876E-04
  weight for this iteration     100.00

 eigenvalues of (default mixing * dielectric matrix)
  average eigenvalue GAMMA=   1.8743
  2.9562  2.6282  2.4878  2.0318  0.9655  1.0251  1.0251

 Free energy of the ion-electron system (eV)
  ---------------------------------------------------
  alpha Z        PSCENC =       850.61452006
  Ewald energy   TEWEN  =    -10851.34196882
  -Hartree energ DENC   =      -878.54489858
  -exchange      EXHF   =         0.00000000
  -V(xc)+E(xc)   XCENC  =       923.95561950
  PAW double counting   =      3910.81319976    -3990.26804413
  entropy T*S    EENTRO =        -0.00000000
  eigenvalues    EBANDS =        39.70105434
  atomic energy  EATOM  =      9416.14232778
  Solvation  Ediel_sol  =         0.00000000
  ---------------------------------------------------
  free energy    TOTEN  =      -578.92819007 eV

  energy without entropy =     -578.92819007  energy(sigma->0) =     -578.92819007


--------------------------------------------------------------------------------------------------------




--------------------------------------- Iteration      1(  13)  ---------------------------------------


    POTLOK:  cpu time    0.0558: real time    0.0563
    SETDIJ:  cpu time    0.0382: real time    0.0382
     EDDAV:  cpu time   12.1759: real time   12.1766
       DOS:  cpu time    0.0027: real time    0.0027
    CHARGE:  cpu time    0.4446: real time    0.4446
    MIXING:  cpu time    0.0050: real time    0.0050
    --------------------------------------------
      LOOP:  cpu time   12.7221: real time   12.7233

 eigenvalue-minimisations  :  6912
 total energy-change (2. order) :-0.1296739E-06  (-0.9106561E-09)
 number of electron     256.0000001 magnetization 
 augmentation part        5.5643034 magnetization 

 Broyden mixing:
  rms(total) = 0.60632E-05    rms(broyden)= 0.60089E-05
  rms(prec ) = 0.78559E-05
  weight for this iteration     100.00

 eigenvalues of (default mixing * dielectric matrix)
  average eigenvalue GAMMA=   2.0029
  2.0348  2.9434  2.9434  2.6050  2.5008  1.0125  1.0125  0.9708

 Free energy of the ion-electron system (eV)
  ---------------------------------------------------
  alpha Z        PSCENC =       850.61452006
  Ewald energy   TEWEN  =    -10851.34196882
  -Hartree energ DENC   =      -878.54452699
  -exchange      EXHF   =         0.00000000
  -V(xc)+E(xc)   XCENC  =       923.95558518
  PAW double counting   =      3910.81566300    -3990.27052393
  entropy T*S    EENTRO =        -0.00000000
  eigenvalues    EBANDS =        39.70073352
  atomic energy  EATOM  =      9416.14232778
  Solvation  Ediel_sol  =         0.00000000
  ---------------------------------------------------
  free energy    TOTEN  =      -578.92819020 eV

  energy without entropy =     -578.92819020  energy(sigma->0) =     -578.92819020


--------------------------------------------------------------------------------------------------------




--------------------------------------- Iteration      1(  14)  ---------------------------------------


    POTLOK:  cpu time    0.0649: real time    0.0652
    SETDIJ:  cpu time    0.0381: real time    0.0381
     EDDAV:  cpu time   11.2560: real time   11.2567
       DOS:  cpu time    0.0025: real time    0.0025
    --------------------------------------------
      LOOP:  cpu time   11.3615: real time   11.3625

 eigenvalue-minimisations  :  6176
 total energy-change (2. order) :-0.5586116E-08  (-0.1515900E-09)
 number of electron     256.0000001 magnetization 
 augmentation part        5.5643034 magnetization 

 Free energy of the ion-electron system (eV)
  ---------------------------------------------------
  alpha Z        PSCENC =       850.61452006
  Ewald energy   TEWEN  =    -10851.34196882
  -Hartree energ DENC   =      -878.54390888
  -exchange      EXHF   =         0.00000000
  -V(xc)+E(xc)   XCENC  =       923.95552764
  PAW double counting   =      3910.81030835    -3990.26513992
  entropy T*S    EENTRO =        -0.00000000
  eigenvalues    EBANDS =        39.70014358
  atomic energy  EATOM  =      9416.14232778
  Solvation  Ediel_sol  =         0.00000000
  ---------------------------------------------------
  free energy    TOTEN  =      -578.92819020 eV

  energy without entropy =     -578.92819020  energy(sigma->0) =     -578.92819020


--------------------------------------------------------------------------------------------------------




 average (electrostatic) potential at core
  the test charge radii are     0.6991
  (the norm of the test charge is              1.0000)
       1 -46.4911       2 -46.4911       3 -46.4911       4 -46.4911       5 -46.4911
       6 -46.4911       7 -46.4911       8 -46.4911       9 -46.4911      10 -46.4911
      11 -46.4911      12 -46.4911      13 -46.4911      14 -46.4911      15 -46.4911
      16 -46.4911      17 -46.4911      18 -46.4911      19 -46.4911      20 -46.4911
      21 -46.4911      22 -46.4911      23 -46.4911      24 -46.4911      25 -46.4911
      26 -46.4911      27 -46.4911      28 -46.4911      29 -46.4911      30 -46.4911
      31 -46.4911      32 -46.4911      33 -46.4911      34 -46.4911      35 -46.4911
      36 -46.4911      37 -46.4911      38 -46.4911      39 -46.4911      40 -46.4911
      41 -46.4911      42 -46.4911      43 -46.4911      44 -46.4911      45 -46.4911
      46 -46.4911      47 -46.4911      48 -46.4911      49 -46.4911      50 -46.4911
      51 -46.4911      52 -46.4911      53 -46.4911      54 -46.4911      55 -46.4911
      56 -46.4911      57 -46.4911      58 -46.4911      59 -46.4911      60 -46.4911
      61 -46.4911      62 -46.4911      63 -46.4911      64 -46.4911
 
 
 
 E-fermi :   9.2530     XC(G=0): -12.8389     alpha+bet :-16.3754


 k-point     1 :       0.0000    0.0000    0.0000
  band No.  band energies     occupation 
      1     -11.7990      2.00000
      2      -9.6770      2.00000
      3      -9.6770      2.00000
      4      -9.6770      2.00000
      5      -9.6770      2.00000
      6      -9.5527      2.00000
      7      -9.5527      2.00000
      8      -7.6583      2.00000
      9      -7.6583      2.00000
     10      -7.6583      2.00000
     11      -7.6583      2.00000
     12      -7.5485      2.00000
     13      -7.5485      2.00000
     14      -7.5485      2.00000
     15      -7.5485      2.00000
     16      -7.5485      2.00000
     17      -7.5485      2.00000
     18      -7.5485      2.00000
     19      -7.5485      2.00000
     20      -6.4541      2.00000
     21      -6.4541      2.00000
     22      -6.4541      2.00000
     23      -6.4541      2.00000
     24      -3.8774      2.00000
     25      -3.8774      2.00000
     26      -3.8774      2.00000
     27      -3.8774      2.00000
     28      -3.7099      2.00000
     29      -3.7099      2.00000
     30      -3.7099      2.00000
     31      -3.7099      2.00000
     32      -3.2941      2.00000
     33      -3.2941      2.00000
     34      -2.9802      2.00000
     35      -2.9802      2.00000
     36      -2.9802      2.00000
     37      -2.9802      2.00000
     38      -2.8691      2.00000
     39      -2.8691      2.00000
     40      -2.8691      2.00000
     41      -2.8691      2.00000
     42      -2.8691      2.00000
     43      -2.8691      2.00000
     44      -2.8691      2.00000
     45      -2.8691      2.00000
     46       0.2557      2.00000
     47       0.2557      2.00000
     48       0.2557      2.00000
     49       0.2557      2.00000
     50       0.2557      2.00000
     51       0.2557      2.00000
     52       0.2557      2.00000
     53       0.2557      2.00000
     54       0.4867      2.00000
     55       0.4867      2.00000
     56       0.4867      2.00000
     57       0.4867      2.00000
     58       0.9778      2.00000
     59       0.9778      2.00000
     60       0.9778      2.00000
     61       0.9778      2.00000
     62       1.0165      2.00000
     63       1.0165      2.00000
     64       1.0165      2.00000
     65       1.0165      2.00000
     66       1.0165      2.00000
     67       1.0165      2.00000
     68       1.0165      2.00000
     69       1.0165      2.00000
     70       1.4730      2.00000
     71       1.4730      2.00000
     72       1.4730      2.00000
     73       1.4730      2.00000
     74       1.4730      2.00000
     75       1.4730      2.00000
     76       1.4730      2.00000
     77       1.4730      2.00000
     78       1.8147      2.00000
     79       1.8147      2.00000
     80       1.8147      2.00000
     81       1.8147      2.00000
     82       2.5631      2.00000
     83       2.5631      2.00000
     84       2.9635      2.00000
     85       2.9635      2.00000
     86       2.9635      2.00000
     87       2.9635      2.00000
     88       4.0640      2.00000
     89       4.0640      2.00000
     90       4.0640      2.00000
     91       4.0640      2.00000
     92       4.5512      2.00000
     93       4.5512      2.00000
     94       4.6641      2.00000
     95       4.6641      2.00000
     96       4.6641      2.00000
     97       4.6641      2.00000
     98       4.8932      2.00000
     99       4.8932      2.00000
    100       4.8932      2.00000
    101       4.8932      2.00000
    102       5.0403      2.00000
    103       5.0403      2.00000
    104       5.0403      2.00000
    105       5.0403      2.00000
    106       5.6146      2.00000
    107       5.6146      2.00000
    108       5.6146      2.00000
    109       5.6146      2.00000
    110       5.8251      2.00000
    111       5.8251      2.00000
    112       5.8251      2.00000
    113       5.8251      2.00000
    114       6.0064      2.00000
    115       6.0064      2.00000
    116       6.0064      2.00000
    117       6.0064      2.00000
    118       6.0064      2.00000
    119       6.0064      2.00000
    120       6.0064      2.00000
    121       6.0064      2.00000
    122       6.2989      2.00000
    123       6.2989      2.00000
    124       6.2989      2.00000
    125       6.2989      2.00000
    126       8.5356      2.00000
    127       8.5356      2.00000
    128       8.9625      2.00000
    129      12.5459      0.00000
    130      12.5459      0.00000
    131      12.8359      0.00000
    132      12.8359      0.00000
    133      13.1188      0.00000
    134      13.1188      0.00000
    135      13.1188      0.00000
    136      13.1188      0.00000
    137      13.4785      0.00000
    138      13.4785      0.00000
    139      13.4785      0.00000
    140      13.4785      0.00000
    141      13.8355      0.00000
    142      14.1721      0.00000
    143      14.1721      0.00000
    144      15.7370      0.00000
    145      15.7370      0.00000
    146      15.7370      0.00000
    147      15.7370      0.00000
    148      16.1562      0.00000
    149      16.1562      0.00000
    150      16.1562      0.00000
    151      16.1562      0.00000
    152      16.4093      0.00000
    153      16.4093      0.00000
    154      16.4093      0.00000
    155      16.4093      0.00000
    156      16.4093      0.00000
    157      16.4093      0.00000
    158      16.4093      0.00000
    159      16.4093      0.00000
    160      16.7073      0.00000
    161      16.7073      0.00000
    162      16.7073      0.00000
    163      16.7073      0.00000
    164      17.2231      0.00000
    165      17.2231      0.00000
    166      17.2231      0.00000
    167      17.2231      0.00000
    168      18.0549      0.00000
    169      18.0549      0.00000
    170      18.0549      0.00000
    171      18.0549      0.00000
    172      18.0549      0.00000
    173      18.0549      0.00000
    174      18.0549      0.00000
    175      18.0549      0.00000
    176      18.2231      0.00000
    177      18.2231      0.00000
    178      18.2376      0.00000
    179      18.2376      0.00000
    180      18.2376      0.00000
    181      18.2376      0.00000
    182      18.4128      0.00000
    183      18.4128      0.00000
    184      18.4128      0.00000
    185      18.4132      0.00000
    186      18.6904      0.00000
    187      18.6904      0.00000
    188      18.6904      0.00000
    189      18.6905      0.00000
    190      18.6905      0.00000
    191      18.6908      0.00000
    192      18.6918      0.00000

 k-point     2 :       0.2500    0.0000    0.0000
  band No.  band energies     occupation 
      1     -11.6649      2.00000
      2     -10.5990      2.00000
      3      -9.5478      2.00000
      4      -9.5478      2.00000
      5      -9.4241      2.00000
      6      -9.4241      2.00000
      7      -8.5278      2.00000
      8      -8.5278      2.00000
      9      -8.5078      2.00000
     10      -8.4101      2.00000
     11      -8.4101      2.00000
     12      -7.4386      2.00000
     13      -7.4386      2.00000
     14      -7.4386      2.00000
     15      -7.4386      2.00000
     16      -6.7019      2.00000
     17      -6.7019      2.00000
     18      -6.7019      2.00000
     19      -6.7019      2.00000
     20      -6.5806      2.00000
     21      -6.5806      2.00000
     22      -6.4860      2.00000
     23      -6.4860      2.00000
     24      -5.4964      2.00000
     25      -4.0535      2.00000
     26      -4.0535      2.00000
     27      -4.0512      2.00000
     28      -4.0512      2.00000
     29      -3.6258      2.00000
     30      -3.6258      2.00000
     31      -3.3966      2.00000
     32      -3.3966      2.00000
     33      -3.3966      2.00000
     34      -3.3966      2.00000
     35      -3.2254      2.00000
     36      -3.2254      2.00000
     37      -3.0915      2.00000
     38      -3.0915      2.00000
     39      -2.8742      2.00000
     40      -2.8742      2.00000
     41      -2.1477      2.00000
     42      -2.1477      2.00000
     43      -1.9354      2.00000
     44      -1.9354      2.00000
     45      -1.7928      2.00000
     46      -0.8802      2.00000
     47      -0.8802      2.00000
     48      -0.8802      2.00000
     49      -0.8802      2.00000
     50      -0.6425      2.00000
     51      -0.6425      2.00000
     52      -0.3839      2.00000
     53      -0.3839      2.00000
     54       0.3973      2.00000
     55       0.3973      2.00000
     56       0.5742      2.00000
     57       0.5742      2.00000
     58       0.7743      2.00000
     59       0.7743      2.00000
     60       1.0874      2.00000
     61       1.0874      2.00000
     62       1.1605      2.00000
     63       1.1605      2.00000
     64       1.2793      2.00000
     65       1.2793      2.00000
     66       1.3770      2.00000
     67       1.3770      2.00000
     68       1.4560      2.00000
     69       1.4560      2.00000
     70       2.0294      2.00000
     71       2.0294      2.00000
     72       2.1364      2.00000
     73       2.1364      2.00000
     74       2.1743      2.00000
     75       2.2993      2.00000
     76       2.2993      2.00000
     77       2.3845      2.00000
     78       2.3845      2.00000
     79       2.6750      2.00000
     80       2.6750      2.00000
     81       2.6750      2.00000
     82       2.6750      2.00000
     83       2.6872      2.00000
     84       2.6872      2.00000
     85       2.7466      2.00000
     86       2.7466      2.00000
     87       3.0775      2.00000
     88       3.1084      2.00000
     89       3.4580      2.00000
     90       3.4580      2.00000
     91       3.5327      2.00000
     92       3.5327      2.00000
     93       4.0603      2.00000
     94       4.1614      2.00000
     95       4.2787      2.00000
     96       4.2787      2.00000
     97       4.6574      2.00000
     98       4.6574      2.00000
     99       4.7050      2.00000
    100       4.7050      2.00000
    101       5.0152      2.00000
    102       5.0152      2.00000
    103       5.3192      2.00000
    104       5.3192      2.00000
    105       5.4130      2.00000
    106       5.4130      2.00000
    107       5.4130      2.00000
    108       5.4130      2.00000
    109       5.5106      2.00000
    110       5.5106      2.00000
    111       5.7747      2.00000
    112       5.9113      2.00000
    113       5.9374      2.00000
    114       5.9374      2.00000
    115       6.0332      2.00000
    116       6.0332      2.00000
    117       6.0332      2.00000
    118       6.0332      2.00000
    119       6.1134      2.00000
    120       6.2053      2.00000
    121       6.2053      2.00000
    122       6.2053      2.00000
    123       6.2053      2.00000
    124       6.3604      2.00000
    125       6.3604      2.00000
    126       8.0598      2.00000
    127       8.1811      2.00000
    128       8.4209      2.00000
    129      12.9030      0.00000
    130      13.0358      0.00000
    131      13.1146      0.00000
    132      13.1146      0.00000
    133      13.3702      0.00000
    134      13.3702      0.00000
    135      13.4420      0.00000
    136      13.6835      0.00000
    137      13.6835      0.00000
    138      14.0091      0.00000
    139      14.0091      0.00000
    140      14.0701      0.00000
    141      14.2288      0.00000
    142      14.4141      0.00000
    143      14.8254      0.00000
    144      15.6364      0.00000
    145      15.6364      0.00000
    146      16.3518      0.00000
    147      16.3518      0.00000
    148      16.4138      0.00000
    149      16.4138      0.00000
    150      16.4555      0.00000
    151      16.4555      0.00000
    152      16.4555      0.00000
    153      16.4555      0.00000
    154      16.4624      0.00000
    155      16.4624      0.00000
    156      16.4624      0.00000
    157      16.4624      0.00000
    158      16.5255      0.00000
    159      16.5255      0.00000
    160      16.7335      0.00000
    161      16.7335      0.00000
    162      16.7523      0.00000
    163      16.7861      0.00000
    164      16.7861      0.00000
    165      16.7861      0.00000
    166      16.7861      0.00000
    167      16.8287      0.00000
    168      16.8287      0.00000
    169      17.0948      0.00000
    170      17.0948      0.00000
    171      17.3358      0.00000
    172      17.3358      0.00000
    173      17.3358      0.00000
    174      17.3358      0.00000
    175      17.3416      0.00000
    176      17.3416      0.00000
    177      17.3486      0.00000
    178      17.3486      0.00000
    179      17.4204      0.00000
    180      17.8285      0.00000
    181      17.8285      0.00000
    182      17.8285      0.00000
    183      17.8285      0.00000
    184      18.0855      0.00000
    185      18.1961      0.00000
    186      18.1961      0.00000
    187      18.5201      0.00000
    188      18.5211      0.00000
    189      18.6308      0.00000
    190      18.6336      0.00000
    191      18.7644      0.00000
    192      18.7851      0.00000

 k-point     3 :       0.5000    0.0000    0.0000
  band No.  band energies     occupation 
      1     -11.2638      2.00000
      2     -11.2638      2.00000
      3      -9.1624      2.00000
      4      -9.1624      2.00000
      5      -9.1624      2.00000
      6      -9.1624      2.00000
      7      -9.0406      2.00000
      8      -9.0406      2.00000
      9      -9.0406      2.00000
     10      -9.0406      2.00000
     11      -7.1275      2.00000
     12      -7.1275      2.00000
     13      -7.1275      2.00000
     14      -7.1275      2.00000
     15      -7.1275      2.00000
     16      -7.1275      2.00000
     17      -7.1275      2.00000
     18      -7.1275      2.00000
     19      -7.1068      2.00000
     20      -7.1068      2.00000
     21      -5.3450      2.00000
     22      -5.3450      2.00000
     23      -5.3450      2.00000
     24      -5.3450      2.00000
     25      -5.2820      2.00000
     26      -5.2820      2.00000
     27      -5.2820      2.00000
     28      -5.2820      2.00000
     29      -3.3946      2.00000
     30      -3.3946      2.00000
     31      -3.3946      2.00000
     32      -3.3946      2.00000
     33      -3.0497      2.00000
     34      -3.0497      2.00000
     35      -3.0497      2.00000
     36      -3.0497      2.00000
     37      -2.2836      2.00000
     38      -2.2836      2.00000
     39      -2.2836      2.00000
     40      -2.2836      2.00000
     41      -2.2836      2.00000
     42      -2.2836      2.00000
     43      -2.2836      2.00000
     44      -2.2836      2.00000
     45      -1.4204      2.00000
     46      -1.4204      2.00000
     47      -1.4204      2.00000
     48      -1.4204      2.00000
     49      -1.1634      2.00000
     50      -1.1634      2.00000
     51      -1.1634      2.00000
     52      -1.1634      2.00000
     53       0.1928      2.00000
     54       0.1928      2.00000
     55       0.3787      2.00000
     56       0.3787      2.00000
     57       0.3787      2.00000
     58       0.3787      2.00000
     59       0.6427      2.00000
     60       0.6427      2.00000
     61       0.6427      2.00000
     62       0.6427      2.00000
     63       1.7038      2.00000
     64       1.7038      2.00000
     65       1.7038      2.00000
     66       1.7038      2.00000
     67       2.0402      2.00000
     68       2.0402      2.00000
     69       2.0402      2.00000
     70       2.0402      2.00000
     71       2.3939      2.00000
     72       2.3939      2.00000
     73       2.3939      2.00000
     74       2.3939      2.00000
     75       2.4777      2.00000
     76       2.4777      2.00000
     77       2.4777      2.00000
     78       2.4777      2.00000
     79       3.3907      2.00000
     80       3.3907      2.00000
     81       3.3907      2.00000
     82       3.3907      2.00000
     83       3.3921      2.00000
     84       3.3921      2.00000
     85       3.3921      2.00000
     86       3.3921      2.00000
     87       3.4477      2.00000
     88       3.4477      2.00000
     89       3.5116      2.00000
     90       3.5116      2.00000
[...]
      4.620164  0.924033  6.282499    -0.079467    0.090841    0.000714  
      0.924033  4.620164  6.282499     0.079467   -0.090841   -0.000714  
      4.620164  4.620164  6.282499     0.079467    0.090841    0.010158  
      0.000000  1.848065  0.000000     0.003527   -0.132983    0.006733  
      3.696131  1.848065  0.000000     0.003527    0.132983    0.006229  
      0.000000  5.544196  0.000000    -0.003527   -0.132983   -0.006229  
      3.696131  5.544196  0.000000    -0.003527    0.132983   -0.006733  
      0.000000  1.848065  3.589999     0.003527   -0.132983    0.006733  
      3.696131  1.848065  3.589999     0.003527    0.132983    0.006229  
      0.000000  5.544196  3.589999    -0.003527   -0.132983   -0.006229  
      3.696131  5.544196  3.589999    -0.003527    0.132983   -0.006733  
      2.772098  2.772098  2.692500     0.084455    0.097226   -0.009523  
      6.468229  2.772098  2.692500     0.084455   -0.097226    0.000636  
      2.772098  6.468229  2.692500    -0.084455    0.097226   -0.000636  
      6.468229  6.468229  2.692500    -0.084455   -0.097226    0.009523  
      2.772098  2.772098  6.282499     0.084455    0.097226   -0.009523  
      6.468229  2.772098  6.282499     0.084455   -0.097226    0.000636  
      2.772098  6.468229  6.282499    -0.084455    0.097226   -0.000636  
      6.468229  6.468229  6.282499    -0.084455   -0.097226    0.009523  
      1.848065  0.000000  0.000000    -0.115910    0.004515    0.007633  
      5.544196  0.000000  0.000000    -0.115910   -0.004515   -0.007238  
      1.848065  3.696131  0.000000     0.115910    0.004515    0.007238  
      5.544196  3.696131  0.000000     0.115910   -0.004515   -0.007633  
      1.848065  0.000000  3.589999    -0.115910    0.004515    0.007633  
      5.544196  0.000000  3.589999    -0.115910   -0.004515   -0.007238  
      1.848065  3.696131  3.589999     0.115910    0.004515    0.007238  
      5.544196  3.696131  3.589999     0.115910   -0.004515   -0.007633  
      2.772098  0.924033  0.897500    -0.079467    0.097226   -0.009801  
      6.468229  0.924033  0.897500    -0.079467   -0.097226    0.000357  
      2.772098  4.620164  0.897500     0.079467    0.097226   -0.000357  
      6.468229  4.620164  0.897500     0.079467   -0.097226    0.009801  
      2.772098  0.924033  4.487499    -0.079467    0.097226   -0.009801  
      6.468229  0.924033  4.487499    -0.079467   -0.097226    0.000357  
      2.772098  4.620164  4.487499     0.079467    0.097226   -0.000357  
      6.468229  4.620164  4.487499     0.079467   -0.097226    0.009801  
      1.848065  1.848065  1.795000     0.003527    0.004515    0.013917  
      5.544196  1.848065  1.795000     0.003527   -0.004515   -0.000955  
      1.848065  5.544196  1.795000    -0.003527    0.004515    0.000955  
      5.544196  5.544196  1.795000    -0.003527   -0.004515   -0.013917  
      1.848065  1.848065  5.384999     0.003527    0.004515    0.013917  
      5.544196  1.848065  5.384999     0.003527   -0.004515   -0.000955  
      1.848065  5.544196  5.384999    -0.003527    0.004515    0.000955  
      5.544196  5.544196  5.384999    -0.003527   -0.004515   -0.013917  
 
 190 f  =    0.000002 THz     0.000012 2PiTHz    0.000066 cm-1     0.000008 meV
             X         Y         Z           dx          dy          dz
      0.924033  2.772098  0.897500    -0.000170    0.000056   -0.125000  
      4.620164  2.772098  0.897500    -0.000170    0.000056   -0.125000  
      0.924033  6.468229  0.897500    -0.000170    0.000056   -0.125000  
      4.620164  6.468229  0.897500    -0.000170    0.000056   -0.125000  
      0.924033  2.772098  4.487499    -0.000170    0.000056   -0.125000  
      4.620164  2.772098  4.487499    -0.000170    0.000056   -0.125000  
      0.924033  6.468229  4.487499    -0.000170    0.000056   -0.125000  
      4.620164  6.468229  4.487499    -0.000170    0.000056   -0.125000  
      0.000000  0.000000  1.795000    -0.000170    0.000056   -0.125000  
      3.696131  0.000000  1.795000    -0.000170    0.000056   -0.125000  
      0.000000  3.696131  1.795000    -0.000170    0.000056   -0.125000  
      3.696131  3.696131  1.795000    -0.000170    0.000056   -0.125000  
      0.000000  0.000000  5.384999    -0.000170    0.000056   -0.125000  
      3.696131  0.000000  5.384999    -0.000170    0.000056   -0.125000  
      0.000000  3.696131  5.384999    -0.000170    0.000056   -0.125000  
      3.696131  3.696131  5.384999    -0.000170    0.000056   -0.125000  
      0.924033  0.924033  2.692500    -0.000170    0.000056   -0.125000  
      4.620164  0.924033  2.692500    -0.000170    0.000056   -0.125000  
      0.924033  4.620164  2.692500    -0.000170    0.000056   -0.125000  
      4.620164  4.620164  2.692500    -0.000170    0.000056   -0.125000  
      0.924033  0.924033  6.282499    -0.000170    0.000056   -0.125000  
      4.620164  0.924033  6.282499    -0.000170    0.000056   -0.125000  
      0.924033  4.620164  6.282499    -0.000170    0.000056   -0.125000  
      4.620164  4.620164  6.282499    -0.000170    0.000056   -0.125000  
      0.000000  1.848065  0.000000    -0.000170    0.000056   -0.125000  
      3.696131  1.848065  0.000000    -0.000170    0.000056   -0.125000  
      0.000000  5.544196  0.000000    -0.000170    0.000056   -0.125000  
      3.696131  5.544196  0.000000    -0.000170    0.000056   -0.125000  
      0.000000  1.848065  3.589999    -0.000170    0.000056   -0.125000  
      3.696131  1.848065  3.589999    -0.000170    0.000056   -0.125000  
      0.000000  5.544196  3.589999    -0.000170    0.000056   -0.125000  
      3.696131  5.544196  3.589999    -0.000170    0.000056   -0.125000  
      2.772098  2.772098  2.692500    -0.000170    0.000056   -0.125000  
      6.468229  2.772098  2.692500    -0.000170    0.000056   -0.125000  
      2.772098  6.468229  2.692500    -0.000170    0.000056   -0.125000  
      6.468229  6.468229  2.692500    -0.000170    0.000056   -0.125000  
      2.772098  2.772098  6.282499    -0.000170    0.000056   -0.125000  
      6.468229  2.772098  6.282499    -0.000170    0.000056   -0.125000  
      2.772098  6.468229  6.282499    -0.000170    0.000056   -0.125000  
      6.468229  6.468229  6.282499    -0.000170    0.000056   -0.125000  
      1.848065  0.000000  0.000000    -0.000170    0.000056   -0.125000  
      5.544196  0.000000  0.000000    -0.000170    0.000056   -0.125000  
      1.848065  3.696131  0.000000    -0.000170    0.000056   -0.125000  
      5.544196  3.696131  0.000000    -0.000170    0.000056   -0.125000  
      1.848065  0.000000  3.589999    -0.000170    0.000056   -0.125000  
      5.544196  0.000000  3.589999    -0.000170    0.000056   -0.125000  
      1.848065  3.696131  3.589999    -0.000170    0.000056   -0.125000  
      5.544196  3.696131  3.589999    -0.000170    0.000056   -0.125000  
      2.772098  0.924033  0.897500    -0.000170    0.000056   -0.125000  
      6.468229  0.924033  0.897500    -0.000170    0.000056   -0.125000  
      2.772098  4.620164  0.897500    -0.000170    0.000056   -0.125000  
      6.468229  4.620164  0.897500    -0.000170    0.000056   -0.125000  
      2.772098  0.924033  4.487499    -0.000170    0.000056   -0.125000  
      6.468229  0.924033  4.487499    -0.000170    0.000056   -0.125000  
      2.772098  4.620164  4.487499    -0.000170    0.000056   -0.125000  
      6.468229  4.620164  4.487499    -0.000170    0.000056   -0.125000  
      1.848065  1.848065  1.795000    -0.000170    0.000056   -0.125000  
      5.544196  1.848065  1.795000    -0.000170    0.000056   -0.125000  
      1.848065  5.544196  1.795000    -0.000170    0.000056   -0.125000  
      5.544196  5.544196  1.795000    -0.000170    0.000056   -0.125000  
      1.848065  1.848065  5.384999    -0.000170    0.000056   -0.125000  
      5.544196  1.848065  5.384999    -0.000170    0.000056   -0.125000  
      1.848065  5.544196  5.384999    -0.000170    0.000056   -0.125000  
      5.544196  5.544196  5.384999    -0.000170    0.000056   -0.125000  
 
 191 f/i=    0.000002 THz     0.000014 2PiTHz    0.000073 cm-1     0.000009 meV
             X         Y         Z           dx          dy          dz
      0.924033  2.772098  0.897500    -0.121634    0.028813    0.000178  
      4.620164  2.772098  0.897500    -0.121634    0.028813    0.000178  
      0.924033  6.468229  0.897500    -0.121634    0.028813    0.000178  
      4.620164  6.468229  0.897500    -0.121634    0.028813    0.000178  
      0.924033  2.772098  4.487499    -0.121634    0.028813    0.000178  
      4.620164  2.772098  4.487499    -0.121634    0.028813    0.000178  
      0.924033  6.468229  4.487499    -0.121634    0.028813    0.000178  
      4.620164  6.468229  4.487499    -0.121634    0.028813    0.000178  
      0.000000  0.000000  1.795000    -0.121634    0.028813    0.000178  
      3.696131  0.000000  1.795000    -0.121634    0.028813    0.000178  
      0.000000  3.696131  1.795000    -0.121634    0.028813    0.000178  
      3.696131  3.696131  1.795000    -0.121634    0.028813    0.000178  
      0.000000  0.000000  5.384999    -0.121634    0.028813    0.000178  
      3.696131  0.000000  5.384999    -0.121634    0.028813    0.000178  
      0.000000  3.696131  5.384999    -0.121634    0.028813    0.000178  
      3.696131  3.696131  5.384999    -0.121634    0.028813    0.000178  
      0.924033  0.924033  2.692500    -0.121634    0.028813    0.000178  
      4.620164  0.924033  2.692500    -0.121634    0.028813    0.000178  
      0.924033  4.620164  2.692500    -0.121634    0.028813    0.000178  
      4.620164  4.620164  2.692500    -0.121634    0.028813    0.000178  
      0.924033  0.924033  6.282499    -0.121634    0.028813    0.000178  
      4.620164  0.924033  6.282499    -0.121634    0.028813    0.000178  
      0.924033  4.620164  6.282499    -0.121634    0.028813    0.000178  
      4.620164  4.620164  6.282499    -0.121634    0.028813    0.000178  
      0.000000  1.848065  0.000000    -0.121634    0.028813    0.000178  
      3.696131  1.848065  0.000000    -0.121634    0.028813    0.000178  
      0.000000  5.544196  0.000000    -0.121634    0.028813    0.000178  
      3.696131  5.544196  0.000000    -0.121634    0.028813    0.000178  
      0.000000  1.848065  3.589999    -0.121634    0.028813    0.000178  
      3.696131  1.848065  3.589999    -0.121634    0.028813    0.000178  
      0.000000  5.544196  3.589999    -0.121634    0.028813    0.000178  
      3.696131  5.544196  3.589999    -0.121634    0.028813    0.000178  
      2.772098  2.772098  2.692500    -0.121634    0.028813    0.000178  
      6.468229  2.772098  2.692500    -0.121634    0.028813    0.000178  
      2.772098  6.468229  2.692500    -0.121634    0.028813    0.000178  
      6.468229  6.468229  2.692500    -0.121634    0.028813    0.000178  
      2.772098  2.772098  6.282499    -0.121634    0.028813    0.000178  
      6.468229  2.772098  6.282499    -0.121634    0.028813    0.000178  
      2.772098  6.468229  6.282499    -0.121634    0.028813    0.000178  
      6.468229  6.468229  6.282499    -0.121634    0.028813    0.000178  
      1.848065  0.000000  0.000000    -0.121634    0.028813    0.000178  
      5.544196  0.000000  0.000000    -0.121634    0.028813    0.000178  
      1.848065  3.696131  0.000000    -0.121634    0.028813    0.000178  
      5.544196  3.696131  0.000000    -0.121634    0.028813    0.000178  
      1.848065  0.000000  3.589999    -0.121634    0.028813    0.000178  
      5.544196  0.000000  3.589999    -0.121634    0.028813    0.000178  
      1.848065  3.696131  3.589999    -0.121634    0.028813    0.000178  
      5.544196  3.696131  3.589999    -0.121634    0.028813    0.000178  
      2.772098  0.924033  0.897500    -0.121634    0.028813    0.000178  
      6.468229  0.924033  0.897500    -0.121634    0.028813    0.000178  
      2.772098  4.620164  0.897500    -0.121634    0.028813    0.000178  
      6.468229  4.620164  0.897500    -0.121634    0.028813    0.000178  
      2.772098  0.924033  4.487499    -0.121634    0.028813    0.000178  
      6.468229  0.924033  4.487499    -0.121634    0.028813    0.000178  
      2.772098  4.620164  4.487499    -0.121634    0.028813    0.000178  
      6.468229  4.620164  4.487499    -0.121634    0.028813    0.000178  
      1.848065  1.848065  1.795000    -0.121634    0.028813    0.000178  
      5.544196  1.848065  1.795000    -0.121634    0.028813    0.000178  
      1.848065  5.544196  1.795000    -0.121634    0.028813    0.000178  
      5.544196  5.544196  1.795000    -0.121634    0.028813    0.000178  
      1.848065  1.848065  5.384999    -0.121634    0.028813    0.000178  
      5.544196  1.848065  5.384999    -0.121634    0.028813    0.000178  
      1.848065  5.544196  5.384999    -0.121634    0.028813    0.000178  
      5.544196  5.544196  5.384999    -0.121634    0.028813    0.000178  
 
 192 f/i=    0.000002 THz     0.000015 2PiTHz    0.000078 cm-1     0.000010 meV
             X         Y         Z           dx          dy          dz
      0.924033  2.772098  0.897500     0.028813    0.121634    0.000015  
      4.620164  2.772098  0.897500     0.028813    0.121634    0.000015  
      0.924033  6.468229  0.897500     0.028813    0.121634    0.000015  
      4.620164  6.468229  0.897500     0.028813    0.121634    0.000015  
      0.924033  2.772098  4.487499     0.028813    0.121634    0.000015  
      4.620164  2.772098  4.487499     0.028813    0.121634    0.000015  
      0.924033  6.468229  4.487499     0.028813    0.121634    0.000015  
      4.620164  6.468229  4.487499     0.028813    0.121634    0.000015  
      0.000000  0.000000  1.795000     0.028813    0.121634    0.000015  
      3.696131  0.000000  1.795000     0.028813    0.121634    0.000015  
      0.000000  3.696131  1.795000     0.028813    0.121634    0.000015  
      3.696131  3.696131  1.795000     0.028813    0.121634    0.000015  
      0.000000  0.000000  5.384999     0.028813    0.121634    0.000015  
      3.696131  0.000000  5.384999     0.028813    0.121634    0.000015  
      0.000000  3.696131  5.384999     0.028813    0.121634    0.000015  
      3.696131  3.696131  5.384999     0.028813    0.121634    0.000015  
      0.924033  0.924033  2.692500     0.028813    0.121634    0.000015  
      4.620164  0.924033  2.692500     0.028813    0.121634    0.000015  
      0.924033  4.620164  2.692500     0.028813    0.121634    0.000015  
      4.620164  4.620164  2.692500     0.028813    0.121634    0.000015  
      0.924033  0.924033  6.282499     0.028813    0.121634    0.000015  
      4.620164  0.924033  6.282499     0.028813    0.121634    0.000015  
      0.924033  4.620164  6.282499     0.028813    0.121634    0.000015  
      4.620164  4.620164  6.282499     0.028813    0.121634    0.000015  
      0.000000  1.848065  0.000000     0.028813    0.121634    0.000015  
      3.696131  1.848065  0.000000     0.028813    0.121634    0.000015  
      0.000000  5.544196  0.000000     0.028813    0.121634    0.000015  
      3.696131  5.544196  0.000000     0.028813    0.121634    0.000015  
      0.000000  1.848065  3.589999     0.028813    0.121634    0.000015  
      3.696131  1.848065  3.589999     0.028813    0.121634    0.000015  
      0.000000  5.544196  3.589999     0.028813    0.121634    0.000015  
      3.696131  5.544196  3.589999     0.028813    0.121634    0.000015  
      2.772098  2.772098  2.692500     0.028813    0.121634    0.000015  
      6.468229  2.772098  2.692500     0.028813    0.121634    0.000015  
      2.772098  6.468229  2.692500     0.028813    0.121634    0.000015  
      6.468229  6.468229  2.692500     0.028813    0.121634    0.000015  
      2.772098  2.772098  6.282499     0.028813    0.121634    0.000015  
      6.468229  2.772098  6.282499     0.028813    0.121634    0.000015  
      2.772098  6.468229  6.282499     0.028813    0.121634    0.000015  
      6.468229  6.468229  6.282499     0.028813    0.121634    0.000015  
      1.848065  0.000000  0.000000     0.028813    0.121634    0.000015  
      5.544196  0.000000  0.000000     0.028813    0.121634    0.000015  
      1.848065  3.696131  0.000000     0.028813    0.121634    0.000015  
      5.544196  3.696131  0.000000     0.028813    0.121634    0.000015  
      1.848065  0.000000  3.589999     0.028813    0.121634    0.000015  
      5.544196  0.000000  3.589999     0.028813    0.121634    0.000015  
      1.848065  3.696131  3.589999     0.028813    0.121634    0.000015  
      5.544196  3.696131  3.589999     0.028813    0.121634    0.000015  
      2.772098  0.924033  0.897500     0.028813    0.121634    0.000015  
      6.468229  0.924033  0.897500     0.028813    0.121634    0.000015  
      2.772098  4.620164  0.897500     0.028813    0.121634    0.000015  
      6.468229  4.620164  0.897500     0.028813    0.121634    0.000015  
      2.772098  0.924033  4.487499     0.028813    0.121634    0.000015  
      6.468229  0.924033  4.487499     0.028813    0.121634    0.000015  
      2.772098  4.620164  4.487499     0.028813    0.121634    0.000015  
      6.468229  4.620164  4.487499     0.028813    0.121634    0.000015  
      1.848065  1.848065  1.795000     0.028813    0.121634    0.000015  
      5.544196  1.848065  1.795000     0.028813    0.121634    0.000015  
      1.848065  5.544196  1.795000     0.028813    0.121634    0.000015  
      5.544196  5.544196  1.795000     0.028813    0.121634    0.000015  
      1.848065  1.848065  5.384999     0.028813    0.121634    0.000015  
      5.544196  1.848065  5.384999     0.028813    0.121634    0.000015  
      1.848065  5.544196  5.384999     0.028813    0.121634    0.000015  
      5.544196  5.544196  5.384999     0.028813    0.121634    0.000015  
 


--------------------------------------------------------------------------------------------------------



 ELASTIC MODULI CONTR FROM IONIC RELAXATION (kBar)
 Direction    XX          YY          ZZ          XY          YZ          ZX
 --------------------------------------------------------------------------------
 XX          -0.0000     -0.0000      0.0000     -0.0000      0.0000      0.0000
 YY          -0.0000     -0.0000      0.0000     -0.0000      0.0000      0.0000
 ZZ           0.0000      0.0000     -0.0000     -0.0000      0.0000     -0.0000
 XY          -0.0000     -0.0000     -0.0000     -0.2346      0.0000      0.0000
 YZ           0.0000      0.0000      0.0000      0.0000     -2.3958      0.0000
 ZX           0.0000      0.0000     -0.0000      0.0000      0.0000     -2.3962
 --------------------------------------------------------------------------------



--------------------------------------------------------------------------------------------------------


     LOOP+:  cpu time  803.0426: real time  803.5993
    4ORBIT:  cpu time    0.0000: real time    0.0000

 total amount of memory used by VASP MPI-rank0    69407. kBytes
=======================================================================

   base      :      30000. kBytes
   nonl-proj :      15597. kBytes
   fftplans  :       4537. kBytes
   grid      :       5806. kBytes
   one-center:        196. kBytes
   wavefun   :      13271. kBytes
 
  
  
 General timing and accounting informations for this job:
 ========================================================
  
                  Total CPU time used (sec):      810.937
                            User time (sec):      806.405
                          System time (sec):        4.532
                         Elapsed time (sec):      811.584
  
                   Maximum memory used (kb):      323916.
                   Average memory used (kb):           0.
  
                          Minor page faults:        39277
                          Major page faults:           35
                 Voluntary context switches:          874
