# Thermal properties / unit cell (natom)

unit:
  temperature:   K
  free_energy:   kJ/mol
  entropy:       J/K/mol
  heat_capacity: J/K/mol

natom: 8    
cutoff_frequency:    0.000
num_modes: 2654208
num_integrated_modes: 2654208

zero_point_energy:     128.3237447
high_T_entropy:        447.8660818

thermal_properties:
- temperature:         0.0000000
  free_energy:       128.3237447
  entropy:             0.0000000
  heat_capacity:       0.0000000
  energy:            128.3237447

- temperature:         2.0000000
  free_energy:       128.3237447
  entropy:             0.0000000
  heat_capacity:       0.0000000
  energy:            128.3237447

- temperature:         4.0000000
  free_energy:       128.3237447
  entropy:             0.0000112
  heat_capacity:       0.0000676
  energy:            128.3237448

- temperature:         6.0000000
  free_energy:       128.3237446
  entropy:             0.0000860
  heat_capacity:       0.0003624
  energy:            128.3237451

- temperature:         8.0000000
  free_energy:       128.3237443
  entropy:             0.0002603
  heat_capacity:       0.0009258
  energy:            128.3237464

- temperature:        10.0000000
  free_energy:       128.3237435
  entropy:             0.0005570
  heat_capacity:       0.0018325
  energy:            128.3237491

- temperature:        12.0000000
  free_energy:       128.3237420
  entropy:             0.0010026
  heat_capacity:       0.0031766
  energy:            128.3237540

- temperature:        14.0000000
  free_energy:       128.3237394
  entropy:             0.0016257
  heat_capacity:       0.0050519
  energy:            128.3237621

- temperature:        16.0000000
  free_energy:       128.3237353
  entropy:             0.0024559
  heat_capacity:       0.0075512
  energy:            128.3237746

- temperature:        18.0000000
  free_energy:       128.3237294
  entropy:             0.0035235
  heat_capacity:       0.0107674
  energy:            128.3237928

- temperature:        20.0000000
  free_energy:       128.3237211
  entropy:             0.0048589
  heat_capacity:       0.0147944
  energy:            128.3238182

- temperature:        22.0000000
  free_energy:       128.3237098
  entropy:             0.0064927
  heat_capacity:       0.0197275
  energy:            128.3238526

- temperature:        24.0000000
  free_energy:       128.3236949
  entropy:             0.0084561
  heat_capacity:       0.0256636
  energy:            128.3238978

- temperature:        26.0000000
  free_energy:       128.3236757
  entropy:             0.0107805
  heat_capacity:       0.0327018
  energy:            128.3239560

- temperature:        28.0000000
  free_energy:       128.3236515
  entropy:             0.0134979
  heat_capacity:       0.0409434
  energy:            128.3240294

- temperature:        30.0000000
  free_energy:       128.3236214
  entropy:             0.0166405
  heat_capacity:       0.0504923
  energy:            128.3241206

- temperature:        32.0000000
  free_energy:       128.3235846
  entropy:             0.0202412
  heat_capacity:       0.0614554
  energy:            128.3242323

- temperature:        34.0000000
  free_energy:       128.3235401
  entropy:             0.0243337
  heat_capacity:       0.0739433
  energy:            128.3243675

- temperature:        36.0000000
  free_energy:       128.3234869
  entropy:             0.0289520
  heat_capacity:       0.0880703
  energy:            128.3245292

- temperature:        38.0000000
  free_energy:       128.3234239
  entropy:             0.0341310
  heat_capacity:       0.1039554
  energy:            128.3247209

- temperature:        40.0000000
  free_energy:       128.3233500
  entropy:             0.0399067
  heat_capacity:       0.1217230
  energy:            128.3249463

- temperature:        42.0000000
  free_energy:       128.3232639
  entropy:             0.0463158
  heat_capacity:       0.1415036
  energy:            128.3252092

- temperature:        44.0000000
  free_energy:       128.3231643
  entropy:             0.0533961
  heat_capacity:       0.1634350
  energy:            128.3255137

- temperature:        46.0000000
  free_energy:       128.3230498
  entropy:             0.0611868
  heat_capacity:       0.1876628
  energy:            128.3258644

- temperature:        48.0000000
  free_energy:       128.3229190
  entropy:             0.0697283
  heat_capacity:       0.2143419
  energy:            128.3262660

- temperature:        50.0000000
  free_energy:       128.3227704
  entropy:             0.0790629
  heat_capacity:       0.2436370
  energy:            128.3267235

- temperature:        52.0000000
  free_energy:       128.3226022
  entropy:             0.0892342
  heat_capacity:       0.2757235
  energy:            128.3272424

- temperature:        54.0000000
  free_energy:       128.3224129
  entropy:             0.1002879
  heat_capacity:       0.3107882
  energy:            128.3278284

- temperature:        56.0000000
  free_energy:       128.3222005
  entropy:             0.1122718
  heat_capacity:       0.3490296
  energy:            128.3284877

- temperature:        58.0000000
  free_energy:       128.3219631
  entropy:             0.1252356
  heat_capacity:       0.3906579
  energy:            128.3292268

- temperature:        60.0000000
  free_energy:       128.3216988
  entropy:             0.1392315
  heat_capacity:       0.4358950
  energy:            128.3300527

- temperature:        62.0000000
  free_energy:       128.3214055
  entropy:             0.1543138
  heat_capacity:       0.4849738
  energy:            128.3309729

- temperature:        64.0000000
  free_energy:       128.3210808
  entropy:             0.1705395
  heat_capacity:       0.5381379
  energy:            128.3319953

- temperature:        66.0000000
  free_energy:       128.3207225
  entropy:             0.1879676
  heat_capacity:       0.5956398
  energy:            128.3331284

- temperature:        68.0000000
  free_energy:       128.3203281
  entropy:             0.2066597
  heat_capacity:       0.6577407
  energy:            128.3343810

- temperature:        70.0000000
  free_energy:       128.3198950
  entropy:             0.2266799
  heat_capacity:       0.7247082
  energy:            128.3357626

- temperature:        72.0000000
  free_energy:       128.3194205
  entropy:             0.2480940
  heat_capacity:       0.7968152
  energy:            128.3372832

- temperature:        74.0000000
  free_energy:       128.3189016
  entropy:             0.2709705
  heat_capacity:       0.8743383
  energy:            128.3389535

- temperature:        76.0000000
  free_energy:       128.3183356
  entropy:             0.2953793
  heat_capacity:       0.9575559
  energy:            128.3407844

- temperature:        78.0000000
  free_energy:       128.3177191
  entropy:             0.3213924
  heat_capacity:       1.0467466
  energy:            128.3427877

- temperature:        80.0000000
  free_energy:       128.3170489
  entropy:             0.3490833
  heat_capacity:       1.1421877
  energy:            128.3449755

- temperature:        82.0000000
  free_energy:       128.3163216
  entropy:             0.3785269
  heat_capacity:       1.2441534
  energy:            128.3473608

- temperature:        84.0000000
  free_energy:       128.3155335
  entropy:             0.4097992
  heat_capacity:       1.3529134
  energy:            128.3499567

- temperature:        86.0000000
  free_energy:       128.3146811
  entropy:             0.4429771
  heat_capacity:       1.4687315
  energy:            128.3527771

- temperature:        88.0000000
  free_energy:       128.3137603
  entropy:             0.4781383
  heat_capacity:       1.5918644
  energy:            128.3558365

- temperature:        90.0000000
  free_energy:       128.3127672
  entropy:             0.5153607
  heat_capacity:       1.7225605
  energy:            128.3591496

- temperature:        92.0000000
  free_energy:       128.3116974
  entropy:             0.5547226
  heat_capacity:       1.8610591
  energy:            128.3627319

- temperature:        94.0000000
  free_energy:       128.3105468
  entropy:             0.5963024
  heat_capacity:       2.0075891
  energy:            128.3665992

- temperature:        96.0000000
  free_energy:       128.3093107
  entropy:             0.6401779
  heat_capacity:       2.1623690
  energy:            128.3707678

- temperature:        98.0000000
  free_energy:       128.3079845
  entropy:             0.6864268
  heat_capacity:       2.3256056
  energy:            128.3752543

- temperature:       100.0000000
  free_energy:       128.3065634
  entropy:             0.7351261
  heat_capacity:       2.4974943
  energy:            128.3800760

- temperature:       102.0000000
  free_energy:       128.3050423
  entropy:             0.7863518
  heat_capacity:       2.6782179
  energy:            128.3852502

- temperature:       104.0000000
  free_energy:       128.3034162
  entropy:             0.8401791
  heat_capacity:       2.8679473
  energy:            128.3907948

- temperature:       106.0000000
  free_energy:       128.3016798
  entropy:             0.8966819
  heat_capacity:       3.0668407
  energy:            128.3967281

- temperature:       108.0000000
  free_energy:       128.2998277
  entropy:             0.9559329
  heat_capacity:       3.2750437
  energy:            128.4030684

- temperature:       110.0000000
  free_energy:       128.2978542
  entropy:             1.0180033
  heat_capacity:       3.4926898
  energy:            128.4098346

- temperature:       112.0000000
  free_energy:       128.2957537
  entropy:             1.0829628
  heat_capacity:       3.7198996
  energy:            128.4170455

- temperature:       114.0000000
  free_energy:       128.2935204
  entropy:             1.1508793
  heat_capacity:       3.9567819
  energy:            128.4247206

- temperature:       116.0000000
  free_energy:       128.2911482
  entropy:             1.2218190
  heat_capacity:       4.2034329
  energy:            128.4328792

- temperature:       118.0000000
  free_energy:       128.2886310
  entropy:             1.2958464
  heat_capacity:       4.4599374
  energy:            128.4415409

- temperature:       120.0000000
  free_energy:       128.2859627
  entropy:             1.3730238
  heat_capacity:       4.7263683
  energy:            128.4507256

- temperature:       122.0000000
  free_energy:       128.2831368
  entropy:             1.4534118
  heat_capacity:       5.0027872
  energy:            128.4604530

- temperature:       124.0000000
  free_energy:       128.2801469
  entropy:             1.5370688
  heat_capacity:       5.2892446
  energy:            128.4707434

- temperature:       126.0000000
  free_energy:       128.2769863
  entropy:             1.6240510
  heat_capacity:       5.5857800
  energy:            128.4816167

- temperature:       128.0000000
  free_energy:       128.2736484
  entropy:             1.7144128
  heat_capacity:       5.8924227
  energy:            128.4930933

- temperature:       130.0000000
  free_energy:       128.2701264
  entropy:             1.8082062
  heat_capacity:       6.2091914
  energy:            128.5051932

- temperature:       132.0000000
  free_energy:       128.2664133
  entropy:             1.9054811
  heat_capacity:       6.5360951
  energy:            128.5179368

- temperature:       134.0000000
  free_energy:       128.2625021
  entropy:             2.0062852
  heat_capacity:       6.8731331
  energy:            128.5313443

- temperature:       136.0000000
  free_energy:       128.2583857
  entropy:             2.1106641
  heat_capacity:       7.2202951
  energy:            128.5454361

- temperature:       138.0000000
  free_energy:       128.2540570
  entropy:             2.2186609
  heat_capacity:       7.5775621
  energy:            128.5602322

- temperature:       140.0000000
  free_energy:       128.2495087
  entropy:             2.3303169
  heat_capacity:       7.9449058
  energy:            128.5757530

- temperature:       142.0000000
  free_energy:       128.2447333
  entropy:             2.4456708
  heat_capacity:       8.3222899
  energy:            128.5920186

- temperature:       144.0000000
  free_energy:       128.2397235
  entropy:             2.5647595
  heat_capacity:       8.7096693
  energy:            128.6090489

- temperature:       146.0000000
  free_energy:       128.2344717
  entropy:             2.6876172
  heat_capacity:       9.1069913
  energy:            128.6268639

- temperature:       148.0000000
  free_energy:       128.2289705
  entropy:             2.8142765
  heat_capacity:       9.5141953
  energy:            128.6454834

- temperature:       150.0000000
  free_energy:       128.2232121
  entropy:             2.9447673
  heat_capacity:       9.9312131
  energy:            128.6649272

- temperature:       152.0000000
  free_energy:       128.2171888
  entropy:             3.0791178
  heat_capacity:      10.3579695
  energy:            128.6852148

- temperature:       154.0000000
  free_energy:       128.2108930
  entropy:             3.2173537
  heat_capacity:      10.7943823
  energy:            128.7063655

- temperature:       156.0000000
  free_energy:       128.2043168
  entropy:             3.3594989
  heat_capacity:      11.2403623
  energy:            128.7283987

- temperature:       158.0000000
  free_energy:       128.1974524
  entropy:             3.5055750
  heat_capacity:      11.6958141
  energy:            128.7513333

- temperature:       160.0000000
  free_energy:       128.1902919
  entropy:             3.6556017
  heat_capacity:      12.1606359
  energy:            128.7751882

- temperature:       162.0000000
  free_energy:       128.1828274
  entropy:             3.8095965
  heat_capacity:      12.6347201
  energy:            128.7999820

- temperature:       164.0000000
  free_energy:       128.1750508
  entropy:             3.9675750
  heat_capacity:      13.1179532
  energy:            128.8257331

- temperature:       166.0000000
  free_energy:       128.1669544
  entropy:             4.1295508
  heat_capacity:      13.6102162
  energy:            128.8524598

- temperature:       168.0000000
  free_energy:       128.1585300
  entropy:             4.2955355
  heat_capacity:      14.1113848
  energy:            128.8801799

- temperature:       170.0000000
  free_energy:       128.1497696
  entropy:             4.4655390
  heat_capacity:      14.6213298
  energy:            128.9089112

- temperature:       172.0000000
  free_energy:       128.1406651
  entropy:             4.6395691
  heat_capacity:      15.1399172
  energy:            128.9386710

- temperature:       174.0000000
  free_energy:       128.1312086
  entropy:             4.8176318
  heat_capacity:      15.6670083
  energy:            128.9694765

- temperature:       176.0000000
  free_energy:       128.1213919
  entropy:             4.9997313
  heat_capacity:      16.2024604
  energy:            129.0013446

- temperature:       178.0000000
  free_energy:       128.1112070
  entropy:             5.1858701
  heat_capacity:      16.7461265
  energy:            129.0342919

- temperature:       180.0000000
  free_energy:       128.1006457
  entropy:             5.3760487
  heat_capacity:      17.2978558
  energy:            129.0683345

- temperature:       182.0000000
  free_energy:       128.0897001
  entropy:             5.5702663
  heat_capacity:      17.8574939
  energy:            129.1034886

- temperature:       184.0000000
  free_energy:       128.0783620
  entropy:             5.7685200
  heat_capacity:      18.4248833
  energy:            129.1397697

- temperature:       186.0000000
  free_energy:       128.0666233
  entropy:             5.9708055
  heat_capacity:      18.9998630
  energy:            129.1771931

- temperature:       188.0000000
  free_energy:       128.0544761
  entropy:             6.1771169
  heat_capacity:      19.5822695
  energy:            129.2157741

- temperature:       190.0000000
  free_energy:       128.0419122
  entropy:             6.3874468
  heat_capacity:      20.1719363
  energy:            129.2555271

- temperature:       192.0000000
  free_energy:       128.0289236
  entropy:             6.6017860
  heat_capacity:      20.7686948
  energy:            129.2964665

- temperature:       194.0000000
  free_energy:       128.0155024
  entropy:             6.8201242
  heat_capacity:      21.3723740
  energy:            129.3386065

- temperature:       196.0000000
  free_energy:       128.0016405
  entropy:             7.0424493
  heat_capacity:      21.9828011
  energy:            129.3819605

- temperature:       198.0000000
  free_energy:       127.9873299
  entropy:             7.2687481
  heat_capacity:      22.5998013
  energy:            129.4265420

- temperature:       200.0000000
  free_energy:       127.9725628
  entropy:             7.4990058
  heat_capacity:      23.2231984
  energy:            129.4723640

- temperature:       202.0000000
  free_energy:       127.9573313
  entropy:             7.7332065
  heat_capacity:      23.8528150
  energy:            129.5194390

- temperature:       204.0000000
  free_energy:       127.9416274
  entropy:             7.9713328
  heat_capacity:      24.4884725
  energy:            129.5677793

- temperature:       206.0000000
  free_energy:       127.9254433
  entropy:             8.2133662
  heat_capacity:      25.1299912
  energy:            129.6173968

- temperature:       208.0000000
  free_energy:       127.9087713
  entropy:             8.4592870
  heat_capacity:      25.7771910
  energy:            129.6683030

- temperature:       210.0000000
  free_energy:       127.8916036
  entropy:             8.7090743
  heat_capacity:      26.4298910
  energy:            129.7205092

- temperature:       212.0000000
  free_energy:       127.8739325
  entropy:             8.9627060
  heat_capacity:      27.0879102
  energy:            129.7740261

- temperature:       214.0000000
  free_energy:       127.8557502
  entropy:             9.2201591
  heat_capacity:      27.7510673
  energy:            129.8288643

- temperature:       216.0000000
  free_energy:       127.8370493
  entropy:             9.4814093
  heat_capacity:      28.4191811
  energy:            129.8850337

- temperature:       218.0000000
  free_energy:       127.8178221
  entropy:             9.7464317
  heat_capacity:      29.0920706
  energy:            129.9425442

- temperature:       220.0000000
  free_energy:       127.7980611
  entropy:            10.0151999
  heat_capacity:      29.7695551
  energy:            130.0014051

- temperature:       222.0000000
  free_energy:       127.7777588
  entropy:            10.2876871
  heat_capacity:      30.4514546
  energy:            130.0616254

- temperature:       224.0000000
  free_energy:       127.7569079
  entropy:            10.5638653
  heat_capacity:      31.1375896
  energy:            130.1232137

- temperature:       226.0000000
  free_energy:       127.7355009
  entropy:            10.8437058
  heat_capacity:      31.8277814
  energy:            130.1861784

- temperature:       228.0000000
  free_energy:       127.7135306
  entropy:            11.1271789
  heat_capacity:      32.5218526
  energy:            130.2505274

- temperature:       230.0000000
  free_energy:       127.6909898
  entropy:            11.4142544
  heat_capacity:      33.2196264
  energy:            130.3162683

- temperature:       232.0000000
  free_energy:       127.6678712
  entropy:            11.7049011
  heat_capacity:      33.9209277
  energy:            130.3834083

- temperature:       234.0000000
  free_energy:       127.6441678
  entropy:            11.9990872
  heat_capacity:      34.6255825
  energy:            130.4519542

- temperature:       236.0000000
  free_energy:       127.6198725
  entropy:            12.2967805
  heat_capacity:      35.3334184
  energy:            130.5219127

- temperature:       238.0000000
  free_energy:       127.5949784
  entropy:            12.5979476
  heat_capacity:      36.0442645
  energy:            130.5932899

- temperature:       240.0000000
  free_energy:       127.5694785
  entropy:            12.9025551
  heat_capacity:      36.7579516
  energy:            130.6660917

- temperature:       242.0000000
  free_energy:       127.5433659
  entropy:            13.2105687
  heat_capacity:      37.4743124
  energy:            130.7403235

- temperature:       244.0000000
  free_energy:       127.5166339
  entropy:            13.5219536
  heat_capacity:      38.1931814
  energy:            130.8159906

- temperature:       246.0000000
  free_energy:       127.4892759
  entropy:            13.8366746
  heat_capacity:      38.9143950
  energy:            130.8930978

- temperature:       248.0000000
  free_energy:       127.4612850
  entropy:            14.1546960
  heat_capacity:      39.6377919
  energy:            130.9716496

- temperature:       250.0000000
  free_energy:       127.4326549
  entropy:            14.4759817
  heat_capacity:      40.3632125
  energy:            131.0516503

- temperature:       252.0000000
  free_energy:       127.4033790
  entropy:            14.8004951
  heat_capacity:      41.0904999
  energy:            131.1331037

- temperature:       254.0000000
  free_energy:       127.3734508
  entropy:            15.1281995
  heat_capacity:      41.8194991
  energy:            131.2160135

- temperature:       256.0000000
  free_energy:       127.3428641
  entropy:            15.4590575
  heat_capacity:      42.5500576
  energy:            131.3003828

- temperature:       258.0000000
  free_energy:       127.3116125
  entropy:            15.7930316
  heat_capacity:      43.2820252
  energy:            131.3862146

- temperature:       260.0000000
  free_energy:       127.2796899
  entropy:            16.1300840
  heat_capacity:      44.0152541
  energy:            131.4735117

- temperature:       262.0000000
  free_energy:       127.2470901
  entropy:            16.4701766
  heat_capacity:      44.7495990
  energy:            131.5622764

- temperature:       264.0000000
  free_energy:       127.2138072
  entropy:            16.8132711
  heat_capacity:      45.4849172
  energy:            131.6525108

- temperature:       266.0000000
  free_energy:       127.1798351
  entropy:            17.1593291
  heat_capacity:      46.2210683
  energy:            131.7442166

- temperature:       268.0000000
  free_energy:       127.1451679
  entropy:            17.5083119
  heat_capacity:      46.9579149
  energy:            131.8373955

- temperature:       270.0000000
  free_energy:       127.1097999
  entropy:            17.8601806
  heat_capacity:      47.6953217
  energy:            131.9320486

- temperature:       272.0000000
  free_energy:       127.0737253
  entropy:            18.2148962
  heat_capacity:      48.4331564
  energy:            132.0281771

- temperature:       274.0000000
  free_energy:       127.0369384
  entropy:            18.5724198
  heat_capacity:      49.1712892
  energy:            132.1257815

- temperature:       276.0000000
  free_energy:       126.9994338
  entropy:            18.9327122
  heat_capacity:      49.9095928
  energy:            132.2248623

- temperature:       278.0000000
  free_energy:       126.9612058
  entropy:            19.2957342
  heat_capacity:      50.6479429
  energy:            132.3254199

- temperature:       280.0000000
  free_energy:       126.9222490
  entropy:            19.6614465
  heat_capacity:      51.3862176
  energy:            132.4274541

- temperature:       282.0000000
  free_energy:       126.8825582
  entropy:            20.0298099
  heat_capacity:      52.1242978
  energy:            132.5309646

- temperature:       284.0000000
  free_energy:       126.8421280
  entropy:            20.4007852
  heat_capacity:      52.8620670
  energy:            132.6359510

- temperature:       286.0000000
  free_energy:       126.8009534
  entropy:            20.7743330
  heat_capacity:      53.5994115
  energy:            132.7424126

- temperature:       288.0000000
  free_energy:       126.7590290
  entropy:            21.1504142
  heat_capacity:      54.3362202
  energy:            132.8503483

- temperature:       290.0000000
  free_energy:       126.7163500
  entropy:            21.5289897
  heat_capacity:      55.0723847
  energy:            132.9597570

- temperature:       292.0000000
  free_energy:       126.6729114
  entropy:            21.9100203
  heat_capacity:      55.8077991
  energy:            133.0706374

- temperature:       294.0000000
  free_energy:       126.6287083
  entropy:            22.2934671
  heat_capacity:      56.5423603
  energy:            133.1829877

- temperature:       296.0000000
  free_energy:       126.5837360
  entropy:            22.6792912
  heat_capacity:      57.2759680
  energy:            133.2968062

- temperature:       298.0000000
  free_energy:       126.5379896
  entropy:            23.0674538
  heat_capacity:      58.0085240
  energy:            133.4120908

- temperature:       300.0000000
  free_energy:       126.4914646
  entropy:            23.4579162
  heat_capacity:      58.7399332
  energy:            133.5288395

- temperature:       302.0000000
  free_energy:       126.4441564
  entropy:            23.8506401
  heat_capacity:      59.4701029
  energy:            133.6470498

- temperature:       304.0000000
  free_energy:       126.3960606
  entropy:            24.2455870
  heat_capacity:      60.1989428
  energy:            133.7667190

- temperature:       306.0000000
  free_energy:       126.3471726
  entropy:            24.6427187
  heat_capacity:      60.9263653
  energy:            133.8878446

- temperature:       308.0000000
  free_energy:       126.2974883
  entropy:            25.0419974
  heat_capacity:      61.6522853
  energy:            134.0104235

- temperature:       310.0000000
  free_energy:       126.2470032
  entropy:            25.4433852
  heat_capacity:      62.3766201
  energy:            134.1344527

- temperature:       312.0000000
  free_energy:       126.1957134
  entropy:            25.8468445
  heat_capacity:      63.0992894
  energy:            134.2599289

- temperature:       314.0000000
  free_energy:       126.1436145
  entropy:            26.2523380
  heat_capacity:      63.8202155
  energy:            134.3868487

- temperature:       316.0000000
  free_energy:       126.0907027
  entropy:            26.6598286
  heat_capacity:      64.5393230
  energy:            134.5152085

- temperature:       318.0000000
  free_energy:       126.0369739
  entropy:            27.0692792
  heat_capacity:      65.2565387
  energy:            134.6450047

- temperature:       320.0000000
  free_energy:       125.9824243
  entropy:            27.4806534
  heat_capacity:      65.9717920
  energy:            134.7762334

- temperature:       322.0000000
  free_energy:       125.9270500
  entropy:            27.8939145
  heat_capacity:      66.6850143
  energy:            134.9088905

- temperature:       324.0000000
  free_energy:       125.8708474
  entropy:            28.3090266
  heat_capacity:      67.3961396
  energy:            135.0429720

- temperature:       326.0000000
  free_energy:       125.8138127
  entropy:            28.7259537
  heat_capacity:      68.1051037
  energy:            135.1784736

- temperature:       328.0000000
  free_energy:       125.7559424
  entropy:            29.1446603
  heat_capacity:      68.8118450
  energy:            135.3153909

- temperature:       330.0000000
  free_energy:       125.6972329
  entropy:            29.5651108
  heat_capacity:      69.5163038
  energy:            135.4537195

- temperature:       332.0000000
  free_energy:       125.6376808
  entropy:            29.9872705
  heat_capacity:      70.2184226
  energy:            135.5934546

- temperature:       334.0000000
  free_energy:       125.5772827
  entropy:            30.4111044
  heat_capacity:      70.9181458
  energy:            135.7345916

- temperature:       336.0000000
  free_energy:       125.5160353
  entropy:            30.8365782
  heat_capacity:      71.6154202
  energy:            135.8771256

- temperature:       338.0000000
  free_energy:       125.4539353
  entropy:            31.2636576
  heat_capacity:      72.3101944
  energy:            136.0210516

- temperature:       340.0000000
  free_energy:       125.3909796
  entropy:            31.6923089
  heat_capacity:      73.0024188
  energy:            136.1663646

- temperature:       342.0000000
  free_energy:       125.3271651
  entropy:            32.1224985
  heat_capacity:      73.6920460
  energy:            136.3130595

- temperature:       344.0000000
  free_energy:       125.2624886
  entropy:            32.5541931
  heat_capacity:      74.3790305
  energy:            136.4611311

- temperature:       346.0000000
  free_energy:       125.1969473
  entropy:            32.9873600
  heat_capacity:      75.0633284
  energy:            136.6105739

- temperature:       348.0000000
  free_energy:       125.1305382
  entropy:            33.4219665
  heat_capacity:      75.7448978
  energy:            136.7613825

- temperature:       350.0000000
  free_energy:       125.0632585
  entropy:            33.8579803
  heat_capacity:      76.4236986
  energy:            136.9135516

- temperature:       352.0000000
  free_energy:       124.9951054
  entropy:            34.2953696
  heat_capacity:      77.0996924
  energy:            137.0670755

- temperature:       354.0000000
  free_energy:       124.9260761
  entropy:            34.7341027
  heat_capacity:      77.7728425
  energy:            137.2219485

- temperature:       356.0000000
  free_energy:       124.8561681
  entropy:            35.1741484