<?xml version="1.0" encoding="ISO-8859-1"?>
<modeling>
 <generator>
  <i name="program" type="string">vasp </i>
  <i name="version" type="string">5.4.4.18Apr17-6-g9f103f2a35  </i>
  <i name="subversion" type="string">(build Mar 12 2022 03:36:41) complex            parallel </i>
  <i name="platform" type="string">IFC19.0.3.199_CrayMPICH7.7.19 </i>
  <i name="date" type="string">2022 12 02 </i>
  <i name="time" type="string">11:32:15 </i>
 </generator>
 <incar>
  <i type="string" name="PREC">accurate</i>
  <i type="int" name="IALGO">    38</i>
  <i type="logical" name="ADDGRID"> T  </i>
  <i type="int" name="IBRION">     8</i>
  <i name="EDIFF">      0.00000001</i>
  <i type="logical" name="LREAL"> F  </i>
  <i type="int" name="ISMEAR">     0</i>
  <i name="SIGMA">      0.06000000</i>
  <i type="logical" name="LWAVE"> F  </i>
  <i type="logical" name="LCHARG"> F  </i>
  <v type="int" name="KPOINT_BSE">    -1     0     0     0</v>
 </incar>
 <structure name="primitive_cell" >
  <crystal>
   <varray name="basis" >
    <v>       1.84806546       0.00000000       1.79499968 </v>
    <v>      -1.84806546       0.00000000       1.79499968 </v>
    <v>       0.00000000      -1.84806546      -1.79499968 </v>
   </varray>
   <i name="volume">     12.26108977 </i>
   <varray name="rec_basis" >
    <v>       0.27055319      -0.27055319       0.27855158 </v>
    <v>      -0.27055319      -0.27055319       0.27855158 </v>
    <v>       0.00000000      -0.54110637       0.00000000 </v>
   </varray>
  </crystal>
  <varray name="positions" >
   <v>      -0.25000000       0.25000000      -0.50000000 </v>
   <v>      -0.50000000      -0.50000000       0.00000000 </v>
  </varray>
 </structure>
 <varray name="primitive_index" >
  <v type="int" >        1 </v>
  <v type="int" >       11 </v>
 </varray>
 <kpoints>
  <generation param="Gamma">
   <v type="int" name="divisions">       4        4        4 </v>
   <v name="usershift">      0.00000000       0.00000000       0.00000000 </v>
   <v name="genvec1">      0.25000000       0.00000000       0.00000000 </v>
   <v name="genvec2">      0.00000000       0.25000000       0.00000000 </v>
   <v name="genvec3">      0.00000000       0.00000000       0.25000000 </v>
   <v name="shift">      0.00000000       0.00000000       0.00000000 </v>
  </generation>
  <varray name="kpointlist" >
   <v>       0.00000000       0.00000000       0.00000000 </v>
   <v>       0.25000000       0.00000000       0.00000000 </v>
   <v>       0.50000000       0.00000000       0.00000000 </v>
   <v>       0.25000000       0.25000000       0.00000000 </v>
   <v>       0.50000000       0.25000000       0.00000000 </v>
   <v>       0.50000000       0.50000000       0.00000000 </v>
   <v>       0.00000000       0.00000000       0.25000000 </v>
   <v>       0.25000000       0.00000000       0.25000000 </v>
   <v>       0.50000000       0.00000000       0.25000000 </v>
   <v>       0.25000000       0.25000000       0.25000000 </v>
   <v>       0.50000000       0.25000000       0.25000000 </v>
   <v>       0.50000000       0.50000000       0.25000000 </v>
   <v>       0.00000000       0.00000000       0.50000000 </v>
   <v>       0.25000000       0.00000000       0.50000000 </v>
   <v>       0.50000000       0.00000000       0.50000000 </v>
   <v>       0.25000000       0.25000000       0.50000000 </v>
   <v>       0.50000000       0.25000000       0.50000000 </v>
   <v>       0.50000000       0.50000000       0.50000000 </v>
  </varray>
  <varray name="weights" >
   <v>       0.01562500 </v>
   <v>       0.06250000 </v>
   <v>       0.03125000 </v>
   <v>       0.06250000 </v>
   <v>       0.06250000 </v>
   <v>       0.01562500 </v>
   <v>       0.03125000 </v>
   <v>       0.12500000 </v>
   <v>       0.06250000 </v>
   <v>       0.12500000 </v>
   <v>       0.12500000 </v>
   <v>       0.03125000 </v>
   <v>       0.01562500 </v>
   <v>       0.06250000 </v>
   <v>       0.03125000 </v>
   <v>       0.06250000 </v>
   <v>       0.06250000 </v>
   <v>       0.01562500 </v>
  </varray>
 </kpoints>
 <parameters>
  <separator name="general" >
   <i type="string" name="SYSTEM">unknown system</i>
   <i type="logical" name="LCOMPAT"> F  </i>
  </separator>
  <separator name="electronic" >
   <i type="string" name="PREC">accura</i>
   <i name="ENMAX">    400.00000000</i>
   <i name="ENAUG">    644.87300000</i>
   <i name="EDIFF">      0.00000001</i>
   <i type="int" name="IALGO">    38</i>
   <i type="int" name="IWAVPR">    11</i>
   <i type="int" name="NBANDS">   192</i>
   <i name="NELECT">    256.00000000</i>
   <i type="int" name="TURBO">     0</i>
   <i type="int" name="IRESTART">     0</i>
   <i type="int" name="NREBOOT">     0</i>
   <i type="int" name="NMIN">     0</i>
   <i name="EREF">      0.00000000</i>
   <separator name="electronic smearing" >
    <i type="int" name="ISMEAR">     0</i>
    <i name="SIGMA">      0.06000000</i>
    <i name="KSPACING">      0.50000000</i>
    <i type="logical" name="KGAMMA"> T  </i>
   </separator>
   <separator name="electronic projectors" >
    <i type="logical" name="LREAL"> F  </i>
    <v name="ROPT">      0.00000000</v>
    <i type="int" name="LMAXPAW">  -100</i>
    <i type="int" name="LMAXMIX">     2</i>
    <i type="logical" name="NLSPLINE"> F  </i>
   </separator>
   <separator name="electronic startup" >
    <i type="int" name="ISTART">     0</i>
    <i type="int" name="ICHARG">     2</i>
    <i type="int" name="INIWAV">     1</i>
   </separator>
   <separator name="electronic spin" >
    <i type="int" name="ISPIN">     1</i>
    <i type="logical" name="LNONCOLLINEAR"> F  </i>
    <v name="MAGMOM">      1.00000000      1.00000000      1.00000000      1.00000000      1.00000000      1.00000000      1.00000000      1.00000000      1.00000000      1.00000000      1.00000000      1.00000000      1.00000000      1.00000000      1.00000000      1.00000000      1.00000000      1.00000000      1.00000000      1.00000000
      1.00000000      1.00000000      1.00000000      1.00000000      1.00000000      1.00000000      1.00000000      1.00000000      1.00000000      1.00000000      1.00000000      1.00000000      1.00000000      1.00000000      1.00000000      1.00000000      1.00000000      1.00000000      1.00000000      1.00000000
      1.00000000      1.00000000      1.00000000      1.00000000      1.00000000      1.00000000      1.00000000      1.00000000      1.00000000      1.00000000      1.00000000      1.00000000      1.00000000      1.00000000      1.00000000      1.00000000      1.00000000      1.00000000      1.00000000      1.00000000
      1.00000000      1.00000000      1.00000000      1.00000000</v>
    <i name="NUPDOWN">     -1.00000000</i>
    <i type="logical" name="LSORBIT"> F  </i>
    <v name="SAXIS">      0.00000000      0.00000000      1.00000000</v>
    <i type="logical" name="LSPIRAL"> F  </i>
    <v name="QSPIRAL">      0.00000000      0.00000000      0.00000000</v>
    <i type="logical" name="LZEROZ"> F  </i>
   </separator>
   <separator name="electronic exchange-correlation" >
    <i type="logical" name="LASPH"> F  </i>
    <i type="logical" name="LMETAGGA"> F  </i>
   </separator>
   <separator name="electronic convergence" >
    <i type="int" name="NELM">    60</i>
    <i type="int" name="NELMDL">    -5</i>
    <i type="int" name="NELMIN">     2</i>
    <i name="ENINI">    400.00000000</i>
    <separator name="electronic convergence detail" >
     <i type="logical" name="LDIAG"> T  </i>
     <i type="logical" name="LSUBROT"> F  </i>
     <i name="WEIMIN">      0.00100000</i>
     <i name="EBREAK">      0.00000000</i>
     <i name="DEPER">      0.30000000</i>
     <i type="int" name="NRMM">     4</i>
     <i name="TIME">      0.40000000</i>
    </separator>
   </separator>
   <separator name="electronic mixer" >
    <i name="AMIX">      0.40000000</i>
    <i name="BMIX">      1.00000000</i>
    <i name="AMIN">      0.10000000</i>
    <i name="AMIX_MAG">      1.60000000</i>
    <i name="BMIX_MAG">      1.00000000</i>
    <separator name="electronic mixer details" >
     <i type="int" name="IMIX">     4</i>
     <i type="logical" name="MIXFIRST"> F  </i>
     <i type="int" name="MAXMIX">   -45</i>
     <i name="WC">    100.00000000</i>
     <i type="int" name="INIMIX">     1</i>
     <i type="int" name="MIXPRE">     1</i>
     <i type="int" name="MREMOVE">     5</i>
    </separator>
   </separator>
   <separator name="electronic dipolcorrection" >
    <i type="logical" name="LDIPOL"> F  </i>
    <i type="logical" name="LMONO"> F  </i>
    <i type="int" name="IDIPOL">     0</i>
    <i name="EPSILON">      1.00000000</i>
    <v name="DIPOL">   -100.00000000   -100.00000000   -100.00000000</v>
    <i name="EFIELD">      0.00000000</i>
   </separator>
  </separator>
  <separator name="grids" >
   <i type="int" name="NGX">    48</i>
   <i type="int" name="NGY">    48</i>
   <i type="int" name="NGZ">    48</i>
   <i type="int" name="NGXF">    96</i>
   <i type="int" name="NGYF">    96</i>
   <i type="int" name="NGZF">    96</i>
   <i type="logical" name="ADDGRID"> T  </i>
  </separator>
  <separator name="ionic" >
   <i type="int" name="NSW">     1</i>
   <i type="int" name="IBRION">     8</i>
   <i type="int" name="MDALGO">     0</i>
   <i type="int" name="ISIF">     2</i>
   <i name="PSTRESS">      0.00000000</i>
   <i name="EDIFFG">      0.00000010</i>
   <i type="int" name="NFREE">     0</i>
   <i name="POTIM">      0.50000000</i>
   <i name="SMASS">     -3.00000000</i>
   <i name="SCALEE">      1.00000000</i>
  </separator>
  <separator name="ionic md" >
   <i name="TEBEG">      0.00010000</i>
   <i name="TEEND">      0.00010000</i>
   <i type="int" name="NBLOCK">     1</i>
   <i type="int" name="KBLOCK">     1</i>
   <i type="int" name="NPACO">   256</i>
   <i name="APACO">     16.00000000</i>
  </separator>
  <separator name="symmetry" >
   <i type="int" name="ISYM">     2</i>
   <i name="SYMPREC">      0.00001000</i>
  </separator>
  <separator name="dos" >
   <i type="int" name="LORBIT">     0</i>
   <v name="RWIGS">     -1.00000000</v>
   <i type="int" name="NEDOS">   301</i>
   <i name="EMIN">     10.00000000</i>
   <i name="EMAX">    -10.00000000</i>
   <i name="EFERMI">      0.00000000</i>
  </separator>
  <separator name="writing" >
   <i type="int" name="NWRITE">     2</i>
   <i type="logical" name="LWAVE"> F  </i>
   <i type="logical" name="LDOWNSAMPLE"> F  </i>
   <i type="logical" name="LCHARG"> F  </i>
   <i type="logical" name="LPARD"> F  </i>
   <i type="logical" name="LVTOT"> F  </i>
   <i type="logical" name="LVHAR"> F  </i>
   <i type="logical" name="LELF"> F  </i>
   <i type="logical" name="LOPTICS"> F  </i>
   <v name="STM">      0.00000000      0.00000000      0.00000000      0.00000000      0.00000000      0.00000000      0.00000000</v>
  </separator>
  <separator name="performance" >
   <i type="int" name="NPAR">    32</i>
   <i type="int" name="NSIM">     4</i>
   <i type="int" name="NBLK">    -1</i>
   <i type="logical" name="LPLANE"> T  </i>
   <i type="logical" name="LSCALAPACK"> T  </i>
   <i type="logical" name="LSCAAWARE"> F  </i>
   <i type="logical" name="LSCALU"> F  </i>
   <i type="logical" name="LASYNC"> F  </i>
   <i type="logical" name="LORBITALREAL"> F  </i>
  </separator>
  <separator name="miscellaneous" >
   <i type="int" name="IDIOT">     3</i>
   <i type="int" name="ISPECIAL">     0</i>
   <i type="logical" name="LMUSIC"> F  </i>
   <v name="POMASS">     12.01100000</v>
   <v name="DARWINR">      0.00000000</v>
   <v name="DARWINV">      1.00000000</v>
   <i type="logical" name="LCORR"> T  </i>
  </separator>
  <i type="logical" name="GGA_COMPAT"> T  </i>
  <i type="logical" name="LBERRY"> F  </i>
  <i type="int" name="ICORELEVEL">     0</i>
  <i type="logical" name="LDAU"> F  </i>
  <i type="int" name="I_CONSTRAINED_M">     0</i>
  <separator name="electronic exchange-correlation" >
   <i type="string" name="GGA">--</i>
   <i type="int" name="VOSKOWN">     0</i>
   <i type="logical" name="LHFCALC"> F  </i>
   <i type="string" name="PRECFOCK"></i>
   <i type="logical" name="LSYMGRAD"> F  </i>
   <i type="logical" name="LHFONE"> F  </i>
   <i type="logical" name="LRHFCALC"> F  </i>
   <i type="logical" name="LTHOMAS"> F  </i>
   <i type="logical" name="LMODELHF"> F  </i>
   <i name="ENCUT4O">     -1.00000000</i>
   <i type="int" name="EXXOEP">     0</i>
   <i type="int" name="FOURORBIT">     0</i>
   <i name="AEXX">      0.00000000</i>
   <i name="HFALPHA">      0.00000000</i>
   <i name="MCALPHA">      0.00000000</i>
   <i name="ALDAX">      1.00000000</i>
   <i name="AGGAX">      1.00000000</i>
   <i name="ALDAC">      1.00000000</i>
   <i name="AGGAC">      1.00000000</i>
   <i type="int" name="NKREDX">     1</i>
   <i type="int" name="NKREDY">     1</i>
   <i type="int" name="NKREDZ">     1</i>
   <i type="logical" name="SHIFTRED"> F  </i>
   <i type="logical" name="ODDONLY"> F  </i>
   <i type="logical" name="EVENONLY"> F  </i>
   <i type="int" name="LMAXFOCK">     0</i>
   <i type="int" name="NMAXFOCKAE">     0</i>
   <i type="logical" name="LFOCKAEDFT"> F  </i>
   <i name="HFSCREEN">      0.00000000</i>
   <i name="HFSCREENC">      0.00000000</i>
   <i type="int" name="NBANDSGWLOW">     0</i>
  </separator>
  <separator name="vdW DFT" >
   <i type="logical" name="LUSE_VDW"> F  </i>
   <i name="Zab_VDW">     -0.84910000</i>
   <i name="PARAM1">      0.12340000</i>
   <i name="PARAM2">      1.00000000</i>
   <i name="PARAM3">      0.00000000</i>
  </separator>
  <separator name="model GW" >
   <i type="int" name="MODEL_GW">     0</i>
   <i name="MODEL_EPS0">      3.67832693</i>
   <i name="MODEL_ALPHA">      1.00000000</i>
  </separator>
  <separator name="linear response parameters" >
   <i type="logical" name="LEPSILON"> F  </i>
   <i type="logical" name="LRPA"> F  </i>
   <i type="logical" name="LNABLA"> F  </i>
   <i type="logical" name="LVEL"> F  </i>
   <i type="int" name="KINTER">     0</i>
   <i name="CSHIFT">      0.10000000</i>
   <i name="OMEGAMAX">     -1.00000000</i>
   <i name="DEG_THRESHOLD">      0.00200000</i>
   <i name="RTIME">     -0.10000000</i>
   <i name="WPLASMAI">      0.00000000</i>
   <v name="DFIELD">      0.00000000      0.00000000      0.00000000</v>
   <v name="WPLASMA">      0.00000000      0.00000000      0.00000000      0.00000000      0.00000000      0.00000000      0.00000000      0.00000000      0.00000000</v>
  </separator>
  <separator name="orbital magnetization" >
   <i type="logical" name="NUCIND"> F  </i>
   <v name="MAGPOS">      0.00000000      0.00000000      0.00000000</v>
   <i type="logical" name="LNICSALL"> T  </i>
   <i type="logical" name="ORBITALMAG"> F  </i>
   <i type="logical" name="LMAGBLOCH"> F  </i>
   <i type="logical" name="LCHIMAG"> F  </i>
   <i type="logical" name="LGAUGE"> T  </i>
   <i type="int" name="MAGATOM">     0</i>
   <v name="MAGDIPOL">      0.00000000      0.00000000      0.00000000</v>
   <v name="AVECCONST">      0.00000000      0.00000000      0.00000000</v>
  </separator>
  <separator name="response functions" >
   <i type="logical" name="LADDER"> F  </i>
   <i type="logical" name="LRPAFORCE"> F  </i>
   <i type="logical" name="LFXC"> F  </i>
   <i type="logical" name="LHARTREE"> T  </i>
   <i type="int" name="IBSE">     0</i>
   <v type="int" name="KPOINT">    -1     0     0     0</v>
   <i type="logical" name="LTCTE"> F  </i>
   <i type="logical" name="LTETE"> F  </i>
   <i type="logical" name="LTRIPLET"> F  </i>
   <i type="logical" name="LFXCEPS"> F  </i>
   <i type="logical" name="LFXHEG"> F  </i>
   <i type="int" name="NATURALO">     2</i>
   <i type="logical" name="L2ORDER"> F  </i>
   <i type="logical" name="LMP2LT"> F  </i>
   <i type="logical" name="LUSEW"> F  </i>
   <i name="ENCUTGW">     -2.00000000</i>
   <i name="ENCUTGWSOFT">     -2.00000000</i>
   <i name="ENCUTLF">     -1.00000000</i>
   <i type="int" name="LMAXMP2">    -1</i>
   <i name="SCISSOR">      0.00000000</i>
   <i type="int" name="NOMEGA">     0</i>
   <i type="int" name="NOMEGAR">     0</i>
   <i type="int" name="NBANDSGW">    -1</i>
   <i type="int" name="NBANDSO">    -1</i>
   <i type="int" name="NBANDSV">    -1</i>
   <i type="int" name="NELM">     1</i>
   <i type="int" name="NELMHF">     1</i>
   <i type="int" name="DIM">     3</i>
   <i type="int" name="ANTIRES">     0</i>
   <i name="OMEGAMAX">    -30.00000000</i>
   <i name="OMEGAMIN">    -30.00000000</i>
   <i name="OMEGATL">   -200.00000000</i>
   <i type="int" name="OMEGAGRID">   140</i>
   <i name="CSHIFT">     -0.10000000</i>
   <i type="logical" name="SELFENERGY"> F  </i>
   <i type="logical" name="LSPECTRAL"> F  </i>
   <i type="logical" name="LSPECTRALGW"> F  </i>
   <i type="logical" name="LSINGLES"> F  </i>
   <i type="logical" name="LFERMIGW"> F  </i>
   <i type="logical" name="ODDONLYGW"> F  </i>
   <i type="logical" name="EVENONLYGW"> F  </i>
   <i type="int" name="NKREDLFX">     1</i>
   <i type="int" name="NKREDLFY">     1</i>
   <i type="int" name="NKREDLFZ">     1</i>
   <i type="int" name="MAXMEM">  2800</i>
   <i type="int" name="TELESCOPE">     0</i>
   <i type="int" name="TAUPAR">     1</i>
   <i type="int" name="OMEGAPAR">    -1</i>
   <i name="LAMBDA">      1.00000000</i>
  </separator>
  <separator name="External order field" >
   <i name="OFIELD_KAPPA">      0.00000000</i>
   <v name="OFIELD_K">      0.00000000      0.00000000      0.00000000</v>
   <i name="OFIELD_Q6_NEAR">      0.00000000</i>
   <i name="OFIELD_Q6_FAR">      0.00000000</i>
   <i name="OFIELD_A">      0.00000000</i>
  </separator>
 </parameters>
 <atominfo>
  <atoms>      64 </atoms>
  <types>       1 </types>
  <array name="atoms" >
   <dimension dim="1">ion</dimension>
   <field type="string">element</field>
   <field type="int">atomtype</field>
   <set>
    <rc><c>C </c><c>   1</c></rc>
    <rc><c>C </c><c>   1</c></rc>
    <rc><c>C </c><c>   1</c></rc>
    <rc><c>C </c><c>   1</c></rc>
    <rc><c>C </c><c>   1</c></rc>
    <rc><c>C </c><c>   1</c></rc>
    <rc><c>C </c><c>   1</c></rc>
    <rc><c>C </c><c>   1</c></rc>
    <rc><c>C </c><c>   1</c></rc>
    <rc><c>C </c><c>   1</c></rc>
    <rc><c>C </c><c>   1</c></rc>
    <rc><c>C </c><c>   1</c></rc>
    <rc><c>C </c><c>   1</c></rc>
    <rc><c>C </c><c>   1</c></rc>
    <rc><c>C </c><c>   1</c></rc>
    <rc><c>C </c><c>   1</c></rc>
    <rc><c>C </c><c>   1</c></rc>
    <rc><c>C </c><c>   1</c></rc>
    <rc><c>C </c><c>   1</c></rc>
    <rc><c>C </c><c>   1</c></rc>
    <rc><c>C </c><c>   1</c></rc>
    <rc><c>C </c><c>   1</c></rc>
    <rc><c>C </c><c>   1</c></rc>
    <rc><c>C </c><c>   1</c></rc>
    <rc><c>C </c><c>   1</c></rc>
    <rc><c>C </c><c>   1</c></rc>
    <rc><c>C </c><c>   1</c></rc>
    <rc><c>C </c><c>   1</c></rc>
    <rc><c>C </c><c>   1</c></rc>
    <rc><c>C </c><c>   1</c></rc>
    <rc><c>C </c><c>   1</c></rc>
    <rc><c>C </c><c>   1</c></rc>
    <rc><c>C </c><c>   1</c></rc>
    <rc><c>C </c><c>   1</c></rc>
    <rc><c>C </c><c>   1</c></rc>
    <rc><c>C </c><c>   1</c></rc>
    <rc><c>C </c><c>   1</c></rc>
    <rc><c>C </c><c>   1</c></rc>
    <rc><c>C </c><c>   1</c></rc>
    <rc><c>C </c><c>   1</c></rc>
    <rc><c>C </c><c>   1</c></rc>
    <rc><c>C </c><c>   1</c></rc>
    <rc><c>C </c><c>   1</c></rc>
    <rc><c>C </c><c>   1</c></rc>
    <rc><c>C </c><c>   1</c></rc>
    <rc><c>C </c><c>   1</c></rc>
    <rc><c>C </c><c>   1</c></rc>
    <rc><c>C </c><c>   1</c></rc>
    <rc><c>C </c><c>   1</c></rc>
    <rc><c>C </c><c>   1</c></rc>
    <rc><c>C </c><c>   1</c></rc>
    <rc><c>C </c><c>   1</c></rc>
    <rc><c>C </c><c>   1</c></rc>
    <rc><c>C </c><c>   1</c></rc>
    <rc><c>C </c><c>   1</c></rc>
    <rc><c>C </c><c>   1</c></rc>
    <rc><c>C </c><c>   1</c></rc>
    <rc><c>C </c><c>   1</c></rc>
    <rc><c>C </c><c>   1</c></rc>
    <rc><c>C </c><c>   1</c></rc>
    <rc><c>C </c><c>   1</c></rc>
    <rc><c>C </c><c>   1</c></rc>
    <rc><c>C </c><c>   1</c></rc>
    <rc><c>C </c><c>   1</c></rc>
   </set>
  </array>
  <array name="atomtypes" >
   <dimension dim="1">type</dimension>
   <field type="int">atomspertype</field>
   <field type="string">element</field>
   <field>mass</field>
   <field>valence</field>
   <field type="string">pseudopotential</field>
   <set>
    <rc><c>  64</c><c>C </c><c>     12.01100000</c><c>      4.00000000</c><c> PAW_PBE C 08Apr2002                    </c></rc>
   </set>
  </array>
 </atominfo>
 <structure name="initialpos" >
  <crystal>
   <varray name="basis" >
    <v>       7.39226185       0.00000000       0.00000000 </v>
    <v>       0.00000000       7.39226185       0.00000000 </v>
    <v>       0.00000000       0.00000000       7.17999872 </v>
   </varray>
   <i name="volume">    392.35487271 </i>
   <varray name="rec_basis" >
    <v>       0.13527659       0.00000000       0.00000000 </v>
    <v>       0.00000000       0.13527659       0.00000000 </v>
    <v>       0.00000000       0.00000000       0.13927579 </v>
   </varray>
  </crystal>
  <varray name="positions" >
   <v>       0.12500000       0.37500000       0.12500000 </v>
   <v>       0.62500000       0.37500000       0.12500000 </v>
   <v>       0.12500000       0.87500000       0.12500000 </v>
   <v>       0.62500000       0.87500000       0.12500000 </v>
   <v>       0.12500000       0.37500000       0.62500000 </v>
   <v>       0.62500000       0.37500000       0.62500000 </v>
   <v>       0.12500000       0.87500000       0.62500000 </v>
   <v>       0.62500000       0.87500000       0.62500000 </v>
   <v>       0.00000000       0.00000000       0.25000000 </v>
   <v>       0.50000000       0.00000000       0.25000000 </v>
   <v>       0.00000000       0.50000000       0.25000000 </v>
   <v>       0.50000000       0.50000000       0.25000000 </v>
   <v>       0.00000000       0.00000000       0.75000000 </v>
   <v>       0.50000000       0.00000000       0.75000000 </v>
   <v>       0.00000000       0.50000000       0.75000000 </v>
   <v>       0.50000000       0.50000000       0.75000000 </v>
   <v>       0.12500000       0.12500000       0.37500000 </v>
   <v>       0.62500000       0.12500000       0.37500000 </v>
   <v>       0.12500000       0.62500000       0.37500000 </v>
   <v>       0.62500000       0.62500000       0.37500000 </v>
   <v>       0.12500000       0.12500000       0.87500000 </v>
   <v>       0.62500000       0.12500000       0.87500000 </v>
   <v>       0.12500000       0.62500000       0.87500000 </v>
   <v>       0.62500000       0.62500000       0.87500000 </v>
   <v>       0.00000000       0.25000000       0.00000000 </v>
   <v>       0.50000000       0.25000000       0.00000000 </v>
   <v>       0.00000000       0.75000000       0.00000000 </v>
   <v>       0.50000000       0.75000000       0.00000000 </v>
   <v>       0.00000000       0.25000000       0.50000000 </v>
   <v>       0.50000000       0.25000000       0.50000000 </v>
   <v>       0.00000000       0.75000000       0.50000000 </v>
   <v>       0.50000000       0.75000000       0.50000000 </v>
   <v>       0.37500000       0.37500000       0.37500000 </v>
   <v>       0.87500000       0.37500000       0.37500000 </v>
   <v>       0.37500000       0.87500000       0.37500000 </v>
   <v>       0.87500000       0.87500000       0.37500000 </v>
   <v>       0.37500000       0.37500000       0.87500000 </v>
   <v>       0.87500000       0.37500000       0.87500000 </v>
   <v>       0.37500000       0.87500000       0.87500000 </v>
   <v>       0.87500000       0.87500000       0.87500000 </v>
   <v>       0.25000000       0.00000000       0.00000000 </v>
   <v>       0.75000000       0.00000000       0.00000000 </v>
   <v>       0.25000000       0.50000000       0.00000000 </v>
   <v>       0.75000000       0.50000000       0.00000000 </v>
   <v>       0.25000000       0.00000000       0.50000000 </v>
   <v>       0.75000000       0.00000000       0.50000000 </v>
   <v>       0.25000000       0.50000000       0.50000000 </v>
   <v>       0.75000000       0.50000000       0.50000000 </v>
   <v>       0.37500000       0.12500000       0.12500000 </v>
   <v>       0.87500000       0.12500000       0.12500000 </v>
   <v>       0.37500000       0.62500000       0.12500000 </v>
   <v>       0.87500000       0.62500000       0.12500000 </v>
   <v>       0.37500000       0.12500000       0.62500000 </v>
   <v>       0.87500000       0.12500000       0.62500000 </v>
   <v>       0.37500000       0.62500000       0.62500000 </v>
   <v>       0.87500000       0.62500000       0.62500000 </v>
   <v>       0.25000000       0.25000000       0.25000000 </v>
   <v>       0.75000000       0.25000000       0.25000000 </v>
   <v>       0.25000000       0.75000000       0.25000000 </v>
   <v>       0.75000000       0.75000000       0.25000000 </v>
   <v>       0.25000000       0.25000000       0.75000000 </v>
   <v>       0.75000000       0.25000000       0.75000000 </v>
   <v>       0.25000000       0.75000000       0.75000000 </v>
   <v>       0.75000000       0.75000000       0.75000000 </v>
  </varray>
 </structure>
 <calculation>
  <scstep>
   <time name="dav">   11.35   11.36</time>
   <time name="total">   11.45   11.50</time>
   <energy>
    <i name="alphaZ">    850.61452006 </i>
    <i name="ewald"> -10851.34196882 </i>
    <i name="hartreedc">   -618.97226407 </i>
    <i name="XCdc">    899.62173600 </i>
    <i name="pawpsdc">   2421.21235816 </i>
    <i name="pawaedc">  -2494.84305711 </i>
    <i name="eentropy">     -0.00915032 </i>
    <i name="bandstr">    874.98900793 </i>
    <i name="atom">   9416.14232778 </i>
    <i name="e_fr_energy">    497.41350961 </i>
    <i name="e_wo_entrp">    497.42265993 </i>
    <i name="e_0_energy">    497.41808477 </i>
   </energy>
  </scstep>
  <scstep>
   <time name="dav">   14.33   14.33</time>
   <time name="total">   14.33   14.33</time>
   <energy>
    <i name="e_fr_energy">   -551.81707265 </i>
    <i name="e_wo_entrp">   -551.81707265 </i>
    <i name="e_0_energy">   -551.81707265 </i>
   </energy>
  </scstep>
  <scstep>
   <time name="dav">   14.69   14.69</time>
   <time name="total">   14.69   14.69</time>
   <energy>
    <i name="e_fr_energy">   -594.14125190 </i>
    <i name="e_wo_entrp">   -594.14125190 </i>
    <i name="e_0_energy">   -594.14125190 </i>
   </energy>
  </scstep>
  <scstep>
   <time name="dav">   14.88   14.88</time>
   <time name="total">   14.88   14.89</time>
   <energy>
    <i name="e_fr_energy">   -594.65539337 </i>
    <i name="e_wo_entrp">   -594.65539337 </i>
    <i name="e_0_energy">   -594.65539337 </i>
   </energy>
  </scstep>
  <scstep>
   <time name="dav">   13.95   13.96</time>
   <time name="total">   14.41   14.41</time>
   <energy>
    <i name="e_fr_energy">   -594.66522112 </i>
    <i name="e_wo_entrp">   -594.66522112 </i>
    <i name="e_0_energy">   -594.66522112 </i>
   </energy>
  </scstep>
  <scstep>
   <time name="dav">   13.21   13.21</time>
   <time name="total">   13.76   13.76</time>
   <energy>
    <i name="e_fr_energy">   -582.86721891 </i>
    <i name="e_wo_entrp">   -582.86721891 </i>
    <i name="e_0_energy">   -582.86721891 </i>
   </energy>
  </scstep>
  <scstep>
   <time name="dav">   13.61   13.61</time>
   <time name="total">   14.17   14.17</time>
   <energy>
    <i name="e_fr_energy">   -578.87362445 </i>
    <i name="e_wo_entrp">   -578.87362445 </i>
    <i name="e_0_energy">   -578.87362445 </i>
   </energy>
  </scstep>
  <scstep>
   <time name="dav">   13.96   13.97</time>
   <time name="total">   14.51   14.51</time>
   <energy>
    <i name="e_fr_energy">   -578.92558890 </i>
    <i name="e_wo_entrp">   -578.92558890 </i>
    <i name="e_0_energy">   -578.92558890 </i>
   </energy>
  </scstep>
  <scstep>
   <time name="dav">   14.49   14.49</time>
   <time name="total">   15.03   15.04</time>
   <energy>
    <i name="e_fr_energy">   -578.92772459 </i>
    <i name="e_wo_entrp">   -578.92772459 </i>
    <i name="e_0_energy">   -578.92772459 </i>
   </energy>
  </scstep>
  <scstep>
   <time name="dav">   13.72   13.72</time>
   <time name="total">   14.26   14.27</time>
   <energy>
    <i name="e_fr_energy">   -578.92818676 </i>
    <i name="e_wo_entrp">   -578.92818676 </i>
    <i name="e_0_energy">   -578.92818676 </i>
   </energy>
  </scstep>
  <scstep>
   <time name="dav">   14.73   14.73</time>
   <time name="total">   15.27   15.27</time>
   <energy>
    <i name="e_fr_energy">   -578.92818977 </i>
    <i name="e_wo_entrp">   -578.92818977 </i>
    <i name="e_0_energy">   -578.92818977 </i>
   </energy>
  </scstep>
  <scstep>
   <time name="dav">   14.37   14.37</time>
   <time name="total">   14.92   14.93</time>
   <energy>
    <i name="e_fr_energy">   -578.92819007 </i>
    <i name="e_wo_entrp">   -578.92819007 </i>
    <i name="e_0_energy">   -578.92819007 </i>
   </energy>
  </scstep>
  <scstep>
   <time name="dav">   12.18   12.18</time>
   <time name="total">   12.72   12.72</time>
   <energy>
    <i name="e_fr_energy">   -578.92819020 </i>
    <i name="e_wo_entrp">   -578.92819020 </i>
    <i name="e_0_energy">   -578.92819020 </i>
   </energy>
  </scstep>
  <scstep>
   <time name="dav">   11.26   11.26</time>
   <time name="total">   11.36   11.36</time>
   <energy>
    <i name="alphaZ">    850.61452006 </i>
    <i name="ewald"> -10851.34196882 </i>
    <i name="hartreedc">   -878.54390888 </i>
    <i name="XCdc">    923.95552764 </i>
    <i name="pawpsdc">   3910.81030835 </i>
    <i name="pawaedc">  -3990.26513992 </i>
    <i name="eentropy">     -0.00000000 </i>
    <i name="bandstr">     39.70014358 </i>
    <i name="atom">   9416.14232778 </i>
    <i name="e_fr_energy">   -578.92819020 </i>
    <i name="e_wo_entrp">   -578.92819020 </i>
    <i name="e_0_energy">   -578.92819020 </i>
   </energy>
  </scstep>
  <structure>
   <crystal>
    <varray name="basis" >
     <v>       7.39226185       0.00000000       0.00000000 </v>
     <v>       0.00000000       7.39226185       0.00000000 </v>
     <v>       0.00000000       0.00000000       7.17999872 </v>
    </varray>
    <i name="volume">    392.35487271 </i>
    <varray name="rec_basis" >
     <v>       0.13527659       0.00000000       0.00000000 </v>
     <v>       0.00000000       0.13527659       0.00000000 </v>
     <v>       0.00000000       0.00000000       0.13927579 </v>
    </varray>
   </crystal>
   <varray name="positions" >
    <v>       0.12500000       0.37500000       0.12500000 </v>
    <v>       0.62500000       0.37500000       0.12500000 </v>
    <v>       0.12500000       0.87500000       0.12500000 </v>
    <v>       0.62500000       0.87500000       0.12500000 </v>
    <v>       0.12500000       0.37500000       0.62500000 </v>
    <v>       0.62500000       0.37500000       0.62500000 </v>
    <v>       0.12500000       0.87500000       0.62500000 </v>
    <v>       0.62500000       0.87500000       0.62500000 </v>
    <v>       0.00000000       0.00000000       0.25000000 </v>
    <v>       0.50000000       0.00000000       0.25000000 </v>
    <v>       0.00000000       0.50000000       0.25000000 </v>
    <v>       0.50000000       0.50000000       0.25000000 </v>
    <v>       0.00000000       0.00000000       0.75000000 </v>
    <v>       0.50000000       0.00000000       0.75000000 </v>
    <v>       0.00000000       0.50000000       0.75000000 </v>
    <v>       0.50000000       0.50000000       0.75000000 </v>
    <v>       0.12500000       0.12500000       0.37500000 </v>
    <v>       0.62500000       0.12500000       0.37500000 </v>
    <v>       0.12500000       0.62500000       0.37500000 </v>
    <v>       0.62500000       0.62500000       0.37500000 </v>
    <v>       0.12500000       0.12500000       0.87500000 </v>
    <v>       0.62500000       0.12500000       0.87500000 </v>
    <v>       0.12500000       0.62500000       0.87500000 </v>
    <v>       0.62500000       0.62500000       0.87500000 </v>
    <v>       0.00000000       0.25000000       0.00000000 </v>
    <v>       0.50000000       0.25000000       0.00000000 </v>
    <v>       0.00000000       0.75000000       0.00000000 </v>
    <v>       0.50000000       0.75000000       0.00000000 </v>
    <v>       0.00000000       0.25000000       0.50000000 </v>
    <v>       0.50000000       0.25000000       0.50000000 </v>
    <v>       0.00000000       0.75000000       0.50000000 </v>
    <v>       0.50000000       0.75000000       0.50000000 </v>
    <v>       0.37500000       0.37500000       0.37500000 </v>
    <v>       0.87500000       0.37500000       0.37500000 </v>
    <v>       0.37500000       0.87500000       0.37500000 </v>
    <v>       0.87500000       0.87500000       0.37500000 </v>
    <v>       0.37500000       0.37500000       0.87500000 </v>
    <v>       0.87500000       0.37500000       0.87500000 </v>
    <v>       0.37500000       0.87500000       0.87500000 </v>
    <v>       0.87500000       0.87500000       0.87500000 </v>
    <v>       0.25000000       0.00000000       0.00000000 </v>
    <v>       0.75000000       0.00000000       0.00000000 </v>
    <v>       0.25000000       0.50000000       0.00000000 </v>
    <v>       0.75000000       0.50000000       0.00000000 </v>
    <v>       0.25000000       0.00000000       0.50000000 </v>
    <v>       0.75000000       0.00000000       0.50000000 </v>
    <v>       0.25000000       0.50000000       0.50000000 </v>
    <v>       0.75000000       0.50000000       0.50000000 </v>
    <v>       0.37500000       0.12500000       0.12500000 </v>
    <v>       0.87500000       0.12500000       0.12500000 </v>
    <v>       0.37500000       0.62500000       0.12500000 </v>
    <v>       0.87500000       0.62500000       0.12500000 </v>
    <v>       0.37500000       0.12500000       0.62500000 </v>
    <v>       0.87500000       0.12500000       0.62500000 </v>
    <v>       0.37500000       0.62500000       0.62500000 </v>
    <v>       0.87500000       0.62500000       0.62500000 </v>
    <v>       0.25000000       0.25000000       0.25000000 </v>
    <v>       0.75000000       0.25000000       0.25000000 </v>
    <v>       0.25000000       0.75000000       0.25000000 </v>
    <v>       0.75000000       0.75000000       0.25000000 </v>
    <v>       0.25000000       0.25000000       0.75000000 </v>
    <v>       0.75000000       0.25000000       0.75000000 </v>
    <v>       0.25000000       0.75000000       0.75000000 </v>
    <v>       0.75000000       0.75000000       0.75000000 </v>
   </varray>
  </structure>
  <varray name="forces" >
   <v>       0.00000000      -0.00000000      -0.00000000 </v>
   <v>       0.00000000      -0.00000000       0.00000000 </v>
   <v>       0.00000000      -0.00000000      -0.00000000 </v>
   <v>       0.00000000      -0.00000000       0.00000000 </v>
   <v>      -0.00000000      -0.00000000       0.00000000 </v>
   <v>      -0.00000000      -0.00000000      -0.00000000 </v>
   <v>      -0.00000000      -0.00000000      -0.00000000 </v>
   <v>      -0.00000000      -0.00000000      -0.00000000 </v>
   <v>       0.00000000       0.00000000       0.00000000 </v>
   <v>      -0.00000000       0.00000000      -0.00000000 </v>
   <v>       0.00000000       0.00000000      -0.00000000 </v>
   <v>       0.00000000       0.00000000      -0.00000000 </v>
   <v>      -0.00000000       0.00000000      -0.00000000 </v>
   <v>      -0.00000000       0.00000000       0.00000000 </v>
   <v>       0.00000000       0.00000000       0.00000000 </v>
   <v>      -0.00000000       0.00000000      -0.00000000 </v>
   <v>       0.00000000      -0.00000000       0.00000000 </v>
   <v>      -0.00000000      -0.00000000       0.00000000 </v>
   <v>       0.00000000      -0.00000000      -0.00000000 </v>
   <v>      -0.00000000      -0.00000000      -0.00000000 </v>
   <v>      -0.00000000      -0.00000000      -0.00000000 </v>
   <v>      -0.00000000      -0.00000000       0.00000000 </v>
   <v>      -0.00000000      -0.00000000      -0.00000000 </v>
   <v>       0.00000000      -0.00000000      -0.00000000 </v>
   <v>      -0.00000000       0.00000000       0.00000000 </v>
   <v>       0.00000000       0.00000000      -0.00000000 </v>
   <v>       0.00000000      -0.00000000      -0.00000000 </v>
   <v>       0.00000000       0.00000000       0.00000000 </v>
   <v>       0.00000000       0.00000000      -0.00000000 </v>
   <v>      -0.00000000       0.00000000       0.00000000 </v>
   <v>      -0.00000000      -0.00000000      -0.00000000 </v>
   <v>      -0.00000000      -0.00000000       0.00000000 </v>
   <v>       0.00000000      -0.00000000      -0.00000000 </v>
   <v>       0.00000000      -0.00000000       0.00000000 </v>
   <v>      -0.00000000      -0.00000000       0.00000000 </v>
   <v>       0.00000000      -0.00000000       0.00000000 </v>
   <v>       0.00000000      -0.00000000       0.00000000 </v>
   <v>      -0.00000000      -0.00000000       0.00000000 </v>
   <v>       0.00000000       0.00000000       0.00000000 </v>
   <v>      -0.00000000      -0.00000000      -0.00000000 </v>
   <v>       0.00000000       0.00000000       0.00000000 </v>
   <v>       0.00000000       0.00000000       0.00000000 </v>
   <v>       0.00000000       0.00000000      -0.00000000 </v>
   <v>      -0.00000000       0.00000000      -0.00000000 </v>
   <v>      -0.00000000       0.00000000       0.00000000 </v>
   <v>       0.00000000       0.00000000      -0.00000000 </v>
   <v>      -0.00000000       0.00000000      -0.00000000 </v>
   <v>      -0.00000000       0.00000000       0.00000000 </v>
   <v>       0.00000000      -0.00000000      -0.00000000 </v>
   <v>      -0.00000000      -0.00000000       0.00000000 </v>
   <v>       0.00000000      -0.00000000       0.00000000 </v>
   <v>       0.00000000      -0.00000000      -0.00000000 </v>
   <v>       0.00000000      -0.00000000       0.00000000 </v>
   <v>       0.00000000      -0.00000000      -0.00000000 </v>
   <v>       0.00000000      -0.00000000       0.00000000 </v>
   <v>      -0.00000000      -0.00000000      -0.00000000 </v>
   <v>       0.00000000       0.00000000       0.00000000 </v>
   <v>      -0.00000000       0.00000000       0.00000000 </v>
   <v>      -0.00000000       0.00000000      -0.00000000 </v>
   <v>      -0.00000000       0.00000000       0.00000000 </v>
   <v>       0.00000000       0.00000000      -0.00000000 </v>
   <v>      -0.00000000       0.00000000       0.00000000 </v>
   <v>      -0.00000000       0.00000000       0.00000000 </v>
   <v>       0.00000000      -0.00000000      -0.00000000 </v>
  </varray>
  <varray name="stress" >
   <v>    -395.05464243       0.00000000       0.00000000 </v>
   <v>       0.00000000    -395.05464243       0.00000000 </v>
   <v>       0.00000000       0.00000000    -153.88937536 </v>
  </varray>
  <energy>
   <i name="e_fr_energy">   -578.92819020 </i>
   <i name="e_wo_entrp">   -578.92819020 </i>
   <i name="e_0_energy">     -0.00000000 </i>
  </energy>
  <kpoints>
   <generation param="Gamma">
    <v type="int" name="divisions">       4        4        4 </v>
    <v name="usershift">      0.00000000       0.00000000       0.00000000 </v>
    <v name="genvec1">      0.25000000       0.00000000       0.00000000 </v>
    <v name="genvec2">      0.00000000       0.25000000       0.00000000 </v>
    <v name="genvec3">      0.00000000       0.00000000       0.25000000 </v>
    <v name="shift">      0.00000000       0.00000000       0.00000000 </v>
   </generation>
   <varray name="kpointlist" >
    <v>       0.00000000       0.00000000       0.00000000 </v>
    <v>       0.25000000       0.00000000       0.00000000 </v>
    <v>       0.50000000       0.00000000       0.00000000 </v>
    <v>       0.00000000       0.25000000       0.00000000 </v>
    <v>       0.25000000       0.25000000       0.00000000 </v>
    <v>       0.50000000       0.25000000       0.00000000 </v>
    <v>       0.00000000       0.50000000       0.00000000 </v>
    <v>       0.25000000       0.50000000       0.00000000 </v>
    <v>       0.50000000       0.50000000       0.00000000 </v>
    <v>       0.00000000       0.00000000       0.25000000 </v>
    <v>       0.25000000       0.00000000       0.25000000 </v>
    <v>       0.50000000       0.00000000       0.25000000 </v>
    <v>       0.00000000       0.25000000       0.25000000 </v>
    <v>       0.25000000       0.25000000       0.25000000 </v>
    <v>       0.50000000       0.25000000       0.25000000 </v>
    <v>       0.00000000       0.50000000       0.25000000 </v>
    <v>       0.25000000       0.50000000       0.25000000 </v>
    <v>       0.50000000       0.50000000       0.25000000 </v>
    <v>       0.00000000      -0.25000000       0.25000000 </v>
    <v>       0.25000000      -0.25000000       0.25000000 </v>
    <v>       0.50000000      -0.25000000       0.25000000 </v>
    <v>       0.00000000       0.00000000       0.50000000 </v>
    <v>       0.25000000       0.00000000       0.50000000 </v>
    <v>       0.50000000       0.00000000       0.50000000 </v>
    <v>       0.00000000       0.25000000       0.50000000 </v>
    <v>       0.25000000       0.25000000       0.50000000 </v>
    <v>       0.50000000       0.25000000       0.50000000 </v>
    <v>       0.00000000       0.50000000       0.50000000 </v>
    <v>       0.25000000       0.50000000       0.50000000 </v>
    <v>       0.50000000       0.50000000       0.50000000 </v>
   </varray>
   <varray name="weights" >
    <v>       0.01562500 </v>
    <v>       0.03125000 </v>
    <v>       0.01562500 </v>
    <v>       0.03125000 </v>
    <v>       0.06250000 </v>
    <v>       0.03125000 </v>
    <v>       0.01562500 </v>
    <v>       0.03125000 </v>
    <v>       0.01562500 </v>
    <v>       0.03125000 </v>
    <v>       0.06250000 </v>
    <v>       0.03125000 </v>
    <v>       0.03125000 </v>
    <v>       0.06250000 </v>
    <v>       0.03125000 </v>
    <v>       0.03125000 </v>
    <v>       0.06250000 </v>
    <v>       0.03125000 </v>
    <v>       0.03125000 </v>
    <v>       0.06250000 </v>
    <v>       0.03125000 </v>
    <v>       0.01562500 </v>
    <v>       0.03125000 </v>
    <v>       0.01562500 </v>
    <v>       0.03125000 </v>
    <v>       0.06250000 </v>
    <v>       0.03125000 </v>
    <v>       0.01562500 </v>
    <v>       0.03125000 </v>
    <v>       0.01562500 </v>
   </varray>
  </kpoints>
  <scstep>
   <time name="total">   25.23   25.23</time>
   <energy>
    <i name="e_fr_energy">   -351.85770508 </i>
    <i name="e_wo_entrp">   -351.85770508 </i>
    <i name="e_0_energy">   -351.85770508 </i>
   </energy>
  </scstep>
  <scstep>
   <time name="total">   18.67   18.67</time>
   <energy>
    <i name="e_fr_energy">   -302.64549548 </i>
    <i name="e_wo_entrp">   -302.64549548 </i>
    <i name="e_0_energy">   -302.64549548 </i>
   </energy>
  </scstep>
  <scstep>
   <time name="total">   19.03   19.03</time>
   <energy>
    <i name="e_fr_energy">   -302.40011540 </i>
    <i name="e_wo_entrp">   -302.40011540 </i>
    <i name="e_0_energy">   -302.40011540 </i>
   </energy>
  </scstep>
  <scstep>
   <time name="total">   19.12   19.12</time>
   <energy>
    <i name="e_fr_energy">   -302.91030468 </i>
    <i name="e_wo_entrp">   -302.91030468 </i>
    <i name="e_0_energy">   -302.91030468 </i>
   </energy>
  </scstep>
  <scstep>
   <time name="total">   19.15   19.16</time>
   <energy>
    <i name="e_fr_energy">   -303.07035317 </i>
    <i name="e_wo_entrp">   -303.07035317 </i>
    <i name="e_0_energy">   -303.07035317 </i>
   </energy>
  </scstep>
  <scstep>
   <time name="total">   19.50   19.50</time>
   <energy>
    <i name="e_fr_energy">   -303.02803298 </i>
    <i name="e_wo_entrp">   -303.02803298 </i>
    <i name="e_0_energy">   -303.02803298 </i>
   </energy>
  </scstep>
  <scstep>
   <time name="total">   19.64   19.64</time>
   <energy>
    <i name="e_fr_energy">   -303.00632455 </i>
    <i name="e_wo_entrp">   -303.00632455 </i>
    <i name="e_0_energy">   -303.00632455 </i>
   </energy>
  </scstep>
  <scstep>
   <time name="total">   20.15   20.15</time>
   <energy>
    <i name="e_fr_energy">   -303.00509508 </i>
    <i name="e_wo_entrp">   -303.00509508 </i>
    <i name="e_0_energy">   -303.00509508 </i>
   </energy>
  </scstep>
  <scstep>
   <time name="total">   20.57   20.57</time>
   <energy>
    <i name="e_fr_energy">   -303.00509037 </i>
    <i name="e_wo_entrp">   -303.00509037 </i>
    <i name="e_0_energy">   -303.00509037 </i>
   </energy>
  </scstep>
  <scstep>
   <time name="total">   20.83   20.84</time>
   <energy>
    <i name="e_fr_energy">   -303.00520219 </i>
    <i name="e_wo_entrp">   -303.00520219 </i>
    <i name="e_0_energy">   -303.00520219 </i>
   </energy>
  </scstep>
  <scstep>
   <time name="total">   20.96   20.96</time>
   <energy>
    <i name="e_fr_energy">   -303.00524697 </i>
    <i name="e_wo_entrp">   -303.00524697 </i>
    <i name="e_0_energy">   -303.00524697 </i>
   </energy>
  </scstep>
  <kpoints>
   <generation param="Gamma">
    <v type="int" name="divisions">       4        4        4 </v>
    <v name="usershift">      0.00000000       0.00000000       0.00000000 </v>
    <v name="genvec1">      0.25000000       0.00000000       0.00000000 </v>
    <v name="genvec2">      0.00000000       0.25000000       0.00000000 </v>
    <v name="genvec3">      0.00000000       0.00000000       0.25000000 </v>
    <v name="shift">      0.00000000       0.00000000       0.00000000 </v>
   </generation>
   <varray name="kpointlist" >
    <v>       0.00000000       0.00000000       0.00000000 </v>
    <v>       0.25000000       0.00000000       0.00000000 </v>
    <v>       0.50000000       0.00000000       0.00000000 </v>
    <v>       0.25000000       0.25000000       0.00000000 </v>
    <v>       0.50000000       0.25000000       0.00000000 </v>
    <v>      -0.25000000       0.25000000       0.00000000 </v>
    <v>       0.50000000       0.50000000       0.00000000 </v>
    <v>       0.00000000       0.00000000       0.25000000 </v>
    <v>       0.25000000       0.00000000       0.25000000 </v>
    <v>       0.50000000       0.00000000       0.25000000 </v>
    <v>       0.25000000       0.25000000       0.25000000 </v>
    <v>       0.50000000       0.25000000       0.25000000 </v>
    <v>      -0.25000000       0.25000000       0.25000000 </v>
    <v>       0.50000000       0.50000000       0.25000000 </v>
    <v>       0.00000000       0.00000000       0.50000000 </v>
    <v>       0.25000000       0.00000000       0.50000000 </v>
    <v>       0.50000000       0.00000000       0.50000000 </v>
    <v>       0.25000000       0.25000000       0.50000000 </v>
    <v>       0.50000000       0.25000000       0.50000000 </v>
    <v>      -0.25000000       0.25000000       0.50000000 </v>
    <v>       0.50000000       0.50000000       0.50000000 </v>
   </varray>
   <varray name="weights" >
    <v>       0.01562500 </v>
    <v>       0.06250000 </v>
    <v>       0.03125000 </v>
    <v>       0.03125000 </v>
    <v>       0.06250000 </v>
    <v>       0.03125000 </v>
    <v>       0.01562500 </v>
    <v>       0.03125000 </v>
    <v>       0.12500000 </v>
    <v>       0.06250000 </v>
    <v>       0.06250000 </v>
    <v>       0.12500000 </v>
    <v>       0.06250000 </v>
    <v>       0.03125000 </v>
    <v>       0.01562500 </v>
    <v>       0.06250000 </v>
    <v>       0.03125000 </v>
    <v>       0.03125000 </v>
    <v>       0.06250000 </v>
    <v>       0.03125000 </v>
    <v>       0.01562500 </v>
   </varray>
  </kpoints>
  <scstep>
   <time name="total">   17.46   17.46</time>
   <energy>
    <i name="e_fr_energy">   -349.63102387 </i>
    <i name="e_wo_entrp">   -349.63102387 </i>
    <i name="e_0_energy">   -349.63102387 </i>
   </energy>
  </scstep>
  <scstep>
   <time name="total">   13.04   13.04</time>
   <energy>
    <i name="e_fr_energy">   -303.03140728 </i>
    <i name="e_wo_entrp">   -303.03140728 </i>
    <i name="e_0_energy">   -303.03140728 </i>
   </energy>
  </scstep>
  <scstep>
   <time name="total">   13.45   13.45</time>
   <energy>
    <i name="e_fr_energy">   -302.86335622 </i>
    <i name="e_wo_entrp">   -302.86335622 </i>
    <i name="e_0_energy">   -302.86335622 </i>
   </energy>
  </scstep>
  <scstep>
   <time name="total">   13.57   13.57</time>
   <energy>
    <i name="e_fr_energy">   -303.38175009 </i>
    <i name="e_wo_entrp">   -303.38175009 </i>
    <i name="e_0_energy">   -303.38175009 </i>
   </energy>
  </scstep>
  <scstep>
   <time name="total">   13.59   13.59</time>
   <energy>
    <i name="e_fr_energy">   -303.53061663 </i>
    <i name="e_wo_entrp">   -303.53061663 </i>
    <i name="e_0_energy">   -303.53061663 </i>
   </energy>
  </scstep>
  <scstep>
   <time name="total">   13.75   13.75</time>
   <energy>
    <i name="e_fr_energy">   -303.48812513 </i>
    <i name="e_wo_entrp">   -303.48812513 </i>
    <i name="e_0_energy">   -303.48812513 </i>
   </energy>
  </scstep>
  <scstep>
   <time name="total">   13.98   13.98</time>
   <energy>
    <i name="e_fr_energy">   -303.46870889 </i>
    <i name="e_wo_entrp">   -303.46870889 </i>
    <i name="e_0_energy">   -303.46870889 </i>
   </energy>
  </scstep>
  <scstep>
   <time name="total">   14.25   14.27</time>
   <energy>
    <i name="e_fr_energy">   -303.46794303 </i>
    <i name="e_wo_entrp">   -303.46794303 </i>
    <i name="e_0_energy">   -303.46794303 </i>
   </energy>
  </scstep>
  <scstep>
   <time name="total">   14.73   14.73</time>
   <energy>
    <i name="e_fr_energy">   -303.46817621 </i>
    <i name="e_wo_entrp">   -303.46817621 </i>
    <i name="e_0_energy">   -303.46817621 </i>
   </energy>
  </scstep>
  <scstep>
   <time name="total">   14.84   14.84</time>
   <energy>
    <i name="e_fr_energy">   -303.46759860 </i>
    <i name="e_wo_entrp">   -303.46759860 </i>
    <i name="e_0_energy">   -303.46759860 </i>
   </energy>
  </scstep>
  <scstep>
   <time name="total">   15.06   15.06</time>
   <energy>
    <i name="e_fr_energy">   -303.46700398 </i>
    <i name="e_wo_entrp">   -303.46700398 </i>
    <i name="e_0_energy">   -303.46700398 </i>
   </energy>
  </scstep>
  <kpoints>
   <generation param="Gamma">
    <v type="int" name="divisions">       4        4        4 </v>
    <v name="usershift">      0.00000000       0.00000000       0.00000000 </v>
    <v name="genvec1">      0.25000000       0.00000000       0.00000000 </v>
    <v name="genvec2">      0.00000000       0.25000000       0.00000000 </v>
    <v name="genvec3">      0.00000000       0.00000000       0.25000000 </v>
    <v name="shift">      0.00000000       0.00000000       0.00000000 </v>
   </generation>
   <varray name="kpointlist" >
    <v>       0.00000000       0.00000000       0.00000000 </v>
    <v>       0.25000000       0.00000000       0.00000000 </v>
    <v>       0.50000000       0.00000000       0.00000000 </v>
    <v>       0.25000000       0.25000000       0.00000000 </v>
    <v>       0.50000000       0.25000000       0.00000000 </v>
    <v>       0.50000000       0.50000000       0.00000000 </v>
    <v>       0.00000000       0.00000000       0.25000000 </v>
    <v>       0.25000000       0.00000000       0.25000000 </v>
    <v>       0.50000000       0.00000000       0.25000000 </v>
    <v>       0.25000000       0.25000000       0.25000000 </v>
    <v>       0.50000000       0.25000000       0.25000000 </v>
    <v>       0.50000000       0.50000000       0.25000000 </v>
    <v>       0.00000000       0.00000000       0.50000000 </v>
    <v>       0.25000000       0.00000000       0.50000000 </v>
    <v>       0.50000000       0.00000000       0.50000000 </v>
    <v>       0.25000000       0.25000000       0.50000000 </v>
    <v>       0.50000000       0.25000000       0.50000000 </v>
    <v>       0.50000000       0.50000000       0.50000000 </v>
   </varray>
   <varray name="weights" >
    <v>       0.01562500 </v>
    <v>       0.06250000 </v>
    <v>       0.03125000 </v>
    <v>       0.06250000 </v>
    <v>       0.06250000 </v>
    <v>       0.01562500 </v>
    <v>       0.03125000 </v>
    <v>       0.12500000 </v>
    <v>       0.06250000 </v>
    <v>       0.12500000 </v>
    <v>       0.12500000 </v>
    <v>       0.03125000 </v>
    <v>       0.01562500 </v>
    <v>       0.06250000 </v>
    <v>       0.03125000 </v>
    <v>       0.06250000 </v>
    <v>       0.06250000 </v>
    <v>       0.01562500 </v>
   </varray>
  </kpoints>
  <dynmat>
   <varray name="hessian" >
    <v>      -3.11442771       0.00000000      -0.00000000       0.01207221      -0.00000000       0.00000000       0.00725342       0.00000000       0.00000000       0.00722542       0.00000000      -0.00000000       0.00653651       0.00000000       0.00000000       0.00832269       0.00000000      -0.00000000      -0.04506129      -0.00000000       0.00000000       0.00385085       0.00000000       0.00000000      -0.01199762      -0.00785426       0.00136465       0.00395416      -0.00496027      -0.01601665       0.64548557      -0.08645508      -0.08031875      -0.00605157      -0.00785426      -0.00805725       0.02694143      -0.01659837      -0.01583539      -0.00256957      -0.00274849      -0.00250970      -0.01163600      -0.00006537      -0.00628430       0.00648267      -0.01659837      -0.00837485      -0.10640458       0.05215560      -0.05474235      -0.00354620       0.00289948      -0.00275539      -0.10640458       0.05215560       0.05474235      -0.00354620       0.00289948       0.00275539      -0.10640458      -0.05215560      -0.05474235      -0.00354620      -0.00289948      -0.00275539      -0.10640458      -0.05215560       0.05474235      -0.00354620      -0.00289948       0.00275539       0.64548557       0.08645508       0.08031875      -0.00605157       0.00785426       0.00805725      -0.01199762       0.00785426      -0.00136465       0.00395416       0.00496027       0.01601665      -0.01163600       0.00006537       0.00628430       0.00648267       0.01659837       0.00837485       0.02694143       0.01659837       0.01583539      -0.00256957       0.00274849       0.00250970       0.11679498      -0.05215560       0.12039818       0.11679498      -0.05215560      -0.12039818       0.00638729      -0.00289948      -0.00628794       0.00638729      -0.00289948       0.00628794       0.11679498       0.05215560      -0.12039818       0.11679498       0.05215560       0.12039818       0.00638729       0.00289948       0.00628794       0.00638729       0.00289948      -0.00628794      -0.01199762       0.00785426       0.00136465       0.00395416       0.00496027      -0.01601665       0.64548557       0.08645508      -0.08031875      -0.00605157       0.00785426      -0.00805725       0.02694143       0.01659837      -0.01583539      -0.00256957       0.00274849      -0.00250970      -0.01163600       0.00006537      -0.00628430       0.00648267       0.01659837      -0.00837485       0.10810749      -0.10882047       0.05318662       0.10810749       0.10882047       0.05318662       0.10810749       0.10882047      -0.05318662       0.10810749      -0.10882047      -0.05318662       0.00660893       0.00675476       0.00263684       0.00660893      -0.00675476       0.00263684       0.00660893      -0.00675476      -0.00263684       0.00660893       0.00675476      -0.00263684       0.64548557      -0.08645508       0.08031875      -0.00605157      -0.00785426       0.00805725      -0.01199762      -0.00785426      -0.00136465       0.00395416      -0.00496027       0.01601665      -0.01163600      -0.00006537       0.00628430       0.00648267      -0.01659837       0.00837485       0.02694143      -0.01659837       0.01583539      -0.00256957      -0.00274849       0.00250970 </v>
    <v>       0.00000000      -3.11442771      -0.00000000      -0.00000000       0.00725342      -0.00000000       0.00000000       0.01207221      -0.00000000       0.00000000       0.00722542      -0.00000000       0.00000000       0.00653651       0.00000000       0.00000000      -0.04506129       0.00000000      -0.00000000       0.00832269      -0.00000000       0.00000000       0.00385085       0.00000000      -0.00785426      -0.00605157       0.00805725      -0.00496027       0.00395416       0.01601665      -0.08645508       0.64548557       0.08031875      -0.00785426      -0.01199762      -0.00136465      -0.01659837       0.00648267       0.00837485      -0.00274849      -0.00256957       0.00250970      -0.00006537      -0.01163600       0.00628430      -0.01659837       0.02694143       0.01583539      -0.05215560       0.11679498      -0.12039818      -0.00289948       0.00638729       0.00628794      -0.05215560       0.11679498       0.12039818      -0.00289948       0.00638729      -0.00628794       0.05215560       0.11679498       0.12039818       0.00289948       0.00638729      -0.00628794       0.05215560       0.11679498      -0.12039818       0.00289948       0.00638729       0.00628794       0.08645508       0.64548557       0.08031875       0.00785426      -0.01199762      -0.00136465       0.00785426      -0.00605157       0.00805725       0.00496027       0.00395416       0.01601665       0.00006537      -0.01163600       0.00628430       0.01659837       0.02694143       0.01583539       0.01659837       0.00648267       0.00837485       0.00274849      -0.00256957       0.00250970       0.05215560      -0.10640458       0.05474235       0.05215560      -0.10640458      -0.05474235       0.00289948      -0.00354620       0.00275539       0.00289948      -0.00354620      -0.00275539      -0.05215560      -0.10640458       0.05474235      -0.05215560      -0.10640458      -0.05474235      -0.00289948      -0.00354620       0.00275539      -0.00289948      -0.00354620      -0.00275539       0.00785426      -0.00605157      -0.00805725       0.00496027       0.00395416      -0.01601665       0.08645508       0.64548557      -0.08031875       0.00785426      -0.01199762       0.00136465       0.01659837       0.00648267      -0.00837485       0.00274849      -0.00256957      -0.00250970       0.00006537      -0.01163600      -0.00628430       0.01659837       0.02694143      -0.01583539      -0.10882047       0.10810749      -0.05318662       0.10882047       0.10810749       0.05318662       0.10882047       0.10810749      -0.05318662      -0.10882047       0.10810749       0.05318662       0.00675476       0.00660893      -0.00263684      -0.00675476       0.00660893       0.00263684      -0.00675476       0.00660893      -0.00263684       0.00675476       0.00660893       0.00263684      -0.08645508       0.64548557      -0.08031875      -0.00785426      -0.01199762       0.00136465      -0.00785426      -0.00605157      -0.00805725      -0.00496027       0.00395416      -0.01601665      -0.00006537      -0.01163600      -0.00628430      -0.01659837       0.02694143      -0.01583539      -0.01659837       0.00648267      -0.00837485      -0.00274849      -0.00256957      -0.00250970 </v>
    <v>      -0.00000000      -0.00000000      -3.20323242       0.00000000      -0.00000000       0.00869783       0.00000000      -0.00000000       0.00869783      -0.00000000      -0.00000000      -0.04812111       0.00000000       0.00000000       0.01135976      -0.00000000       0.00000000       0.00871233       0.00000000      -0.00000000       0.00871233       0.00000000       0.00000000       0.00409493       0.00136465       0.00805725      -0.01312443      -0.01601665       0.01601665       0.02954120      -0.08031875       0.08031875       0.66672278      -0.00805725      -0.00136465      -0.01312443      -0.01583539       0.00837485       0.00714064      -0.00250970       0.00250970      -0.00279180      -0.00628430       0.00628430      -0.00353043      -0.00837485       0.01583539       0.00714064       0.05474235      -0.12039818       0.11265599       0.00275539       0.00628794       0.00629655      -0.05474235       0.12039818       0.11265599      -0.00275539      -0.00628794       0.00629655       0.05474235       0.12039818       0.11265599       0.00275539      -0.00628794       0.00629655      -0.05474235      -0.12039818       0.11265599      -0.00275539       0.00628794       0.00629655       0.08031875       0.08031875       0.66672278       0.00805725      -0.00136465      -0.01312443      -0.00136465       0.00805725      -0.01312443       0.01601665       0.01601665       0.02954120       0.00628430       0.00628430      -0.00353043       0.00837485       0.01583539       0.00714064       0.01583539       0.00837485       0.00714064       0.00250970       0.00250970      -0.00279180       0.12039818      -0.05474235       0.11265599      -0.12039818       0.05474235       0.11265599      -0.00628794      -0.00275539       0.00629655       0.00628794       0.00275539       0.00629655      -0.12039818      -0.05474235       0.11265599       0.12039818       0.05474235       0.11265599       0.00628794      -0.00275539       0.00629655      -0.00628794       0.00275539       0.00629655       0.00136465      -0.00805725      -0.01312443      -0.01601665      -0.01601665       0.02954120      -0.08031875      -0.08031875       0.66672278      -0.00805725       0.00136465      -0.01312443      -0.01583539      -0.00837485       0.00714064      -0.00250970      -0.00250970      -0.00279180      -0.00628430      -0.00628430      -0.00353043      -0.00837485      -0.01583539       0.00714064      -0.05318662       0.05318662      -0.11096424      -0.05318662      -0.05318662      -0.11096424       0.05318662       0.05318662      -0.11096424       0.05318662      -0.05318662      -0.11096424      -0.00263684       0.00263684      -0.00464537      -0.00263684      -0.00263684      -0.00464537       0.00263684       0.00263684      -0.00464537       0.00263684      -0.00263684      -0.00464537       0.08031875      -0.08031875       0.66672278       0.00805725       0.00136465      -0.01312443      -0.00136465      -0.00805725      -0.01312443       0.01601665      -0.01601665       0.02954120       0.00628430      -0.00628430      -0.00353043       0.00837485      -0.01583539       0.00714064       0.01583539      -0.00837485       0.00714064       0.00250970      -0.00250970      -0.00279180 </v>
    <v>       0.01207221      -0.00000000       0.00000000      -3.11442771       0.00000000      -0.00000000       0.00722542       0.00000000      -0.00000000       0.00725342       0.00000000       0.00000000       0.00832269       0.00000000      -0.00000000       0.00653651       0.00000000       0.00000000       0.00385085       0.00000000       0.00000000      -0.04506129      -0.00000000       0.00000000       0.00395416      -0.00496027      -0.01601665      -0.01199762      -0.00785426       0.00136465      -0.00605157      -0.00785426      -0.00805725       0.64548557      -0.08645508      -0.08031875      -0.00256957      -0.00274849      -0.00250970       0.02694143      -0.01659837      -0.01583539       0.00648267      -0.01659837      -0.00837485      -0.01163600      -0.00006537      -0.00628430      -0.00354620       0.00289948      -0.00275539      -0.10640458       0.05215560      -0.05474235      -0.00354620       0.00289948       0.00275539      -0.10640458       0.05215560       0.05474235      -0.00354620      -0.00289948      -0.00275539      -0.10640458      -0.05215560      -0.05474235      -0.00354620      -0.00289948       0.00275539      -0.10640458      -0.05215560       0.05474235      -0.00605157       0.00785426       0.00805725       0.64548557       0.08645508       0.08031875       0.00395416       0.00496027       0.01601665      -0.01199762       0.00785426      -0.00136465       0.00648267       0.01659837       0.00837485      -0.01163600       0.00006537       0.00628430      -0.00256957       0.00274849       0.00250970       0.02694143       0.01659837       0.01583539       0.11679498      -0.05215560      -0.12039818       0.11679498      -0.05215560       0.12039818       0.00638729      -0.00289948       0.00628794       0.00638729      -0.00289948      -0.00628794       0.11679498       0.05215560       0.12039818       0.11679498       0.05215560      -0.12039818       0.00638729       0.00289948      -0.00628794       0.00638729       0.00289948       0.00628794       0.00395416       0.00496027      -0.01601665      -0.01199762       0.00785426       0.00136465      -0.00605157       0.00785426      -0.00805725       0.64548557       0.08645508      -0.08031875      -0.00256957       0.00274849      -0.00250970       0.02694143       0.01659837      -0.01583539       0.00648267       0.01659837      -0.00837485      -0.01163600       0.00006537      -0.00628430       0.10810749       0.10882047       0.05318662       0.10810749      -0.10882047       0.05318662       0.10810749      -0.10882047      -0.05318662       0.10810749       0.10882047      -0.05318662       0.00660893      -0.00675476       0.00263684       0.00660893       0.00675476       0.00263684       0.00660893       0.00675476      -0.00263684       0.00660893      -0.00675476      -0.00263684      -0.00605157      -0.00785426       0.00805725       0.64548557      -0.08645508       0.08031875       0.00395416      -0.00496027       0.01601665      -0.01199762      -0.00785426      -0.00136465       0.00648267      -0.01659837       0.00837485      -0.01163600      -0.00006537       0.00628430      -0.00256957      -0.00274849       0.00250970       0.02694143      -0.01659837       0.01583539 </v>
    <v>      -0.00000000       0.00725342      -0.00000000       0.00000000      -3.11442771      -0.00000000       0.00000000       0.00722542      -0.00000000       0.00000000       0.01207221      -0.00000000       0.00000000      -0.04506129       0.00000000       0.00000000       0.00653651       0.00000000       0.00000000       0.00385085       0.00000000      -0.00000000       0.00832269      -0.00000000      -0.00496027       0.00395416       0.01601665      -0.00785426      -0.00605157       0.00805725      -0.00785426      -0.01199762      -0.00136465      -0.08645508       0.64548557       0.08031875      -0.00274849      -0.00256957       0.00250970      -0.01659837       0.00648267       0.00837485      -0.01659837       0.02694143       0.01583539      -0.00006537      -0.01163600       0.00628430      -0.00289948       0.00638729       0.00628794      -0.05215560       0.11679498      -0.12039818      -0.00289948       0.00638729      -0.00628794      -0.05215560       0.11679498       0.12039818       0.00289948       0.00638729      -0.00628794       0.05215560       0.11679498       0.12039818       0.00289948       0.00638729       0.00628794       0.05215560       0.11679498      -0.12039818       0.00785426      -0.01199762      -0.00136465       0.08645508       0.64548557       0.08031875       0.00496027       0.00395416       0.01601665       0.00785426      -0.00605157       0.00805725       0.01659837       0.02694143       0.01583539       0.00006537      -0.01163600       0.00628430       0.00274849      -0.00256957       0.00250970       0.01659837       0.00648267       0.00837485       0.05215560      -0.10640458      -0.05474235       0.05215560      -0.10640458       0.05474235       0.00289948      -0.00354620      -0.00275539       0.00289948      -0.00354620       0.00275539      -0.05215560      -0.10640458      -0.05474235      -0.05215560      -0.10640458       0.05474235      -0.00289948      -0.00354620      -0.00275539      -0.00289948      -0.00354620       0.00275539       0.00496027       0.00395416      -0.01601665       0.00785426      -0.00605157      -0.00805725       0.00785426      -0.01199762       0.00136465       0.08645508       0.64548557      -0.08031875       0.00274849      -0.00256957      -0.00250970       0.01659837       0.00648267      -0.00837485       0.01659837       0.02694143      -0.01583539       0.00006537      -0.01163600      -0.00628430       0.10882047       0.10810749       0.05318662      -0.10882047       0.10810749      -0.05318662      -0.10882047       0.10810749       0.05318662       0.10882047       0.10810749      -0.05318662      -0.00675476       0.00660893       0.00263684       0.00675476       0.00660893      -0.00263684       0.00675476       0.00660893       0.00263684      -0.00675476       0.00660893      -0.00263684      -0.00785426      -0.01199762       0.00136465      -0.08645508       0.64548557      -0.08031875      -0.00496027       0.00395416      -0.01601665      -0.00785426      -0.00605157      -0.00805725      -0.01659837       0.02694143      -0.01583539      -0.00006537      -0.01163600      -0.00628430      -0.00274849      -0.00256957      -0.00250970      -0.01659837       0.00648267      -0.00837485 </v>
    <v>       0.00000000      -0.00000000       0.00869783      -0.00000000      -0.00000000      -3.20323242      -0.00000000      -0.00000000      -0.04812111       0.00000000      -0.00000000       0.00869783      -0.00000000       0.00000000       0.00871233       0.00000000       0.00000000       0.01135976       0.00000000       0.00000000       0.00409493       0.00000000      -0.00000000       0.00871233      -0.01601665       0.01601665       0.02954120       0.00136465       0.00805725      -0.01312443      -0.00805725      -0.00136465      -0.01312443      -0.08031875       0.08031875       0.66672278      -0.00250970       0.00250970      -0.00279180      -0.01583539       0.00837485       0.00714064      -0.00837485       0.01583539       0.00714064      -0.00628430       0.00628430      -0.00353043       0.00275539       0.00628794       0.00629655       0.05474235      -0.12039818       0.11265599      -0.00275539      -0.00628794       0.00629655      -0.05474235       0.12039818       0.11265599       0.00275539      -0.00628794       0.00629655       0.05474235       0.12039818       0.11265599      -0.00275539       0.00628794       0.00629655      -0.05474235      -0.12039818       0.11265599       0.00805725      -0.00136465      -0.01312443       0.08031875       0.08031875       0.66672278       0.01601665       0.01601665       0.02954120      -0.00136465       0.00805725      -0.01312443       0.00837485       0.01583539       0.00714064       0.00628430       0.00628430      -0.00353043       0.00250970       0.00250970      -0.00279180       0.01583539       0.00837485       0.00714064      -0.12039818       0.05474235       0.11265599       0.12039818      -0.05474235       0.11265599       0.00628794       0.00275539       0.00629655      -0.00628794      -0.00275539       0.00629655       0.12039818       0.05474235       0.11265599      -0.12039818      -0.05474235       0.11265599      -0.00628794       0.00275539       0.00629655       0.00628794      -0.00275539       0.00629655      -0.01601665      -0.01601665       0.02954120       0.00136465      -0.00805725      -0.01312443      -0.00805725       0.00136465      -0.01312443      -0.08031875      -0.08031875       0.66672278      -0.00250970      -0.00250970      -0.00279180      -0.01583539      -0.00837485       0.00714064      -0.00837485      -0.01583539       0.00714064      -0.00628430      -0.00628430      -0.00353043      -0.05318662      -0.05318662      -0.11096424      -0.05318662       0.05318662      -0.11096424       0.05318662      -0.05318662      -0.11096424       0.05318662       0.05318662      -0.11096424      -0.00263684      -0.00263684      -0.00464537      -0.00263684       0.00263684      -0.00464537       0.00263684      -0.00263684      -0.00464537       0.00263684       0.00263684      -0.00464537       0.00805725       0.00136465      -0.01312443       0.08031875      -0.08031875       0.66672278       0.01601665      -0.01601665       0.02954120      -0.00136465      -0.00805725      -0.01312443       0.00837485      -0.01583539       0.00714064       0.00628430      -0.00628430      -0.00353043       0.00250970      -0.00250970      -0.00279180       0.01583539      -0.00837485       0.00714064 </v>
    <v>       0.00725342       0.00000000       0.00000000       0.00722542       0.00000000      -0.00000000      -3.11442771       0.00000000      -0.00000000       0.01207221      -0.00000000       0.00000000      -0.04506129      -0.00000000       0.00000000       0.00385085       0.00000000       0.00000000       0.00653651       0.00000000       0.00000000       0.00832269       0.00000000      -0.00000000       0.64548557      -0.08645508      -0.08031875      -0.00605157      -0.00785426      -0.00805725      -0.01199762      -0.00785426       0.00136465       0.00395416      -0.00496027      -0.01601665      -0.01163600      -0.00006537      -0.00628430       0.00648267      -0.01659837      -0.00837485       0.02694143      -0.01659837      -0.01583539      -0.00256957      -0.00274849      -0.00250970      -0.10640458       0.05215560       0.05474235      -0.00354620       0.00289948       0.00275539      -0.10640458       0.05215560      -0.05474235      -0.00354620       0.00289948      -0.00275539      -0.10640458      -0.05215560       0.05474235      -0.00354620      -0.00289948       0.00275539      -0.10640458      -0.05215560      -0.05474235      -0.00354620      -0.00289948      -0.00275539      -0.01199762       0.00785426      -0.00136465       0.00395416       0.00496027       0.01601665       0.64548557       0.08645508       0.08031875      -0.00605157       0.00785426       0.00805725       0.02694143       0.01659837       0.01583539      -0.00256957       0.00274849       0.00250970      -0.01163600       0.00006537       0.00628430       0.00648267       0.01659837       0.00837485       0.00638729      -0.00289948      -0.00628794       0.00638729      -0.00289948       0.00628794       0.11679498      -0.05215560       0.12039818       0.11679498      -0.05215560      -0.12039818       0.00638729       0.00289948       0.00628794       0.00638729       0.00289948      -0.00628794       0.11679498       0.05215560      -0.12039818       0.11679498       0.05215560       0.12039818       0.64548557       0.08645508      -0.08031875      -0.00605157       0.00785426      -0.00805725      -0.01199762       0.00785426       0.00136465       0.00395416       0.00496027      -0.01601665      -0.01163600       0.00006537      -0.00628430       0.00648267       0.01659837      -0.00837485       0.02694143       0.01659837      -0.01583539      -0.00256957       0.00274849      -0.00250970       0.10810749       0.10882047      -0.05318662       0.10810749      -0.10882047      -0.05318662       0.10810749      -0.10882047       0.05318662       0.10810749       0.10882047       0.05318662       0.00660893      -0.00675476      -0.00263684       0.00660893       0.00675476      -0.00263684       0.00660893       0.00675476       0.00263684       0.00660893      -0.00675476       0.00263684      -0.01199762      -0.00785426      -0.00136465       0.00395416      -0.00496027       0.01601665       0.64548557      -0.08645508       0.08031875      -0.00605157      -0.00785426       0.00805725       0.02694143      -0.01659837       0.01583539      -0.00256957      -0.00274849       0.00250970      -0.01163600      -0.00006537       0.00628430       0.00648267      -0.01659837       0.00837485 </v>
    <v>       0.00000000       0.01207221      -0.00000000       0.00000000       0.00722542      -0.00000000       0.00000000      -3.11442771      -0.00000000      -0.00000000       0.00725342      -0.00000000      -0.00000000       0.00832269      -0.00000000       0.00000000       0.00385085       0.00000000       0.00000000       0.00653651       0.00000000       0.00000000      -0.04506129       0.00000000      -0.08645508       0.64548557       0.08031875      -0.00785426      -0.01199762      -0.00136465      -0.00785426      -0.00605157       0.00805725      -0.00496027       0.00395416       0.01601665      -0.00006537      -0.01163600       0.00628430      -0.01659837       0.02694143       0.01583539      -0.01659837       0.00648267       0.00837485      -0.00274849      -0.00256957       0.00250970      -0.05215560       0.11679498       0.12039818      -0.00289948       0.00638729      -0.00628794      -0.05215560       0.11679498      -0.12039818      -0.00289948       0.00638729       0.00628794       0.05215560       0.11679498      -0.12039818       0.00289948       0.00638729       0.00628794       0.05215560       0.11679498       0.12039818       0.00289948       0.00638729      -0.00628794       0.00785426      -0.00605157       0.00805725       0.00496027       0.00395416       0.01601665       0.08645508       0.64548557       0.08031875       0.00785426      -0.01199762      -0.00136465       0.01659837       0.00648267       0.00837485       0.00274849      -0.00256957       0.00250970       0.00006537      -0.01163600       0.00628430       0.01659837       0.02694143       0.01583539       0.00289948      -0.00354620       0.00275539       0.00289948      -0.00354620      -0.00275539       0.05215560      -0.10640458       0.05474235       0.05215560      -0.10640458      -0.05474235      -0.00289948      -0.00354620       0.00275539      -0.00289948      -0.00354620      -0.00275539      -0.05215560      -0.10640458       0.05474235      -0.05215560      -0.10640458      -0.05474235       0.08645508       0.64548557      -0.08031875       0.00785426      -0.01199762       0.00136465       0.00785426      -0.00605157      -0.00805725       0.00496027       0.00395416      -0.01601665       0.00006537      -0.01163600      -0.00628430       0.01659837       0.02694143      -0.01583539       0.01659837       0.00648267      -0.00837485       0.00274849      -0.00256957      -0.00250970       0.10882047       0.10810749      -0.05318662      -0.10882047       0.10810749       0.05318662      -0.10882047       0.10810749      -0.05318662       0.10882047       0.10810749       0.05318662      -0.00675476       0.00660893      -0.00263684       0.00675476       0.00660893       0.00263684       0.00675476       0.00660893      -0.00263684      -0.00675476       0.00660893       0.00263684      -0.00785426      -0.00605157      -0.00805725      -0.00496027       0.00395416      -0.01601665      -0.08645508       0.64548557      -0.08031875      -0.00785426      -0.01199762       0.00136465      -0.01659837       0.00648267      -0.00837485      -0.00274849      -0.00256957      -0.00250970      -0.00006537      -0.01163600      -0.00628430      -0.01659837       0.02694143      -0.01583539 </v>
[...]
      </set>
     </set>
    </set>
   </array>
  </eigenvalues>
  <separator name="orbital magnetization" >
   <v name="MAGDIPOLOUT">      0.00000000      0.00000000      0.00000000</v>
  </separator>
  <dos>
   <i name="efermi">      9.25294577 </i>
   <total>
    <array>
     <dimension dim="1">gridpoints</dimension>
     <dimension dim="2">spin</dimension>
     <field>energy</field>
     <field>total</field>
     <field>integrated</field>
     <set>
      <set comment="spin 1">
       <r>   -13.3726     0.0000     0.0000 </r>
       <r>   -13.2572     0.0000     0.0000 </r>
       <r>   -13.1418     0.0000     0.0000 </r>
       <r>   -13.0264     0.0000     0.0000 </r>
       <r>   -12.9110     0.0000     0.0000 </r>
       <r>   -12.7956     0.0000     0.0000 </r>
       <r>   -12.6802     0.0000     0.0000 </r>
       <r>   -12.5648     0.0000     0.0000 </r>
       <r>   -12.4494     0.0000     0.0000 </r>
       <r>   -12.3340     0.0000     0.0000 </r>
       <r>   -12.2186     0.0000     0.0000 </r>
       <r>   -12.1032     0.0000     0.0000 </r>
       <r>   -11.9878     0.0000     0.0000 </r>
       <r>   -11.8724     0.0113     0.0013 </r>
       <r>   -11.7570     0.2370     0.0287 </r>
       <r>   -11.6416     1.1475     0.1611 </r>
       <r>   -11.5262     2.1103     0.4046 </r>
       <r>   -11.4108     2.2949     0.6694 </r>
       <r>   -11.2954     1.7653     0.8731 </r>
       <r>   -11.1800     1.8020     1.0811 </r>
       <r>   -11.0646     5.4920     1.7149 </r>
       <r>   -10.9492     5.5994     2.3610 </r>
       <r>   -10.8338     1.4839     2.5323 </r>
       <r>   -10.7184     1.4266     2.6969 </r>
       <r>   -10.6030     4.1301     3.1735 </r>
       <r>   -10.4876     6.8541     3.9645 </r>
       <r>   -10.3722     5.4373     4.5919 </r>
       <r>   -10.2568     5.4718     5.2234 </r>
       <r>   -10.1414     2.9017     5.5582 </r>
       <r>   -10.0260     4.3692     6.0624 </r>
       <r>    -9.9106     8.6948     7.0658 </r>
       <r>    -9.7952     6.5970     7.8271 </r>
       <r>    -9.6798     0.6620     7.9035 </r>
       <r>    -9.5644     3.0146     8.2514 </r>
       <r>    -9.4490    10.0820     9.4148 </r>
       <r>    -9.3336     8.5081    10.3967 </r>
       <r>    -9.2182     7.0974    11.2157 </r>
       <r>    -9.1028     5.6572    11.8685 </r>
       <r>    -8.9874     8.9936    12.9064 </r>
       <r>    -8.8720     8.6073    13.8997 </r>
       <r>    -8.7566     4.3399    14.4005 </r>
       <r>    -8.6412     1.8114    14.6095 </r>
       <r>    -8.5258     5.5800    15.2535 </r>
       <r>    -8.4104     8.3254    16.2142 </r>
       <r>    -8.2950    13.8516    17.8127 </r>
       <r>    -8.1796     9.9175    18.9572 </r>
       <r>    -8.0642     3.4294    19.3529 </r>
       <r>    -7.9488    13.1072    20.8655 </r>
       <r>    -7.8334    12.1315    22.2655 </r>
       <r>    -7.7180     4.6819    22.8057 </r>
       <r>    -7.6026     3.8762    23.2531 </r>
       <r>    -7.4872     7.5001    24.1186 </r>
       <r>    -7.3718    12.9320    25.6109 </r>
       <r>    -7.2564    10.4436    26.8161 </r>
       <r>    -7.1410    10.7313    28.0545 </r>
       <r>    -7.0256     7.6550    28.9379 </r>
       <r>    -6.9102    10.2864    30.1249 </r>
       <r>    -6.7948     9.8641    31.2632 </r>
       <r>    -6.6794     8.7738    32.2757 </r>
       <r>    -6.5640    10.0352    33.4338 </r>
       <r>    -6.4486    19.3223    35.6636 </r>
       <r>    -6.3332    14.8839    37.3812 </r>
       <r>    -6.2178    16.7021    39.3086 </r>
       <r>    -6.1024    13.2207    40.8342 </r>
       <r>    -5.9870     7.8095    41.7354 </r>
       <r>    -5.8716     7.4863    42.5994 </r>
       <r>    -5.7562    11.7823    43.9590 </r>
       <r>    -5.6408    11.2124    45.2529 </r>
       <r>    -5.5254     8.1008    46.1878 </r>
       <r>    -5.4100    12.7137    47.6549 </r>
       <r>    -5.2946    13.1555    49.1731 </r>
       <r>    -5.1792    10.8577    50.4260 </r>
       <r>    -5.0638     7.4876    51.2901 </r>
       <r>    -4.9484    11.4363    52.6099 </r>
       <r>    -4.8330     6.3294    53.3403 </r>
       <r>    -4.7176    16.0161    55.1885 </r>
       <r>    -4.6022    10.8404    56.4395 </r>
       <r>    -4.4868    11.5321    57.7703 </r>
       <r>    -4.3714     8.0194    58.6957 </r>
       <r>    -4.2560     7.2887    59.5368 </r>
       <r>    -4.1406     0.5745    59.6031 </r>
       <r>    -4.0252     3.1294    59.9643 </r>
       <r>    -3.9098     3.2820    60.3430 </r>
       <r>    -3.7944     3.9996    60.8046 </r>
       <r>    -3.6790     4.6343    61.3394 </r>
       <r>    -3.5636    18.0370    63.4208 </r>
       <r>    -3.4482     4.8101    63.9759 </r>
       <r>    -3.3328    11.0894    65.2556 </r>
       <r>    -3.2174     6.8145    66.0420 </r>
       <r>    -3.1020    16.0392    67.8929 </r>
       <r>    -2.9866    12.3269    69.3154 </r>
       <r>    -2.8712    14.6558    71.0067 </r>
       <r>    -2.7558     6.6863    71.7783 </r>
       <r>    -2.6404     6.1958    72.4933 </r>
       <r>    -2.5250    12.1292    73.8930 </r>
       <r>    -2.4096    18.3200    76.0071 </r>
       <r>    -2.2942    13.6837    77.5862 </r>
       <r>    -2.1788    19.0713    79.7870 </r>
       <r>    -2.0634    26.5693    82.8531 </r>
       <r>    -1.9480    19.8090    85.1391 </r>
       <r>    -1.8326     6.8284    85.9271 </r>
       <r>    -1.7172    22.0723    88.4742 </r>
       <r>    -1.6018    17.8106    90.5295 </r>
       <r>    -1.4864    12.7700    92.0032 </r>
       <r>    -1.3710    18.1398    94.0965 </r>
       <r>    -1.2556    13.1241    95.6110 </r>
       <r>    -1.1402    10.1139    96.7782 </r>
       <r>    -1.0248     2.8877    97.1114 </r>
       <r>    -0.9094     3.0429    97.4626 </r>
       <r>    -0.7940     8.3138    98.4220 </r>
       <r>    -0.6786    11.4439    99.7426 </r>
       <r>    -0.5632    17.2816   101.7369 </r>
       <r>    -0.4478     9.6270   102.8478 </r>
       <r>    -0.3324     1.8874   103.0656 </r>
       <r>    -0.2170     0.7453   103.1516 </r>
       <r>    -0.1016     8.9917   104.1893 </r>
       <r>     0.0138    12.1877   105.5957 </r>
       <r>     0.1292    14.9433   107.3202 </r>
       <r>     0.2446    16.7955   109.2584 </r>
       <r>     0.3600    22.2971   111.8315 </r>
       <r>     0.4754    16.2591   113.7077 </r>
       <r>     0.5908     6.8506   114.4983 </r>
       <r>     0.7062     8.0014   115.4217 </r>
       <r>     0.8216    19.9405   117.7228 </r>
       <r>     0.9370    20.9754   120.1433 </r>
       <r>     1.0524     8.4992   121.1241 </r>
       <r>     1.1678    20.6804   123.5106 </r>
       <r>     1.2832    31.3429   127.1276 </r>
       <r>     1.3986    22.7968   129.7584 </r>
       <r>     1.5140    19.1476   131.9680 </r>
       <r>     1.6294     8.7968   132.9831 </r>
       <r>     1.7448    11.4995   134.3102 </r>
       <r>     1.8602    11.4368   135.6300 </r>
       <r>     1.9756    25.2642   138.5454 </r>
       <r>     2.0910    18.1169   140.6361 </r>
       <r>     2.2064    17.7263   142.6817 </r>
       <r>     2.3218    16.9451   144.6372 </r>
       <r>     2.4372    24.4151   147.4547 </r>
       <r>     2.5526    27.1446   150.5871 </r>
       <r>     2.6680    37.9097   154.9619 </r>
       <r>     2.7834    31.6853   158.6184 </r>
       <r>     2.8988    18.7991   160.7878 </r>
       <r>     3.0142    18.7615   162.9529 </r>
       <r>     3.1296    12.8457   164.4352 </r>
       <r>     3.2450    17.6731   166.4747 </r>
       <r>     3.3604    22.4614   169.0668 </r>
       <r>     3.4758    30.3630   172.5706 </r>
       <r>     3.5912    36.5663   176.7904 </r>
       <r>     3.7066    32.7838   180.5736 </r>
       <r>     3.8220    31.1413   184.1673 </r>
       <r>     3.9374    33.4381   188.0260 </r>
       <r>     4.0528    18.6625   190.1797 </r>
       <r>     4.1682    17.5142   192.2008 </r>
       <r>     4.2836    14.7597   193.9041 </r>
       <r>     4.3990    23.2788   196.5904 </r>
       <r>     4.5143    28.8345   199.9179 </r>
       <r>     4.6297    22.5218   202.5169 </r>
       <r>     4.7451    20.5537   204.8888 </r>
       <r>     4.8605    30.0712   208.3590 </r>
       <r>     4.9759    22.6997   210.9786 </r>
       <r>     5.0913    27.9743   214.2068 </r>
       <r>     5.2067    27.5951   217.3912 </r>
       <r>     5.3221    16.2839   219.2704 </r>
       <r>     5.4375    23.5258   221.9853 </r>
       <r>     5.5529    14.9125   223.7062 </r>
       <r>     5.6683    23.0847   226.3701 </r>
       <r>     5.7837    21.0579   228.8002 </r>
       <r>     5.8991    17.8663   230.8620 </r>
       <r>     6.0145    19.2683   233.0855 </r>
       <r>     6.1299    27.7985   236.2934 </r>
       <r>     6.2453    24.2289   239.0894 </r>
       <r>     6.3607    14.9117   240.8102 </r>
       <r>     6.4761     8.5242   241.7939 </r>
       <r>     6.5915     6.8407   242.5834 </r>
       <r>     6.7069    11.2287   243.8791 </r>
       <r>     6.8223     8.6546   244.8779 </r>
       <r>     6.9377    16.1608   246.7428 </r>
       <r>     7.0531     9.2278   247.8077 </r>
       <r>     7.1685    11.9670   249.1887 </r>
       <r>     7.2839    12.2827   250.6061 </r>
       <r>     7.3993     6.0632   251.3058 </r>
       <r>     7.5147     2.0047   251.5371 </r>
       <r>     7.6301     3.3972   251.9292 </r>
       <r>     7.7455     4.6842   252.4697 </r>
       <r>     7.8609     7.0345   253.2815 </r>
       <r>     7.9763     5.9563   253.9689 </r>
       <r>     8.0917     7.0121   254.7781 </r>
       <r>     8.2071     2.9134   255.1143 </r>
       <r>     8.3225     2.2024   255.3684 </r>
       <r>     8.4379     1.5622   255.5487 </r>
       <r>     8.5533     1.0070   255.6649 </r>
       <r>     8.6687     2.3913   255.9409 </r>
       <r>     8.7841     0.2415   255.9687 </r>
       <r>     8.8995     0.0187   255.9709 </r>
       <r>     9.0149     0.2228   255.9966 </r>
       <r>     9.1303     0.0293   256.0000 </r>
       <r>     9.2457     0.0000   256.0000 </r>
       <r>     9.3611     0.0000   256.0000 </r>
       <r>     9.4765     0.0000   256.0000 </r>
       <r>     9.5919     0.0000   256.0000 </r>
       <r>     9.7073     0.0000   256.0000 </r>
       <r>     9.8227     0.0000   256.0000 </r>
       <r>     9.9381     0.0000   256.0000 </r>
       <r>    10.0535     0.0000   256.0000 </r>
       <r>    10.1689     0.0000   256.0000 </r>
       <r>    10.2843     0.0000   256.0000 </r>
       <r>    10.3997     0.0000   256.0000 </r>
       <r>    10.5151     0.0000   256.0000 </r>
       <r>    10.6305     0.0000   256.0000 </r>
       <r>    10.7459     0.0000   256.0000 </r>
       <r>    10.8613     0.0000   256.0000 </r>
       <r>    10.9767     0.0000   256.0000 </r>
       <r>    11.0921     0.0000   256.0000 </r>
       <r>    11.2075     0.0000   256.0000 </r>
       <r>    11.3229     0.0000   256.0000 </r>
       <r>    11.4383     0.0000   256.0000 </r>
       <r>    11.5537     0.0000   256.0000 </r>
       <r>    11.6691     0.0000   256.0000 </r>
       <r>    11.7845     0.0000   256.0000 </r>
       <r>    11.8999     0.0000   256.0000 </r>
       <r>    12.0153     0.0000   256.0000 </r>
       <r>    12.1307     0.0339   256.0039 </r>
       <r>    12.2461     0.5898   256.0720 </r>
       <r>    12.3615     0.7019   256.1530 </r>
       <r>    12.4769     0.3250   256.1905 </r>
       <r>    12.5923     0.4416   256.2414 </r>
       <r>    12.7077     0.2859   256.2744 </r>
       <r>    12.8231     2.9641   256.6165 </r>
       <r>    12.9385     5.3667   257.2358 </r>
       <r>    13.0539     5.7597   257.9005 </r>
       <r>    13.1693     5.3191   258.5143 </r>
       <r>    13.2847     2.0511   258.7510 </r>
       <r>    13.4001     3.3816   259.1412 </r>
       <r>    13.5155    11.1372   260.4265 </r>
       <r>    13.6309     7.9884   261.3483 </r>
       <r>    13.7463    16.0110   263.1960 </r>
       <r>    13.8617    13.0105   264.6974 </r>
       <r>    13.9771     9.2909   265.7695 </r>
       <r>    14.0925    14.1368   267.4009 </r>
       <r>    14.2079     8.8111   268.4177 </r>
       <r>    14.3233    12.2732   269.8340 </r>
       <r>    14.4387    17.7361   271.8808 </r>
       <r>    14.5541    15.7558   273.6990 </r>
       <r>    14.6695    19.2731   275.9231 </r>
       <r>    14.7849    23.8356   278.6737 </r>
       <r>    14.9003    17.5412   280.6980 </r>
       <r>    15.0157    19.8822   282.9924 </r>
       <r>    15.1311    20.1300   285.3154 </r>
       <r>    15.2465    18.4378   287.4431 </r>
       <r>    15.3619    21.1874   289.8881 </r>
       <r>    15.4773    29.4840   293.2905 </r>
       <r>    15.5927    23.6694   296.0220 </r>
       <r>    15.7081    18.8361   298.1956 </r>
       <r>    15.8235    20.4678   300.5576 </r>
       <r>    15.9389    21.7827   303.0713 </r>
       <r>    16.0543    24.1180   305.8546 </r>
       <r>    16.1697    30.9078   309.4213 </r>
       <r>    16.2851    40.1790   314.0579 </r>
       <r>    16.4005    46.7369   319.4514 </r>
       <r>    16.5159    51.8891   325.4393 </r>
       <r>    16.6313    41.4712   330.2251 </r>
       <r>    16.7467    22.5735   332.8301 </r>
       <r>    16.8621    24.0285   335.6029 </r>
       <r>    16.9775    22.6417   338.2158 </r>
       <r>    17.0929    32.4265   341.9578 </r>
       <r>    17.2083    32.1562   345.6686 </r>
       <r>    17.3237    44.7330   350.8308 </r>
       <r>    17.4391    42.4500   355.7295 </r>
       <r>    17.5545    26.2393   358.7575 </r>
       <r>    17.6699    18.9772   360.9474 </r>
       <r>    17.7853    26.4331   363.9978 </r>
       <r>    17.9007    30.0941   367.4707 </r>
       <r>    18.0161    27.4185   370.6347 </r>
       <r>    18.1315    26.6650   373.7119 </r>
       <r>    18.2469    16.3948   375.6038 </r>
       <r>    18.3623    18.2132   377.7056 </r>
       <r>    18.4777     9.9306   378.8516 </r>
       <r>    18.5931    14.1877   380.4889 </r>
       <r>    18.7085     7.9724   381.4089 </r>
       <r>    18.8239     8.8439   382.4295 </r>
       <r>    18.9393     2.0819   382.6697 </r>
       <r>    19.0547     5.5102   383.3056 </r>
       <r>    19.1701     1.6754   383.4989 </r>
       <r>    19.2855     0.0121   383.5003 </r>
       <r>    19.4009     0.7107   383.5823 </r>
       <r>    19.5163     1.4147   383.7456 </r>
       <r>    19.6317     0.3878   383.7903 </r>
       <r>    19.7471     1.7264   383.9896 </r>
       <r>    19.8625     0.0904   384.0000 </r>
       <r>    19.9779     0.0000   384.0000 </r>
       <r>    20.0933     0.0000   384.0000 </r>
       <r>    20.2087     0.0000   384.0000 </r>
       <r>    20.3241     0.0000   384.0000 </r>
       <r>    20.4395     0.0000   384.0000 </r>
       <r>    20.5549     0.0000   384.0000 </r>
       <r>    20.6703     0.0000   384.0000 </r>
       <r>    20.7857     0.0000   384.0000 </r>
       <r>    20.9011     0.0000   384.0000 </r>
       <r>    21.0165     0.0000   384.0000 </r>
       <r>    21.1319     0.0000   384.0000 </r>
       <r>    21.2473     0.0000   384.0000 </r>
      </set>
     </set>
    </array>
   </total>
  </dos>
 </calculation>
 <structure name="finalpos" >
  <crystal>
   <varray name="basis" >
    <v>       7.39226185       0.00000000       0.00000000 </v>
    <v>       0.00000000       7.39226185       0.00000000 </v>
    <v>       0.00000000       0.00000000       7.17999872 </v>
   </varray>
   <i name="volume">    392.35487271 </i>
   <varray name="rec_basis" >
    <v>       0.13527659       0.00000000       0.00000000 </v>
    <v>       0.00000000       0.13527659       0.00000000 </v>
    <v>       0.00000000       0.00000000       0.13927579 </v>
   </varray>
  </crystal>
  <varray name="positions" >
   <v>       0.12500000       0.37500000       0.12500000 </v>
   <v>       0.62500000       0.37500000       0.12500000 </v>
   <v>       0.12500000       0.87500000       0.12500000 </v>
   <v>       0.62500000       0.87500000       0.12500000 </v>
   <v>       0.12500000       0.37500000       0.62500000 </v>
   <v>       0.62500000       0.37500000       0.62500000 </v>
   <v>       0.12500000       0.87500000       0.62500000 </v>
   <v>       0.62500000       0.87500000       0.62500000 </v>
   <v>       0.00000000       0.00000000       0.25000000 </v>
   <v>       0.50000000       0.00000000       0.25000000 </v>
   <v>       0.00000000       0.50000000       0.25000000 </v>
   <v>       0.50000000       0.50000000       0.25000000 </v>
   <v>       0.00000000       0.00000000       0.75000000 </v>
   <v>       0.50000000       0.00000000       0.75000000 </v>
   <v>       0.00000000       0.50000000       0.75000000 </v>
   <v>       0.50000000       0.50000000       0.75000000 </v>
   <v>       0.12500000       0.12500000       0.37500000 </v>
   <v>       0.62500000       0.12500000       0.37500000 </v>
   <v>       0.12500000       0.62500000       0.37500000 </v>
   <v>       0.62500000       0.62500000       0.37500000 </v>
   <v>       0.12500000       0.12500000       0.87500000 </v>
   <v>       0.62500000       0.12500000       0.87500000 </v>
   <v>       0.12500000       0.62500000       0.87500000 </v>
   <v>       0.62500000       0.62500000       0.87500000 </v>
   <v>       0.00000000       0.25000000       0.00000000 </v>
   <v>       0.50000000       0.25000000       0.00000000 </v>
   <v>       0.00000000       0.75000000       0.00000000 </v>
   <v>       0.50000000       0.75000000       0.00000000 </v>
   <v>       0.00000000       0.25000000       0.50000000 </v>
   <v>       0.50000000       0.25000000       0.50000000 </v>
   <v>       0.00000000       0.75000000       0.50000000 </v>
   <v>       0.50000000       0.75000000       0.50000000 </v>
   <v>       0.37500000       0.37500000       0.37500000 </v>
   <v>       0.87500000       0.37500000       0.37500000 </v>
   <v>       0.37500000       0.87500000       0.37500000 </v>
   <v>       0.87500000       0.87500000       0.37500000 </v>
   <v>       0.37500000       0.37500000       0.87500000 </v>
   <v>       0.87500000       0.37500000       0.87500000 </v>
   <v>       0.37500000       0.87500000       0.87500000 </v>
   <v>       0.87500000       0.87500000       0.87500000 </v>
   <v>       0.25000000       0.00000000       0.00000000 </v>
   <v>       0.75000000       0.00000000       0.00000000 </v>
   <v>       0.25000000       0.50000000       0.00000000 </v>
   <v>       0.75000000       0.50000000       0.00000000 </v>
   <v>       0.25000000       0.00000000       0.50000000 </v>
   <v>       0.75000000       0.00000000       0.50000000 </v>
   <v>       0.25000000       0.50000000       0.50000000 </v>
   <v>       0.75000000       0.50000000       0.50000000 </v>
   <v>       0.37500000       0.12500000       0.12500000 </v>
   <v>       0.87500000       0.12500000       0.12500000 </v>
   <v>       0.37500000       0.62500000       0.12500000 </v>
   <v>       0.87500000       0.62500000       0.12500000 </v>
   <v>       0.37500000       0.12500000       0.62500000 </v>
   <v>       0.87500000       0.12500000       0.62500000 </v>
   <v>       0.37500000       0.62500000       0.62500000 </v>
   <v>       0.87500000       0.62500000       0.62500000 </v>
   <v>       0.25000000       0.25000000       0.25000000 </v>
   <v>       0.75000000       0.25000000       0.25000000 </v>
   <v>       0.25000000       0.75000000       0.25000000 </v>
   <v>       0.75000000       0.75000000       0.25000000 </v>
   <v>       0.25000000       0.25000000       0.75000000 </v>
   <v>       0.75000000       0.25000000       0.75000000 </v>
   <v>       0.25000000       0.75000000       0.75000000 </v>
   <v>       0.75000000       0.75000000       0.75000000 </v>
  </varray>
 </structure>
</modeling>
