   8   8   0   0
  0.5199476E+01  0.3464840E-09  0.3464840E-09  0.3464840E-09  0.2000000E-16
  1.000000000000000E-004
  CAR 
 unknown system                          
     25.28435607    -13.38145146  301     11.12300406      1.00000000
    -13.381  0.0000E+00  0.0000E+00
    -13.253  0.0000E+00  0.0000E+00
    -13.124  0.0000E+00  0.0000E+00
    -12.995  0.0000E+00  0.0000E+00
    -12.866  0.0000E+00  0.0000E+00
    -12.737  0.0000E+00  0.0000E+00
    -12.608  0.0000E+00  0.0000E+00
    -12.479  0.0000E+00  0.0000E+00
    -12.350  0.0000E+00  0.0000E+00
    -12.221  0.0000E+00  0.0000E+00
    -12.093  0.0000E+00  0.0000E+00
    -11.964  0.0000E+00  0.0000E+00
    -11.835  0.0000E+00  0.0000E+00
    -11.706  0.0000E+00  0.0000E+00
    -11.577  0.3235E-01  0.5054E-03
    -11.448  0.1441E+00  0.1479E-01
    -11.319  0.2259E+00  0.3858E-01
    -11.190  0.2552E+00  0.6930E-01
    -11.062  0.2994E+00  0.1051E+00
    -10.933  0.3376E+00  0.1466E+00
    -10.804  0.3644E+00  0.1917E+00
    -10.675  0.3929E+00  0.2404E+00
    -10.546  0.4285E+00  0.2933E+00
    -10.417  0.4506E+00  0.3502E+00
    -10.288  0.4722E+00  0.4097E+00
    -10.159  0.4958E+00  0.4720E+00
    -10.030  0.5220E+00  0.5376E+00
     -9.902  0.5478E+00  0.6066E+00
     -9.773  0.5652E+00  0.6783E+00
     -9.644  0.5836E+00  0.7523E+00
     -9.515  0.6036E+00  0.8288E+00
     -9.386  0.6243E+00  0.9079E+00
     -9.257  0.6464E+00  0.9898E+00
     -9.128  0.6669E+00  0.1075E+01
     -8.999  0.6829E+00  0.1161E+01
     -8.870  0.6987E+00  0.1251E+01
     -8.742  0.7168E+00  0.1342E+01
     -8.613  0.7354E+00  0.1435E+01
     -8.484  0.7547E+00  0.1531E+01
     -8.355  0.7748E+00  0.1630E+01
     -8.226  0.7909E+00  0.1731E+01
     -8.097  0.8065E+00  0.1834E+01
     -7.968  0.8228E+00  0.1939E+01
     -7.839  0.8399E+00  0.2046E+01
     -7.710  0.8571E+00  0.2155E+01
     -7.582  0.8750E+00  0.2267E+01
     -7.453  0.9318E+00  0.2384E+01
     -7.324  0.9565E+00  0.2506E+01
     -7.195  0.1001E+01  0.2632E+01
     -7.066  0.1004E+01  0.2761E+01
     -6.937  0.9842E+00  0.2890E+01
     -6.808  0.9535E+00  0.3015E+01
     -6.679  0.9752E+00  0.3139E+01
     -6.550  0.9845E+00  0.3265E+01
     -6.422  0.9875E+00  0.3392E+01
     -6.293  0.9979E+00  0.3520E+01
     -6.164  0.1042E+01  0.3651E+01
     -6.035  0.1095E+01  0.3789E+01
     -5.906  0.1166E+01  0.3935E+01
     -5.777  0.1205E+01  0.4088E+01
     -5.648  0.1207E+01  0.4242E+01
     -5.519  0.1279E+01  0.4401E+01
     -5.391  0.1445E+01  0.4576E+01
     -5.262  0.1525E+01  0.4770E+01
     -5.133  0.1399E+01  0.4955E+01
     -5.004  0.1381E+01  0.5133E+01
     -4.875  0.1330E+01  0.5308E+01
     -4.746  0.1261E+01  0.5474E+01
     -4.617  0.1308E+01  0.5639E+01
     -4.488  0.1304E+01  0.5811E+01
     -4.359  0.1167E+01  0.5968E+01
     -4.231  0.1123E+01  0.6114E+01
     -4.102  0.1101E+01  0.6258E+01
     -3.973  0.1073E+01  0.6397E+01
     -3.844  0.1101E+01  0.6537E+01
     -3.715  0.1070E+01  0.6674E+01
     -3.586  0.1031E+01  0.6807E+01
     -3.457  0.9492E+00  0.6938E+01
     -3.328  0.9171E+00  0.7059E+01
     -3.199  0.9057E+00  0.7175E+01
     -3.071  0.1086E+01  0.7304E+01
     -2.942  0.1089E+01  0.7444E+01
     -2.813  0.1161E+01  0.7593E+01
     -2.684  0.1088E+01  0.7737E+01
     -2.555  0.1066E+01  0.7876E+01
     -2.426  0.1159E+01  0.8016E+01
     -2.297  0.1348E+01  0.8163E+01
     -2.168  0.1062E+01  0.8316E+01
     -2.039  0.9975E+00  0.8446E+01
     -1.911  0.1010E+01  0.8575E+01
     -1.782  0.1086E+01  0.8710E+01
     -1.653  0.1141E+01  0.8853E+01
     -1.524  0.1251E+01  0.9007E+01
     -1.395  0.1407E+01  0.9177E+01
     -1.266  0.1654E+01  0.9373E+01
     -1.137  0.2132E+01  0.9616E+01
     -1.008  0.2430E+01  0.9914E+01
     -0.880  0.2500E+01  0.1023E+02
     -0.751  0.2347E+01  0.1054E+02
     -0.622  0.1865E+01  0.1079E+02
     -0.493  0.1557E+01  0.1101E+02
     -0.364  0.1447E+01  0.1120E+02
     -0.235  0.1370E+01  0.1138E+02
     -0.106  0.1307E+01  0.1156E+02
      0.023  0.1269E+01  0.1172E+02
      0.152  0.1245E+01  0.1188E+02
      0.280  0.1223E+01  0.1204E+02
      0.409  0.1204E+01  0.1220E+02
      0.538  0.1237E+01  0.1236E+02
      0.667  0.1155E+01  0.1252E+02
      0.796  0.1166E+01  0.1267E+02
      0.925  0.1058E+01  0.1281E+02
      1.054  0.1058E+01  0.1295E+02
      1.183  0.1202E+01  0.1309E+02
      1.312  0.1539E+01  0.1327E+02
      1.440  0.2023E+01  0.1350E+02
      1.569  0.2146E+01  0.1377E+02
      1.698  0.1981E+01  0.1403E+02
      1.827  0.1924E+01  0.1428E+02
      1.956  0.2026E+01  0.1454E+02
      2.085  0.2155E+01  0.1481E+02
      2.214  0.2172E+01  0.1509E+02
      2.343  0.1969E+01  0.1536E+02
      2.472  0.1514E+01  0.1558E+02
      2.600  0.1239E+01  0.1576E+02
      2.729  0.1518E+01  0.1593E+02
      2.858  0.1903E+01  0.1616E+02
      2.987  0.2074E+01  0.1641E+02
      3.116  0.2178E+01  0.1669E+02
      3.245  0.2159E+01  0.1697E+02
      3.374  0.2230E+01  0.1725E+02
      3.503  0.2286E+01  0.1754E+02
      3.632  0.2481E+01  0.1785E+02
      3.760  0.2792E+01  0.1819E+02
      3.889  0.2638E+01  0.1856E+02
      4.018  0.2421E+01  0.1889E+02
      4.147  0.2308E+01  0.1920E+02
      4.276  0.2546E+01  0.1951E+02
      4.405  0.2654E+01  0.1986E+02
      4.534  0.2621E+01  0.2019E+02
      4.663  0.3085E+01  0.2056E+02
      4.791  0.3426E+01  0.2098E+02
      4.920  0.3331E+01  0.2142E+02
      5.049  0.3054E+01  0.2182E+02
      5.178  0.2635E+01  0.2221E+02
      5.307  0.2490E+01  0.2253E+02
      5.436  0.2690E+01  0.2286E+02
      5.565  0.2638E+01  0.2320E+02
      5.694  0.2529E+01  0.2353E+02
      5.823  0.2675E+01  0.2387E+02
      5.951  0.2762E+01  0.2422E+02
      6.080  0.2750E+01  0.2458E+02
      6.209  0.2780E+01  0.2493E+02
      6.338  0.2876E+01  0.2529E+02
      6.467  0.2735E+01  0.2566E+02
      6.596  0.2407E+01  0.2599E+02
      6.725  0.2223E+01  0.2629E+02
      6.854  0.2155E+01  0.2657E+02
      6.983  0.2210E+01  0.2686E+02
      7.111  0.2502E+01  0.2716E+02
      7.240  0.2599E+01  0.2750E+02
      7.369  0.2498E+01  0.2783E+02
      7.498  0.2523E+01  0.2815E+02
      7.627  0.2277E+01  0.2846E+02
      7.756  0.2216E+01  0.2875E+02
      7.885  0.2155E+01  0.2903E+02
      8.014  0.3540E+01  0.2937E+02
      8.143  0.1804E+01  0.2968E+02
      8.271  0.1620E+01  0.2990E+02
      8.400  0.1532E+01  0.3010E+02
      8.529  0.1361E+01  0.3028E+02
      8.658  0.1266E+01  0.3045E+02
      8.787  0.1207E+01  0.3061E+02
      8.916  0.1135E+01  0.3076E+02
      9.045  0.1066E+01  0.3090E+02
      9.174  0.9500E+00  0.3103E+02
      9.302  0.8602E+00  0.3115E+02
      9.431  0.8138E+00  0.3126E+02
      9.560  0.7718E+00  0.3136E+02
      9.689  0.7382E+00  0.3145E+02
      9.818  0.6641E+00  0.3154E+02
      9.947  0.5885E+00  0.3163E+02
     10.076  0.5163E+00  0.3170E+02
     10.205  0.5061E+00  0.3176E+02
     10.334  0.4247E+00  0.3182E+02
     10.462  0.3360E+00  0.3187E+02
     10.591  0.3583E+00  0.3192E+02
     10.720  0.2360E+00  0.3196E+02
     10.849  0.1317E+00  0.3198E+02
     10.978  0.7243E-01  0.3200E+02
     11.107  0.0000E+00  0.3200E+02
     11.236  0.0000E+00  0.3200E+02
     11.365  0.0000E+00  0.3200E+02
     11.494  0.0000E+00  0.3200E+02
     11.622  0.0000E+00  0.3200E+02
     11.751  0.0000E+00  0.3200E+02
     11.880  0.0000E+00  0.3200E+02
     12.009  0.0000E+00  0.3200E+02
     12.138  0.0000E+00  0.3200E+02
     12.267  0.0000E+00  0.3200E+02
     12.396  0.0000E+00  0.3200E+02
     12.525  0.0000E+00  0.3200E+02
     12.654  0.0000E+00  0.3200E+02
     12.782  0.0000E+00  0.3200E+02
     12.911  0.0000E+00  0.3200E+02
     13.040  0.0000E+00  0.3200E+02
     13.169  0.0000E+00  0.3200E+02
     13.298  0.0000E+00  0.3200E+02
     13.427  0.0000E+00  0.3200E+02
     13.556  0.0000E+00  0.3200E+02
     13.685  0.0000E+00  0.3200E+02
     13.813  0.0000E+00  0.3200E+02
     13.942  0.0000E+00  0.3200E+02
     14.071  0.0000E+00  0.3200E+02
     14.200  0.0000E+00  0.3200E+02
     14.329  0.0000E+00  0.3200E+02
     14.458  0.0000E+00  0.3200E+02
     14.587  0.0000E+00  0.3200E+02
     14.716  0.0000E+00  0.3200E+02
     14.845  0.0000E+00  0.3200E+02
     14.973  0.0000E+00  0.3200E+02
     15.102  0.0000E+00  0.3200E+02
     15.231  0.0000E+00  0.3200E+02
     15.360  0.0000E+00  0.3200E+02
     15.489  0.5951E-01  0.3200E+02
     15.618  0.2164E+00  0.3202E+02
     15.747  0.4509E+00  0.3206E+02
     15.876  0.5700E+00  0.3213E+02
     16.005  0.5551E+00  0.3220E+02
     16.133  0.7360E+00  0.3228E+02
     16.262  0.8233E+00  0.3239E+02
     16.391  0.9396E+00  0.3250E+02
     16.520  0.1413E+01  0.3266E+02
     16.649  0.1382E+01  0.3284E+02
     16.778  0.1384E+01  0.3302E+02
     16.907  0.1464E+01  0.3320E+02
     17.036  0.1426E+01  0.3338E+02
     17.165  0.1540E+01  0.3357E+02
     17.293  0.1649E+01  0.3378E+02
     17.422  0.1756E+01  0.3400E+02
     17.551  0.2002E+01  0.3424E+02
     17.680  0.2157E+01  0.3452E+02
     17.809  0.2020E+01  0.3479E+02
     17.938  0.1950E+01  0.3504E+02
     18.067  0.1984E+01  0.3530E+02
     18.196  0.2050E+01  0.3556E+02
     18.325  0.2149E+01  0.3583E+02
     18.453  0.2318E+01  0.3612E+02
     18.582  0.2457E+01  0.3642E+02
     18.711  0.2650E+01  0.3675E+02
     18.840  0.2616E+01  0.3709E+02
     18.969  0.2721E+01  0.3743E+02
     19.098  0.2906E+01  0.3779E+02
     19.227  0.3305E+01  0.3819E+02
     19.356  0.3610E+01  0.3863E+02
     19.484  0.4213E+01  0.3914E+02
     19.613  0.4002E+01  0.3967E+02
     19.742  0.4007E+01  0.4018E+02
     19.871  0.2961E+01  0.4064E+02
     20.000  0.2638E+01  0.4098E+02
     20.129  0.2446E+01  0.4131E+02
     20.258  0.2738E+01  0.4164E+02
     20.387  0.3144E+01  0.4203E+02
     20.516  0.3101E+01  0.4244E+02
     20.644  0.3052E+01  0.4283E+02
     20.773  0.3420E+01  0.4324E+02
     20.902  0.3559E+01  0.4371E+02
     21.031  0.3191E+01  0.4414E+02
     21.160  0.2904E+01  0.4454E+02
     21.289  0.2613E+01  0.4489E+02
     21.418  0.2544E+01  0.4522E+02
     21.547  0.2689E+01  0.4555E+02
     21.676  0.2650E+01  0.4589E+02
     21.804  0.2613E+01  0.4623E+02
     21.933  0.2639E+01  0.4657E+02
     22.062  0.2654E+01  0.4691E+02
     22.191  0.2416E+01  0.4725E+02
     22.320  0.1815E+01  0.4752E+02
     22.449  0.1257E+01  0.4772E+02
     22.578  0.5815E+00  0.4784E+02
     22.707  0.4399E+00  0.4790E+02
     22.836  0.2065E+00  0.4793E+02
     22.964  0.1632E+00  0.4796E+02
     23.093  0.1209E+00  0.4798E+02
     23.222  0.8000E-01  0.4799E+02
     23.351  0.4250E-01  0.4800E+02
     23.480  0.8625E-02  0.4800E+02
     23.609  0.0000E+00  0.4800E+02
     23.738  0.0000E+00  0.4800E+02
     23.867  0.0000E+00  0.4800E+02
     23.995  0.0000E+00  0.4800E+02
     24.124  0.0000E+00  0.4800E+02
     24.253  0.0000E+00  0.4800E+02
     24.382  0.0000E+00  0.4800E+02
     24.511  0.0000E+00  0.4800E+02
     24.640  0.0000E+00  0.4800E+02
     24.769  0.0000E+00  0.4800E+02
     24.898  0.0000E+00  0.4800E+02
     25.027  0.0000E+00  0.4800E+02
     25.155  0.0000E+00  0.4800E+02
     25.284  0.0000E+00  0.4800E+02
