       N       E                     dE             d eps       ncg     rms          rms(c)
DAV:   1     0.582836494160E+02    0.58284E+02   -0.14571E+04  4032   0.106E+03
DAV:   2    -0.713408946461E+02   -0.12962E+03   -0.12341E+03  5576   0.227E+02
DAV:   3    -0.754266562892E+02   -0.40858E+01   -0.40666E+01  5192   0.373E+01
DAV:   4    -0.754645346787E+02   -0.37878E-01   -0.37828E-01  5024   0.398E+00
DAV:   5    -0.754652322395E+02   -0.69756E-03   -0.69740E-03  5192   0.473E-01    0.106E+01
DAV:   6    -0.730171348658E+02    0.24481E+01   -0.15917E+00  4512   0.739E+00    0.571E+00
DAV:   7    -0.721930747497E+02    0.82406E+00   -0.17551E+00  4648   0.797E+00    0.718E-01
DAV:   8    -0.722015548891E+02   -0.84801E-02   -0.32845E-02  5000   0.107E+00    0.869E-02
DAV:   9    -0.722017498526E+02   -0.19496E-03   -0.43125E-04  4872   0.143E-01    0.293E-02
DAV:  10    -0.722017979295E+02   -0.48077E-04   -0.37640E-05  4976   0.480E-02    0.278E-03
DAV:  11    -0.722017986854E+02   -0.75595E-06   -0.96129E-07  3688   0.712E-03
   1 F= -.72201799E+02 E0= -.72201799E+02  d E =0.000000E+00
