 vasp.5.4.4.18Apr17-6-g9f103f2a35 (build Mar 12 2022 03:36:41) complex          
  
 executed on IFC19.0.3.199_CrayMP date 2022.11.30  12:23:48
 running on   16 total cores
 distrk:  each k-point on   16 cores,    1 groups
 distr:  one band on NCORES_PER_BAND=   4 cores,    4 groups


--------------------------------------------------------------------------------------------------------


 INCAR:
 POTCAR:   PAW_PBE C 08Apr2002                    
 POTCAR:   PAW_PBE C 08Apr2002                    
   VRHFIN =C: s2p2                                                              
   LEXCH  = PE                                                                  
   EATOM  =   147.1560 eV,   10.8157 Ry                                         
                                                                                
   TITEL  = PAW_PBE C 08Apr2002                                                 
   LULTRA =        F    use ultrasoft PP ?                                      
   IUNSCR =        0    unscreen: 0-lin 1-nonlin 2-no                           
   RPACOR =     .000    partial core radius                                     
   POMASS =   12.011; ZVAL   =    4.000    mass and valenz                      
   RCORE  =    1.500    outmost cutoff radius                                   
   RWIGS  =    1.630; RWIGS  =     .863    wigner-seitz radius (au A)           
   ENMAX  =  400.000; ENMIN  =  300.000 eV                                      
   ICORE  =        2    local potential                                         
   LCOR   =        T    correct aug charges                                     
   LPAW   =        T    paw PP                                                  
   EAUG   =  644.873                                                            
   DEXC   =     .000                                                            
   RMAX   =    2.266    core radius for proj-oper                               
   RAUG   =    1.300    factor for augmentation sphere                          
   RDEP   =    1.501    radius for radial grids                                 
   RDEPT  =    1.300    core radius for aug-charge                              
   QCUT   =   -5.516; QGAM   =   11.032    optimization parameters              
                                                                                
   Description                                                                  
     l     E      TYP  RCUT    TYP  RCUT                                        
     0   .000     23  1.200                                                     
     0   .000     23  1.200                                                     
     1   .000     23  1.500                                                     
     1  2.500     23  1.500                                                     
     2   .000      7  1.500                                                     
  local pseudopotential read in
  atomic valenz-charges read in
  non local Contribution for L=           0  read in
    real space projection operators read in
  non local Contribution for L=           0  read in
    real space projection operators read in
  non local Contribution for L=           1  read in
    real space projection operators read in
  non local Contribution for L=           1  read in
    real space projection operators read in
    PAW grid and wavefunctions read in
 
   number of l-projection  operators is LMAX  =           4
   number of lm-projection operators is LMMAX =           8
 
 PAW_PBE C 08Apr2002                    :
 energy of atom  1       EATOM= -147.1560
 kinetic energy error for atom=    0.0288 (will be added to EATOM!!)
 
 
 POSCAR: C8                                      
  positions in direct lattice
  No initial velocities read in
 exchange correlation table for  LEXCH =        8
   RHO(1)=    0.500       N(1)  =     2000
   RHO(2)=  100.500       N(2)  =     4000
 


--------------------------------------------------------------------------------------------------------


 ion  position               nearest neighbor table
   1  0.250  0.750  0.250-   2 1.50   4 1.50   6 1.50   8 1.50
   2  0.000  0.000  0.500-   1 1.50   3 1.50   5 1.50   7 1.50
   3  0.250  0.250  0.750-   2 1.50   4 1.50   6 1.50   8 1.50
   4  0.000  0.500  0.000-   1 1.50   3 1.50   5 1.50   7 1.50
   5  0.750  0.750  0.750-   2 1.50   4 1.50   6 1.50   8 1.50
   6  0.500  0.000  0.000-   1 1.50   3 1.50   5 1.50   7 1.50
   7  0.750  0.250  0.250-   2 1.50   4 1.50   6 1.50   8 1.50
   8  0.500  0.500  0.500-   1 1.50   3 1.50   5 1.50   7 1.50
 
  LATTYP: Found a simple cubic cell.
 ALAT       =     3.4648400000
  
  Lattice vectors:
  
 A1 = (   3.4648400000,   0.0000000000,   0.0000000000)
 A2 = (   0.0000000000,   3.4648400000,   0.0000000000)
 A3 = (   0.0000000000,   0.0000000000,   3.4648400000)


Analysis of symmetry for initial positions (statically):
=====================================================================
 Subroutine PRICEL returns following result:
 
  LATTYP: Found a face centered cubic cell.
 ALAT       =     3.4648400000
  
  Lattice vectors:
  
 A1 = (   1.7324200000,   1.7324200000,   0.0000000000)
 A2 = (   1.7324200000,   0.0000000000,  -1.7324200000)
 A3 = (   0.0000000000,   1.7324200000,  -1.7324200000)
 
   4 primitive cells build up your supercell.
 

 Routine SETGRP: Setting up the symmetry group for a 
 simple cubic supercell.


 Subroutine GETGRP returns: Found 48 space group operations
 (whereof 24 operations were pure point group operations)
 out of a pool of 48 trial point group operations.


The static configuration has the point symmetry T_d .
 The point group associated with its full space group is O_h .


Analysis of symmetry for dynamics (positions and initial velocities):
=====================================================================
 Subroutine PRICEL returns following result:
 
  LATTYP: Found a face centered cubic cell.
 ALAT       =     3.4648400000
  
  Lattice vectors:
  
 A1 = (   1.7324200000,   1.7324200000,   0.0000000000)
 A2 = (   1.7324200000,   0.0000000000,  -1.7324200000)
 A3 = (   0.0000000000,   1.7324200000,  -1.7324200000)
 
   4 primitive cells build up your supercell.
 

 Routine SETGRP: Setting up the symmetry group for a 
 simple cubic supercell.


 Subroutine GETGRP returns: Found 48 space group operations
 (whereof 24 operations were pure point group operations)
 out of a pool of 48 trial point group operations.


The dynamic configuration has the point symmetry T_d .
 The point group associated with its full space group is O_h .


 Subroutine INISYM returns: Found 48 space group operations
 (whereof 24 operations are pure point group operations),
 and found     4 'primitive' translations

 
 
 KPOINTS: kpt_density=1000                        

Automatic generation of k-mesh.
Space group operators:
 irot       det(A)        alpha          n_x          n_y          n_z        tau_x        tau_y        tau_z
    1     1.000000     0.000000     1.000000     0.000000     0.000000     0.000000     0.000000     0.000000
    2     1.000000   120.000000    -0.577350    -0.577350    -0.577350     0.000000     0.000000     0.000000
    3     1.000000   120.000000     0.577350     0.577350     0.577350     0.000000     0.000000     0.000000
    4    -1.000000    90.000000     0.000000     0.000000    -1.000000     0.000000     0.000000     0.000000
    5    -1.000000   180.000000     0.000000     0.707107     0.707107     0.000000     0.000000     0.000000
    6    -1.000000    90.000000     0.000000     1.000000     0.000000     0.000000     0.000000     0.000000
    7     1.000000   180.000000     0.000000     0.000000     1.000000     0.000000     0.000000     0.000000
    8     1.000000   120.000000    -0.577350     0.577350     0.577350     0.000000     0.000000     0.000000
    9     1.000000   120.000000    -0.577350     0.577350    -0.577350     0.000000     0.000000     0.000000
   10    -1.000000    90.000000     0.000000     0.000000     1.000000     0.000000     0.000000     0.000000
   11    -1.000000    90.000000    -1.000000     0.000000     0.000000     0.000000     0.000000     0.000000
   12    -1.000000   180.000000     0.707107     0.000000     0.707107     0.000000     0.000000     0.000000
   13     1.000000   120.000000     0.577350    -0.577350     0.577350     0.000000     0.000000     0.000000
   14     1.000000   120.000000    -0.577350    -0.577350     0.577350     0.000000     0.000000     0.000000
   15     1.000000   180.000000     1.000000     0.000000     0.000000     0.000000     0.000000     0.000000
   16    -1.000000    90.000000     0.000000    -1.000000     0.000000     0.000000     0.000000     0.000000
   17    -1.000000   180.000000     0.707107     0.707107     0.000000     0.000000     0.000000     0.000000
   18    -1.000000    90.000000     1.000000     0.000000     0.000000     0.000000     0.000000     0.000000
   19     1.000000   120.000000     0.577350    -0.577350    -0.577350     0.000000     0.000000     0.000000
   20     1.000000   180.000000     0.000000     1.000000     0.000000     0.000000     0.000000     0.000000
   21     1.000000   120.000000     0.577350     0.577350    -0.577350     0.000000     0.000000     0.000000
   22    -1.000000   180.000000     0.000000    -0.707107     0.707107     0.000000     0.000000     0.000000
   23    -1.000000   180.000000     0.707107    -0.707107     0.000000     0.000000     0.000000     0.000000
   24    -1.000000   180.000000     0.707107     0.000000    -0.707107     0.000000     0.000000     0.000000
   25    -1.000000     0.000000     1.000000     0.000000     0.000000     0.750000     0.750000    -0.750000
   26    -1.000000   120.000000    -0.577350    -0.577350    -0.577350     0.750000     0.750000    -0.750000
   27    -1.000000   120.000000     0.577350     0.577350     0.577350     0.750000     0.750000    -0.750000
   28     1.000000    90.000000     0.000000     0.000000    -1.000000     0.750000     0.750000    -0.750000
   29     1.000000   180.000000     0.000000     0.707107     0.707107     0.750000     0.750000    -0.750000
   30     1.000000    90.000000     0.000000     1.000000     0.000000     0.750000     0.750000    -0.750000
   31    -1.000000   180.000000     0.000000     0.000000     1.000000     0.750000     0.750000    -0.750000
   32    -1.000000   120.000000    -0.577350     0.577350     0.577350     0.750000     0.750000    -0.750000
   33    -1.000000   120.000000    -0.577350     0.577350    -0.577350     0.750000     0.750000    -0.750000
   34     1.000000    90.000000     0.000000     0.000000     1.000000     0.750000     0.750000    -0.750000
   35     1.000000    90.000000    -1.000000     0.000000     0.000000     0.750000     0.750000    -0.750000
   36     1.000000   180.000000     0.707107     0.000000     0.707107     0.750000     0.750000    -0.750000
   37    -1.000000   120.000000     0.577350    -0.577350     0.577350     0.750000     0.750000    -0.750000
   38    -1.000000   120.000000    -0.577350    -0.577350     0.577350     0.750000     0.750000    -0.750000
   39    -1.000000   180.000000     1.000000     0.000000     0.000000     0.750000     0.750000    -0.750000
   40     1.000000    90.000000     0.000000    -1.000000     0.000000     0.750000     0.750000    -0.750000
   41     1.000000   180.000000     0.707107     0.707107     0.000000     0.750000     0.750000    -0.750000
   42     1.000000    90.000000     1.000000     0.000000     0.000000     0.750000     0.750000    -0.750000
   43    -1.000000   120.000000     0.577350    -0.577350    -0.577350     0.750000     0.750000    -0.750000
   44    -1.000000   180.000000     0.000000     1.000000     0.000000     0.750000     0.750000    -0.750000
   45    -1.000000   120.000000     0.577350     0.577350    -0.577350     0.750000     0.750000    -0.750000
   46     1.000000   180.000000     0.000000    -0.707107     0.707107     0.750000     0.750000    -0.750000
   47     1.000000   180.000000     0.707107    -0.707107     0.000000     0.750000     0.750000    -0.750000
   48     1.000000   180.000000     0.707107     0.000000    -0.707107     0.750000     0.750000    -0.750000
 
 Subroutine IBZKPT returns following result:
 ===========================================
 
 Found     84 irreducible k-points:
 
 Following reciprocal coordinates:
            Coordinates               Weight
  0.000000  0.000000  0.000000      1.000000
  0.083333  0.000000  0.000000      6.000000
  0.166667  0.000000  0.000000      6.000000
  0.250000  0.000000  0.000000      6.000000
  0.333333  0.000000  0.000000      6.000000
  0.416667  0.000000  0.000000      6.000000
  0.500000  0.000000  0.000000      3.000000
  0.083333  0.083333  0.000000     12.000000
  0.166667  0.083333  0.000000     24.000000
  0.250000  0.083333  0.000000     24.000000
  0.333333  0.083333  0.000000     24.000000
  0.416667  0.083333  0.000000     24.000000
  0.500000  0.083333  0.000000     12.000000
  0.166667  0.166667  0.000000     12.000000
  0.250000  0.166667  0.000000     24.000000
  0.333333  0.166667  0.000000     24.000000
  0.416667  0.166667  0.000000     24.000000
  0.500000  0.166667  0.000000     12.000000
  0.250000  0.250000  0.000000     12.000000
  0.333333  0.250000  0.000000     24.000000
  0.416667  0.250000  0.000000     24.000000
  0.500000  0.250000  0.000000     12.000000
  0.333333  0.333333  0.000000     12.000000
  0.416667  0.333333  0.000000     24.000000
  0.500000  0.333333  0.000000     12.000000
  0.416667  0.416667  0.000000     12.000000
  0.500000  0.416667  0.000000     12.000000
  0.500000  0.500000  0.000000      3.000000
  0.083333  0.083333  0.083333      8.000000
  0.166667  0.083333  0.083333     24.000000
  0.250000  0.083333  0.083333     24.000000
  0.333333  0.083333  0.083333     24.000000
  0.416667  0.083333  0.083333     24.000000
  0.500000  0.083333  0.083333     12.000000
  0.166667  0.166667  0.083333     24.000000
  0.250000  0.166667  0.083333     48.000000
  0.333333  0.166667  0.083333     48.000000
  0.416667  0.166667  0.083333     48.000000
  0.500000  0.166667  0.083333     24.000000
  0.250000  0.250000  0.083333     24.000000
  0.333333  0.250000  0.083333     48.000000
  0.416667  0.250000  0.083333     48.000000
  0.500000  0.250000  0.083333     24.000000
  0.333333  0.333333  0.083333     24.000000
  0.416667  0.333333  0.083333     48.000000
  0.500000  0.333333  0.083333     24.000000
  0.416667  0.416667  0.083333     24.000000
  0.500000  0.416667  0.083333     24.000000
  0.500000  0.500000  0.083333      6.000000
  0.166667  0.166667  0.166667      8.000000
  0.250000  0.166667  0.166667     24.000000
  0.333333  0.166667  0.166667     24.000000
  0.416667  0.166667  0.166667     24.000000
  0.500000  0.166667  0.166667     12.000000
  0.250000  0.250000  0.166667     24.000000
  0.333333  0.250000  0.166667     48.000000
  0.416667  0.250000  0.166667     48.000000
  0.500000  0.250000  0.166667     24.000000
  0.333333  0.333333  0.166667     24.000000
  0.416667  0.333333  0.166667     48.000000
  0.500000  0.333333  0.166667     24.000000
  0.416667  0.416667  0.166667     24.000000
  0.500000  0.416667  0.166667     24.000000
  0.500000  0.500000  0.166667      6.000000
  0.250000  0.250000  0.250000      8.000000
  0.333333  0.250000  0.250000     24.000000
  0.416667  0.250000  0.250000     24.000000
  0.500000  0.250000  0.250000     12.000000
  0.333333  0.333333  0.250000     24.000000
  0.416667  0.333333  0.250000     48.000000
  0.500000  0.333333  0.250000     24.000000
  0.416667  0.416667  0.250000     24.000000
  0.500000  0.416667  0.250000     24.000000
  0.500000  0.500000  0.250000      6.000000
  0.333333  0.333333  0.333333      8.000000
  0.416667  0.333333  0.333333     24.000000
  0.500000  0.333333  0.333333     12.000000
  0.416667  0.416667  0.333333     24.000000
  0.500000  0.416667  0.333333     24.000000
  0.500000  0.500000  0.333333      6.000000
  0.416667  0.416667  0.416667      8.000000
  0.500000  0.416667  0.416667     12.000000
  0.500000  0.500000  0.416667      6.000000
  0.500000  0.500000  0.500000      1.000000
 
 Following cartesian coordinates:
            Coordinates               Weight
  0.000000  0.000000  0.000000      1.000000
  0.024051  0.000000  0.000000      6.000000
  0.048102  0.000000  0.000000      6.000000
  0.072153  0.000000  0.000000      6.000000
  0.096205  0.000000  0.000000      6.000000
  0.120256  0.000000  0.000000      6.000000
  0.144307  0.000000  0.000000      3.000000
  0.024051  0.024051  0.000000     12.000000
  0.048102  0.024051  0.000000     24.000000
  0.072153  0.024051  0.000000     24.000000
  0.096205  0.024051  0.000000     24.000000
  0.120256  0.024051  0.000000     24.000000
  0.144307  0.024051  0.000000     12.000000
  0.048102  0.048102  0.000000     12.000000
  0.072153  0.048102  0.000000     24.000000
  0.096205  0.048102  0.000000     24.000000
  0.120256  0.048102  0.000000     24.000000
  0.144307  0.048102  0.000000     12.000000
  0.072153  0.072153  0.000000     12.000000
  0.096205  0.072153  0.000000     24.000000
  0.120256  0.072153  0.000000     24.000000
  0.144307  0.072153  0.000000     12.000000
  0.096205  0.096205  0.000000     12.000000
  0.120256  0.096205  0.000000     24.000000
  0.144307  0.096205  0.000000     12.000000
  0.120256  0.120256  0.000000     12.000000
  0.144307  0.120256  0.000000     12.000000
  0.144307  0.144307  0.000000      3.000000
  0.024051  0.024051  0.024051      8.000000
  0.048102  0.024051  0.024051     24.000000
  0.072153  0.024051  0.024051     24.000000
  0.096205  0.024051  0.024051     24.000000
  0.120256  0.024051  0.024051     24.000000
  0.144307  0.024051  0.024051     12.000000
  0.048102  0.048102  0.024051     24.000000
  0.072153  0.048102  0.024051     48.000000
  0.096205  0.048102  0.024051     48.000000
  0.120256  0.048102  0.024051     48.000000
  0.144307  0.048102  0.024051     24.000000
  0.072153  0.072153  0.024051     24.000000
  0.096205  0.072153  0.024051     48.000000
  0.120256  0.072153  0.024051     48.000000
  0.144307  0.072153  0.024051     24.000000
  0.096205  0.096205  0.024051     24.000000
  0.120256  0.096205  0.024051     48.000000
  0.144307  0.096205  0.024051     24.000000
  0.120256  0.120256  0.024051     24.000000
  0.144307  0.120256  0.024051     24.000000
  0.144307  0.144307  0.024051      6.000000
  0.048102  0.048102  0.048102      8.000000
  0.072153  0.048102  0.048102     24.000000
  0.096205  0.048102  0.048102     24.000000
  0.120256  0.048102  0.048102     24.000000
  0.144307  0.048102  0.048102     12.000000
  0.072153  0.072153  0.048102     24.000000
  0.096205  0.072153  0.048102     48.000000
  0.120256  0.072153  0.048102     48.000000
  0.144307  0.072153  0.048102     24.000000
  0.096205  0.096205  0.048102     24.000000
  0.120256  0.096205  0.048102     48.000000
  0.144307  0.096205  0.048102     24.000000
  0.120256  0.120256  0.048102     24.000000
  0.144307  0.120256  0.048102     24.000000
  0.144307  0.144307  0.048102      6.000000
  0.072153  0.072153  0.072153      8.000000
  0.096205  0.072153  0.072153     24.000000
  0.120256  0.072153  0.072153     24.000000
  0.144307  0.072153  0.072153     12.000000
  0.096205  0.096205  0.072153     24.000000
  0.120256  0.096205  0.072153     48.000000
  0.144307  0.096205  0.072153     24.000000
  0.120256  0.120256  0.072153     24.000000
  0.144307  0.120256  0.072153     24.000000
  0.144307  0.144307  0.072153      6.000000
  0.096205  0.096205  0.096205      8.000000
  0.120256  0.096205  0.096205     24.000000
  0.144307  0.096205  0.096205     12.000000
  0.120256  0.120256  0.096205     24.000000
  0.144307  0.120256  0.096205     24.000000
  0.144307  0.144307  0.096205      6.000000
  0.120256  0.120256  0.120256      8.000000
  0.144307  0.120256  0.120256     12.000000
  0.144307  0.144307  0.120256      6.000000
  0.144307  0.144307  0.144307      1.000000
 
 TETIRR: Found    854 inequivalent tetrahedra from    10368


--------------------------------------------------------------------------------------------------------




 Dimension of arrays:
   k-points           NKPTS =     84   k-points in BZ     NKDIM =     84   number of bands    NBANDS=     24
   number of dos      NEDOS =    301   number of ions     NIONS =      8
   non local maximal  LDIM  =      4   non local SUM 2l+1 LMDIM =      8
   total plane-waves  NPLWV =  13824
   max r-space proj   IRMAX =      1   max aug-charges    IRDMAX=   4121
   dimension x,y,z NGX =    24 NGY =   24 NGZ =   24
   dimension x,y,z NGXF=    48 NGYF=   48 NGZF=   48
   support grid    NGXF=    48 NGYF=   48 NGZF=   48
   ions per type =               8
   NGX,Y,Z   is equivalent  to a cutoff of  11.52, 11.52, 11.52 a.u.
   NGXF,Y,Z  is equivalent  to a cutoff of  23.03, 23.03, 23.03 a.u.

 SYSTEM =  unknown system                          
 POSCAR =  C8                                      

 Startparameter for this run:
   NWRITE =      2    write-flag & timer
   PREC   = accura    normal or accurate (medium, high low for compatibility)
   ISTART =      0    job   : 0-new  1-cont  2-samecut
   ICHARG =      2    charge: 1-file 2-atom 10-const
   ISPIN  =      1    spin polarized calculation?
   LNONCOLLINEAR =      F non collinear calculations
   LSORBIT =      F    spin-orbit coupling
   INIWAV =      1    electr: 0-lowe 1-rand  2-diag
   LASPH  =      F    aspherical Exc in radial PAW
   METAGGA=      F    non-selfconsistent MetaGGA calc.

 Electronic Relaxation 1
   ENCUT  =  400.0 eV  29.40 Ry    5.42 a.u.   5.65  5.65  5.65*2*pi/ulx,y,z
   ENINI  =  400.0     initial cutoff
   ENAUG  =  644.9 eV  augmentation charge cutoff
   NELM   =     60;   NELMIN=  2; NELMDL= -5     # of ELM steps 
   EDIFF  = 0.1E-05   stopping-criterion for ELM
   LREAL  =      F    real-space projection
   NLSPLINE    = F    spline interpolate recip. space projectors
   LCOMPAT=      F    compatible to vasp.4.4
   GGA_COMPAT  = T    GGA compatible to vasp.4.4-vasp.4.6
   LMAXPAW     = -100 max onsite density
   LMAXMIX     =    2 max onsite mixed and CHGCAR
   VOSKOWN=      0    Vosko Wilk Nusair interpolation
   ROPT   =    0.00000
 Ionic relaxation
   EDIFFG = 0.1E-04   stopping-criterion for IOM
   NSW    =      0    number of steps for IOM
   NBLOCK =      1;   KBLOCK =      1    inner block; outer block 
   IBRION =     -1    ionic relax: 0-MD 1-quasi-New 2-CG
   NFREE  =      0    steps in history (QN), initial steepest desc. (CG)
   ISIF   =      2    stress and relaxation
   IWAVPR =     10    prediction:  0-non 1-charg 2-wave 3-comb
   ISYM   =      2    0-nonsym 1-usesym 2-fastsym
   LCORR  =      T    Harris-Foulkes like correction to forces

   POTIM  = 0.0200    time-step for ionic-motion
   TEIN   =    0.0    initial temperature
   TEBEG  =    0.0;   TEEND  =   0.0 temperature during run
   SMASS  =  -3.00    Nose mass-parameter (am)
   estimated Nose-frequenzy (Omega)   =  0.10E-29 period in steps =****** mass=  -0.274E-27a.u.
   SCALEE = 1.0000    scale energy and forces
   NPACO  =    256;   APACO  = 16.0  distance and # of slots for P.C.
   PSTRESS=    0.0 pullay stress

  Mass of Ions in am
   POMASS =  12.01
  Ionic Valenz
   ZVAL   =   4.00
  Atomic Wigner-Seitz radii
   RWIGS  =  -1.00
  virtual crystal weights 
   VCA    =   1.00
   NELECT =      32.0000    total number of electrons
   NUPDOWN=      -1.0000    fix difference up-down

 DOS related values:
   EMIN   =  10.00;   EMAX   =-10.00  energy-range for DOS
   EFERMI =   0.00
   ISMEAR =    -5;   SIGMA  =   0.06  broadening in eV -4-tet -1-fermi 0-gaus

 Electronic relaxation 2 (details)
   IALGO  =     38    algorithm
   LDIAG  =      T    sub-space diagonalisation (order eigenvalues)
   LSUBROT=      F    optimize rotation matrix (better conditioning)
   TURBO    =      0    0=normal 1=particle mesh
   IRESTART =      0    0=no restart 2=restart with 2 vectors
   NREBOOT  =      0    no. of reboots
   NMIN     =      0    reboot dimension
   EREF     =   0.00    reference energy to select bands
   IMIX   =      4    mixing-type and parameters
     AMIX     =   0.40;   BMIX     =  1.00
     AMIX_MAG =   1.60;   BMIX_MAG =  1.00
     AMIN     =   0.10
     WC   =   100.;   INIMIX=   1;  MIXPRE=   1;  MAXMIX= -45

 Intra band minimization:
   WEIMIN = 0.0000     energy-eigenvalue tresh-hold
   EBREAK =  0.10E-07  absolut break condition
   DEPER  =   0.30     relativ break condition  

   TIME   =   0.40     timestep for ELM

  volume/ion in A,a.u.               =       5.20        35.09
  Fermi-wavevector in a.u.,A,eV,Ry     =   1.500059  2.834700 30.615512  2.250177
  Thomas-Fermi vector in A             =   2.611608
 
 Write flags
   LWAVE        =      F    write WAVECAR
   LDOWNSAMPLE  =      F    k-point downsampling of WAVECAR
   LCHARG       =      F    write CHGCAR
   LVTOT        =      F    write LOCPOT, total local potential
   LVHAR        =      F    write LOCPOT, Hartree potential only
   LELF         =      F    write electronic localiz. function (ELF)
   LORBIT       =      0    0 simple, 1 ext, 2 COOP (PROOUT), +10 PAW based schemes


 Dipole corrections
   LMONO  =      F    monopole corrections only (constant potential shift)
   LDIPOL =      F    correct potential (dipole corrections)
   IDIPOL =      0    1-x, 2-y, 3-z, 4-all directions 
   EPSILON=  1.0000000 bulk dielectric constant

 Exchange correlation treatment:
   GGA     =    --    GGA type
   LEXCH   =     8    internal setting for exchange type
   VOSKOWN=      0    Vosko Wilk Nusair interpolation
   LHFCALC =     F    Hartree Fock is set to
   LHFONE  =     F    Hartree Fock one center treatment
   AEXX    =    0.0000 exact exchange contribution

 Linear response parameters
   LEPSILON=     F    determine dielectric tensor
   LRPA    =     F    only Hartree local field effects (RPA)
   LNABLA  =     F    use nabla operator in PAW spheres
   LVEL    =     F    velocity operator in full k-point grid
   LINTERFAST=   F  fast interpolation
   KINTER  =     0    interpolate to denser k-point grid
   CSHIFT  =0.1000    complex shift for real part using Kramers Kronig
   OMEGAMAX=  -1.0    maximum frequency
   DEG_THRESHOLD= 0.2000000E-02 threshold for treating states as degnerate
   RTIME   =   -0.100 relaxation time in fs
  (WPLASMAI=    0.000 imaginary part of plasma frequency in eV, 0.658/RTIME)
   DFIELD  = 0.0000000 0.0000000 0.0000000 field for delta impulse in time
 
 Orbital magnetization related:
   ORBITALMAG=     F  switch on orbital magnetization
   LCHIMAG   =     F  perturbation theory with respect to B field
   DQ        =  0.001000  dq finite difference perturbation B field
   LLRAUG    =     F  two centre corrections for induced B field



--------------------------------------------------------------------------------------------------------


 Static calculation
 charge density and potential will be updated during run
 non-spin polarized calculation
 Variant of blocked Davidson
 Davidson routine will perform the subspace rotation
 perform sub-space diagonalisation
    after iterative eigenvector-optimisation
 modified Broyden-mixing scheme, WC =      100.0
 initial mixing is a Kerker type mixing with AMIX =  0.4000 and BMIX =      1.0000
 Hartree-type preconditioning will be used
 using additional bands            8
 reciprocal scheme for non local part
 calculate Harris-corrections to forces 
   (improved forces if not selfconsistent)
 use gradient corrections 
 use of overlap-Matrix (Vanderbilt PP)
 Fermi weights with tetrahedron method with Bloechl corrections


--------------------------------------------------------------------------------------------------------


  energy-cutoff  :      400.00
  volume of cell :       41.60
      direct lattice vectors                 reciprocal lattice vectors
     3.464840000  0.000000000  0.000000000     0.288613616  0.000000000  0.000000000
     0.000000000  3.464840000  0.000000000     0.000000000  0.288613616  0.000000000
     0.000000000  0.000000000  3.464840000     0.000000000  0.000000000  0.288613616

  length of vectors
     3.464840000  3.464840000  3.464840000     0.288613616  0.288613616  0.288613616


 
 k-points in units of 2pi/SCALE and weight: kpt_density=1000                        
   0.00000000  0.00000000  0.00000000       0.001
   0.02405113  0.00000000  0.00000000       0.003
   0.04810227  0.00000000  0.00000000       0.003
   0.07215340  0.00000000  0.00000000       0.003
   0.09620454  0.00000000  0.00000000       0.003
   0.12025567  0.00000000  0.00000000       0.003
   0.14430681  0.00000000  0.00000000       0.002
   0.02405113  0.02405113  0.00000000       0.007
   0.04810227  0.02405113  0.00000000       0.014
   0.07215340  0.02405113  0.00000000       0.014
   0.09620454  0.02405113  0.00000000       0.014
   0.12025567  0.02405113  0.00000000       0.014
   0.14430681  0.02405113  0.00000000       0.007
   0.04810227  0.04810227  0.00000000       0.007
   0.07215340  0.04810227  0.00000000       0.014
   0.09620454  0.04810227  0.00000000       0.014
   0.12025567  0.04810227  0.00000000       0.014
   0.14430681  0.04810227  0.00000000       0.007
   0.07215340  0.07215340  0.00000000       0.007
   0.09620454  0.07215340  0.00000000       0.014
   0.12025567  0.07215340  0.00000000       0.014
   0.14430681  0.07215340  0.00000000       0.007
   0.09620454  0.09620454  0.00000000       0.007
   0.12025567  0.09620454  0.00000000       0.014
   0.14430681  0.09620454  0.00000000       0.007
   0.12025567  0.12025567  0.00000000       0.007
   0.14430681  0.12025567  0.00000000       0.007
   0.14430681  0.14430681  0.00000000       0.002
   0.02405113  0.02405113  0.02405113       0.005
   0.04810227  0.02405113  0.02405113       0.014
   0.07215340  0.02405113  0.02405113       0.014
   0.09620454  0.02405113  0.02405113       0.014
   0.12025567  0.02405113  0.02405113       0.014
   0.14430681  0.02405113  0.02405113       0.007
   0.04810227  0.04810227  0.02405113       0.014
   0.07215340  0.04810227  0.02405113       0.028
   0.09620454  0.04810227  0.02405113       0.028
   0.12025567  0.04810227  0.02405113       0.028
   0.14430681  0.04810227  0.02405113       0.014
   0.07215340  0.07215340  0.02405113       0.014
   0.09620454  0.07215340  0.02405113       0.028
   0.12025567  0.07215340  0.02405113       0.028
   0.14430681  0.07215340  0.02405113       0.014
   0.09620454  0.09620454  0.02405113       0.014
   0.12025567  0.09620454  0.02405113       0.028
   0.14430681  0.09620454  0.02405113       0.014
   0.12025567  0.12025567  0.02405113       0.014
   0.14430681  0.12025567  0.02405113       0.014
   0.14430681  0.14430681  0.02405113       0.003
   0.04810227  0.04810227  0.04810227       0.005
   0.07215340  0.04810227  0.04810227       0.014
   0.09620454  0.04810227  0.04810227       0.014
   0.12025567  0.04810227  0.04810227       0.014
   0.14430681  0.04810227  0.04810227       0.007
   0.07215340  0.07215340  0.04810227       0.014
   0.09620454  0.07215340  0.04810227       0.028
   0.12025567  0.07215340  0.04810227       0.028
   0.14430681  0.07215340  0.04810227       0.014
   0.09620454  0.09620454  0.04810227       0.014
   0.12025567  0.09620454  0.04810227       0.028
   0.14430681  0.09620454  0.04810227       0.014
   0.12025567  0.12025567  0.04810227       0.014
   0.14430681  0.12025567  0.04810227       0.014
   0.14430681  0.14430681  0.04810227       0.003
   0.07215340  0.07215340  0.07215340       0.005
   0.09620454  0.07215340  0.07215340       0.014
   0.12025567  0.07215340  0.07215340       0.014
   0.14430681  0.07215340  0.07215340       0.007
   0.09620454  0.09620454  0.07215340       0.014
   0.12025567  0.09620454  0.07215340       0.028
   0.14430681  0.09620454  0.07215340       0.014
   0.12025567  0.12025567  0.07215340       0.014
   0.14430681  0.12025567  0.07215340       0.014
   0.14430681  0.14430681  0.07215340       0.003
   0.09620454  0.09620454  0.09620454       0.005
   0.12025567  0.09620454  0.09620454       0.014
   0.14430681  0.09620454  0.09620454       0.007
   0.12025567  0.12025567  0.09620454       0.014
   0.14430681  0.12025567  0.09620454       0.014
   0.14430681  0.14430681  0.09620454       0.003
   0.12025567  0.12025567  0.12025567       0.005
   0.14430681  0.12025567  0.12025567       0.007
   0.14430681  0.14430681  0.12025567       0.003
   0.14430681  0.14430681  0.14430681       0.001
 
 k-points in reciprocal lattice and weights: kpt_density=1000                        
   0.00000000  0.00000000  0.00000000       0.001
   0.08333333  0.00000000  0.00000000       0.003
   0.16666667  0.00000000  0.00000000       0.003
   0.25000000  0.00000000  0.00000000       0.003
   0.33333333  0.00000000  0.00000000       0.003
   0.41666667  0.00000000  0.00000000       0.003
   0.50000000  0.00000000  0.00000000       0.002
   0.08333333  0.08333333  0.00000000       0.007
   0.16666667  0.08333333  0.00000000       0.014
   0.25000000  0.08333333  0.00000000       0.014
   0.33333333  0.08333333  0.00000000       0.014
   0.41666667  0.08333333  0.00000000       0.014
   0.50000000  0.08333333  0.00000000       0.007
   0.16666667  0.16666667  0.00000000       0.007
   0.25000000  0.16666667  0.00000000       0.014
   0.33333333  0.16666667  0.00000000       0.014
   0.41666667  0.16666667  0.00000000       0.014
   0.50000000  0.16666667  0.00000000       0.007
   0.25000000  0.25000000  0.00000000       0.007
   0.33333333  0.25000000  0.00000000       0.014
   0.41666667  0.25000000  0.00000000       0.014
   0.50000000  0.25000000  0.00000000       0.007
   0.33333333  0.33333333  0.00000000       0.007
   0.41666667  0.33333333  0.00000000       0.014
   0.50000000  0.33333333  0.00000000       0.007
   0.41666667  0.41666667  0.00000000       0.007
   0.50000000  0.41666667  0.00000000       0.007
   0.50000000  0.50000000  0.00000000       0.002
   0.08333333  0.08333333  0.08333333       0.005
   0.16666667  0.08333333  0.08333333       0.014
   0.25000000  0.08333333  0.08333333       0.014
   0.33333333  0.08333333  0.08333333       0.014
   0.41666667  0.08333333  0.08333333       0.014
   0.50000000  0.08333333  0.08333333       0.007
   0.16666667  0.16666667  0.08333333       0.014
   0.25000000  0.16666667  0.08333333       0.028
   0.33333333  0.16666667  0.08333333       0.028
   0.41666667  0.16666667  0.08333333       0.028
   0.50000000  0.16666667  0.08333333       0.014
   0.25000000  0.25000000  0.08333333       0.014
   0.33333333  0.25000000  0.08333333       0.028
   0.41666667  0.25000000  0.08333333       0.028
   0.50000000  0.25000000  0.08333333       0.014
   0.33333333  0.33333333  0.08333333       0.014
   0.41666667  0.33333333  0.08333333       0.028
   0.50000000  0.33333333  0.08333333       0.014
   0.41666667  0.41666667  0.08333333       0.014
   0.50000000  0.41666667  0.08333333       0.014
   0.50000000  0.50000000  0.08333333       0.003
   0.16666667  0.16666667  0.16666667       0.005
   0.25000000  0.16666667  0.16666667       0.014
   0.33333333  0.16666667  0.16666667       0.014
   0.41666667  0.16666667  0.16666667       0.014
   0.50000000  0.16666667  0.16666667       0.007
   0.25000000  0.25000000  0.16666667       0.014
   0.33333333  0.25000000  0.16666667       0.028
   0.41666667  0.25000000  0.16666667       0.028
   0.50000000  0.25000000  0.16666667       0.014
   0.33333333  0.33333333  0.16666667       0.014
   0.41666667  0.33333333  0.16666667       0.028
   0.50000000  0.33333333  0.16666667       0.014
   0.41666667  0.41666667  0.16666667       0.014
   0.50000000  0.41666667  0.16666667       0.014
   0.50000000  0.50000000  0.16666667       0.003
   0.25000000  0.25000000  0.25000000       0.005
   0.33333333  0.25000000  0.25000000       0.014
   0.41666667  0.25000000  0.25000000       0.014
   0.50000000  0.25000000  0.25000000       0.007
   0.33333333  0.33333333  0.25000000       0.014
   0.41666667  0.33333333  0.25000000       0.028
   0.50000000  0.33333333  0.25000000       0.014
   0.41666667  0.41666667  0.25000000       0.014
   0.50000000  0.41666667  0.25000000       0.014
   0.50000000  0.50000000  0.25000000       0.003
   0.33333333  0.33333333  0.33333333       0.005
   0.41666667  0.33333333  0.33333333       0.014
   0.50000000  0.33333333  0.33333333       0.007
   0.41666667  0.41666667  0.33333333       0.014
   0.50000000  0.41666667  0.33333333       0.014
   0.50000000  0.50000000  0.33333333       0.003
   0.41666667  0.41666667  0.41666667       0.005
   0.50000000  0.41666667  0.41666667       0.007
   0.50000000  0.50000000  0.41666667       0.003
   0.50000000  0.50000000  0.50000000       0.001
 
 position of ions in fractional coordinates (direct lattice) 
   0.25000000  0.75000000  0.25000000
   0.00000000  0.00000000  0.50000000
   0.25000000  0.25000000  0.75000000
   0.00000000  0.50000000  0.00000000
   0.75000000  0.75000000  0.75000000
   0.50000000  0.00000000  0.00000000
   0.75000000  0.25000000  0.25000000
   0.50000000  0.50000000  0.50000000
 
 position of ions in cartesian coordinates  (Angst):
   0.86621000  2.59863000  0.86621000
   0.00000000  0.00000000  1.73242000
   0.86621000  0.86621000  2.59863000
   0.00000000  1.73242000  0.00000000
   2.59863000  2.59863000  2.59863000
   1.73242000  0.00000000  0.00000000
   2.59863000  0.86621000  0.86621000
   1.73242000  1.73242000  1.73242000
 


--------------------------------------------------------------------------------------------------------


 k-point  1 :   0.0000 0.0000 0.0000  plane waves:     739
 k-point  2 :   0.0833 0.0000 0.0000  plane waves:     743
 k-point  3 :   0.1667 0.0000 0.0000  plane waves:     755
 k-point  4 :   0.2500 0.0000 0.0000  plane waves:     751
 k-point  5 :   0.3333 0.0000 0.0000  plane waves:     767
 k-point  6 :   0.4167 0.0000 0.0000  plane waves:     772
 k-point  7 :   0.5000 0.0000 0.0000  plane waves:     756
 k-point  8 :   0.0833 0.0833 0.0000  plane waves:     750
 k-point  9 :   0.1667 0.0833 0.0000  plane waves:     756
 k-point 10 :   0.2500 0.0833 0.0000  plane waves:     763
 k-point 11 :   0.3333 0.0833 0.0000  plane waves:     760
 k-point 12 :   0.4167 0.0833 0.0000  plane waves:     763
 k-point 13 :   0.5000 0.0833 0.0000  plane waves:     766
 k-point 14 :   0.1667 0.1667 0.0000  plane waves:     754
 k-point 15 :   0.2500 0.1667 0.0000  plane waves:     762
 k-point 16 :   0.3333 0.1667 0.0000  plane waves:     758
 k-point 17 :   0.4167 0.1667 0.0000  plane waves:     761
 k-point 18 :   0.5000 0.1667 0.0000  plane waves:     754
 k-point 19 :   0.2500 0.2500 0.0000  plane waves:     758
 k-point 20 :   0.3333 0.2500 0.0000  plane waves:     751
 k-point 21 :   0.4167 0.2500 0.0000  plane waves:     761
 k-point 22 :   0.5000 0.2500 0.0000  plane waves:     770
 k-point 23 :   0.3333 0.3333 0.0000  plane waves:     748
 k-point 24 :   0.4167 0.3333 0.0000  plane waves:     754
 k-point 25 :   0.5000 0.3333 0.0000  plane waves:     756
 k-point 26 :   0.4167 0.4167 0.0000  plane waves:     754
 k-point 27 :   0.5000 0.4167 0.0000  plane waves:     766
 k-point 28 :   0.5000 0.5000 0.0000  plane waves:     768
 k-point 29 :   0.0833 0.0833 0.0833  plane waves:     751
 k-point 30 :   0.1667 0.0833 0.0833  plane waves:     759
 k-point 31 :   0.2500 0.0833 0.0833  plane waves:     760
 k-point 32 :   0.3333 0.0833 0.0833  plane waves:     752
 k-point 33 :   0.4167 0.0833 0.0833  plane waves:     760
 k-point 34 :   0.5000 0.0833 0.0833  plane waves:     758
 k-point 35 :   0.1667 0.1667 0.0833  plane waves:     758
 k-point 36 :   0.2500 0.1667 0.0833  plane waves:     752
 k-point 37 :   0.3333 0.1667 0.0833  plane waves:     754
 k-point 38 :   0.4167 0.1667 0.0833  plane waves:     762
 k-point 39 :   0.5000 0.1667 0.0833  plane waves:     760
 k-point 40 :   0.2500 0.2500 0.0833  plane waves:     754
 k-point 41 :   0.3333 0.2500 0.0833  plane waves:     758
 k-point 42 :   0.4167 0.2500 0.0833  plane waves:     759
 k-point 43 :   0.5000 0.2500 0.0833  plane waves:     758
 k-point 44 :   0.3333 0.3333 0.0833  plane waves:     758
 k-point 45 :   0.4167 0.3333 0.0833  plane waves:     755
 k-point 46 :   0.5000 0.3333 0.0833  plane waves:     762
 k-point 47 :   0.4167 0.4167 0.0833  plane waves:     751
 k-point 48 :   0.5000 0.4167 0.0833  plane waves:     756
 k-point 49 :   0.5000 0.5000 0.0833  plane waves:     752
 k-point 50 :   0.1667 0.1667 0.1667  plane waves:     748
 k-point 51 :   0.2500 0.1667 0.1667  plane waves:     750
 k-point 52 :   0.3333 0.1667 0.1667  plane waves:     761
 k-point 53 :   0.4167 0.1667 0.1667  plane waves:     760
 k-point 54 :   0.5000 0.1667 0.1667  plane waves:     768
 k-point 55 :   0.2500 0.2500 0.1667  plane waves:     753
 k-point 56 :   0.3333 0.2500 0.1667  plane waves:     757
 k-point 57 :   0.4167 0.2500 0.1667  plane waves:     757
 k-point 58 :   0.5000 0.2500 0.1667  plane waves:     760
 k-point 59 :   0.3333 0.3333 0.1667  plane waves:     756
 k-point 60 :   0.4167 0.3333 0.1667  plane waves:     754
 k-point 61 :   0.5000 0.3333 0.1667  plane waves:     750
 k-point 62 :   0.4167 0.4167 0.1667  plane waves:     753
 k-point 63 :   0.5000 0.4167 0.1667  plane waves:     750
 k-point 64 :   0.5000 0.5000 0.1667  plane waves:     760
 k-point 65 :   0.2500 0.2500 0.2500  plane waves:     751
 k-point 66 :   0.3333 0.2500 0.2500  plane waves:     753
 k-point 67 :   0.4167 0.2500 0.2500  plane waves:     755
 k-point 68 :   0.5000 0.2500 0.2500  plane waves:     764
 k-point 69 :   0.3333 0.3333 0.2500  plane waves:     746
 k-point 70 :   0.4167 0.3333 0.2500  plane waves:     757
 k-point 71 :   0.5000 0.3333 0.2500  plane waves:     760
 k-point 72 :   0.4167 0.4167 0.2500  plane waves:     756
 k-point 73 :   0.5000 0.4167 0.2500  plane waves:     744
 k-point 74 :   0.5000 0.5000 0.2500  plane waves:     740
 k-point 75 :   0.3333 0.3333 0.3333  plane waves:     753
 k-point 76 :   0.4167 0.3333 0.3333  plane waves:     749
 k-point 77 :   0.5000 0.3333 0.3333  plane waves:     748
 k-point 78 :   0.4167 0.4167 0.3333  plane waves:     746
 k-point 79 :   0.5000 0.4167 0.3333  plane waves:     746
 k-point 80 :   0.5000 0.5000 0.3333  plane waves:     736
 k-point 81 :   0.4167 0.4167 0.4167  plane waves:     744
 k-point 82 :   0.5000 0.4167 0.4167  plane waves:     734
 k-point 83 :   0.5000 0.5000 0.4167  plane waves:     728
 k-point 84 :   0.5000 0.5000 0.5000  plane waves:     720

 maximum and minimum number of plane-waves per node :       198      178

 maximum number of plane-waves:       772
 maximum index in each direction: 
   IXMAX=    5   IYMAX=    5   IZMAX=    5
   IXMIN=   -6   IYMIN=   -6   IZMIN=   -6


 parallel 3D FFT for wavefunctions:
    minimum data exchange during FFTs selected (reduces bandwidth)
 parallel 3D FFT for charge:
    minimum data exchange during FFTs selected (reduces bandwidth)


 total amount of memory used by VASP MPI-rank0    33673. kBytes
=======================================================================

   base      :      30000. kBytes
   nonl-proj :       1100. kBytes
   fftplans  :        345. kBytes
   grid      :        481. kBytes
   one-center:          6. kBytes
   wavefun   :       1741. kBytes
 
     INWAV:  cpu time    0.0004: real time    0.0005
 Broyden mixing: mesh for mixing (old mesh)
   NGX = 11   NGY = 11   NGZ = 11
  (NGX  = 48   NGY  = 48   NGZ  = 48)
  gives a total of   1331 points

 initial charge density was supplied:
 charge density of overlapping atoms calculated
 number of electron      32.0000000 magnetization 
 keeping initial charge density in first step


--------------------------------------------------------------------------------------------------------


 Maximum index for augmentation-charges          293 (set IRDMAX)


--------------------------------------------------------------------------------------------------------


 First call to EWALD:  gamma=   0.512
 Maximum number of real-space cells 3x 3x 3
 Maximum number of reciprocal cells 3x 3x 3

    FEWALD:  cpu time    0.0052: real time    0.0052


--------------------------------------- Iteration      1(   1)  ---------------------------------------


    POTLOK:  cpu time    0.0270: real time    0.0612
    SETDIJ:  cpu time    0.0066: real time    0.0066
     EDDAV:  cpu time    4.3218: real time    4.3320
 BZINTS: Fermi energy: 19.970673; 32.000000 electrons
         Band energy: 144.278515;  BLOECHL correction: -0.155426
       DOS:  cpu time    0.1604: real time    0.1604
    --------------------------------------------
      LOOP:  cpu time    4.5159: real time    4.5603

 eigenvalue-minimisations  :  4032
 total energy-change (2. order) : 0.5828365E+02  (-0.1457113E+04)
 number of electron      32.0000000 magnetization 
 augmentation part       32.0000000 magnetization 

 Free energy of the ion-electron system (eV)
  ---------------------------------------------------
  alpha Z        PSCENC =       125.36673488
  Ewald energy   TEWEN  =     -1432.79341607
  -Hartree energ DENC   =       -63.04498813
  -exchange      EXHF   =         0.00000000
  -V(xc)+E(xc)   XCENC  =       116.66284971
  PAW double counting   =       302.65154477     -311.85538214
  entropy T*S    EENTRO =         0.00000000
  eigenvalues    EBANDS =       144.27851542
  atomic energy  EATOM  =      1177.01779097
  Solvation  Ediel_sol  =         0.00000000
  ---------------------------------------------------
  free energy    TOTEN  =        58.28364942 eV

  energy without entropy =       58.28364942  energy(sigma->0) =       58.28364942


--------------------------------------------------------------------------------------------------------




--------------------------------------- Iteration      1(   2)  ---------------------------------------


     EDDAV:  cpu time    5.3420: real time    5.3450
 BZINTS: Fermi energy:  9.881188; 32.000000 electrons
         Band energy:  14.653971;  BLOECHL correction:  0.000000
       DOS:  cpu time    0.0360: real time    0.0360
    --------------------------------------------
      LOOP:  cpu time    5.3780: real time    5.3810

 eigenvalue-minimisations  :  5576
 total energy-change (2. order) :-0.1296245E+03  (-0.1234077E+03)
 number of electron      32.0000000 magnetization 
 augmentation part       32.0000000 magnetization 

 Free energy of the ion-electron system (eV)
  ---------------------------------------------------
  alpha Z        PSCENC =       125.36673488
  Ewald energy   TEWEN  =     -1432.79341607
  -Hartree energ DENC   =       -63.04498813
  -exchange      EXHF   =         0.00000000
  -V(xc)+E(xc)   XCENC  =       116.66284971
  PAW double counting   =       302.65154477     -311.85538214
  entropy T*S    EENTRO =         0.00000000
  eigenvalues    EBANDS =        14.65397136
  atomic energy  EATOM  =      1177.01779097
  Solvation  Ediel_sol  =         0.00000000
  ---------------------------------------------------
  free energy    TOTEN  =       -71.34089465 eV

  energy without entropy =      -71.34089465  energy(sigma->0) =      -71.34089465


--------------------------------------------------------------------------------------------------------




--------------------------------------- Iteration      1(   3)  ---------------------------------------


     EDDAV:  cpu time    4.9240: real time    4.9250
 BZINTS: Fermi energy:  9.584481; 32.000000 electrons
         Band energy:  10.568210;  BLOECHL correction:  0.000000
       DOS:  cpu time    0.0408: real time    0.0408
    --------------------------------------------
      LOOP:  cpu time    4.9648: real time    4.9658

 eigenvalue-minimisations  :  5192
 total energy-change (2. order) :-0.4085762E+01  (-0.4066584E+01)
 number of electron      32.0000000 magnetization 
 augmentation part       32.0000000 magnetization 

 Free energy of the ion-electron system (eV)
  ---------------------------------------------------
  alpha Z        PSCENC =       125.36673488
  Ewald energy   TEWEN  =     -1432.79341607
  -Hartree energ DENC   =       -63.04498813
  -exchange      EXHF   =         0.00000000
  -V(xc)+E(xc)   XCENC  =       116.66284971
  PAW double counting   =       302.65154477     -311.85538214
  entropy T*S    EENTRO =         0.00000000
  eigenvalues    EBANDS =        10.56820972
  atomic energy  EATOM  =      1177.01779097
  Solvation  Ediel_sol  =         0.00000000
  ---------------------------------------------------
  free energy    TOTEN  =       -75.42665629 eV

  energy without entropy =      -75.42665629  energy(sigma->0) =      -75.42665629


--------------------------------------------------------------------------------------------------------




--------------------------------------- Iteration      1(   4)  ---------------------------------------


     EDDAV:  cpu time    4.9587: real time    4.9598
 BZINTS: Fermi energy:  9.531081; 32.000000 electrons
         Band energy:  10.530331;  BLOECHL correction:  0.000000
       DOS:  cpu time    0.0370: real time    0.0370
    --------------------------------------------
      LOOP:  cpu time    4.9957: real time    4.9968

 eigenvalue-minimisations  :  5024
 total energy-change (2. order) :-0.3787839E-01  (-0.3782815E-01)
 number of electron      32.0000000 magnetization 
 augmentation part       32.0000000 magnetization 

 Free energy of the ion-electron system (eV)
  ---------------------------------------------------
  alpha Z        PSCENC =       125.36673488
  Ewald energy   TEWEN  =     -1432.79341607
  -Hartree energ DENC   =       -63.04498813
  -exchange      EXHF   =         0.00000000
  -V(xc)+E(xc)   XCENC  =       116.66284971
  PAW double counting   =       302.65154477     -311.85538214
  entropy T*S    EENTRO =         0.00000000
  eigenvalues    EBANDS =        10.53033133
  atomic energy  EATOM  =      1177.01779097
  Solvation  Ediel_sol  =         0.00000000
  ---------------------------------------------------
  free energy    TOTEN  =       -75.46453468 eV

  energy without entropy =      -75.46453468  energy(sigma->0) =      -75.46453468


--------------------------------------------------------------------------------------------------------




--------------------------------------- Iteration      1(   5)  ---------------------------------------


     EDDAV:  cpu time    4.9751: real time    4.9757
 BZINTS: Fermi energy:  9.518313; 32.000000 electrons
         Band energy:  10.529634;  BLOECHL correction:  0.000000
       DOS:  cpu time    0.0365: real time    0.0365
    CHARGE:  cpu time    0.1293: real time    0.1293
    MIXING:  cpu time    0.0019: real time    0.0019
    --------------------------------------------
      LOOP:  cpu time    5.1432: real time    5.2221

 eigenvalue-minimisations  :  5192
 total energy-change (2. order) :-0.6975608E-03  (-0.6973990E-03)
 number of electron      31.9999966 magnetization 
 augmentation part        0.8615306 magnetization 

 Broyden mixing:
  rms(total) = 0.10554E+01    rms(broyden)= 0.10552E+01
  rms(prec ) = 0.25426E+01
  weight for this iteration     100.00

 Free energy of the ion-electron system (eV)
  ---------------------------------------------------
  alpha Z        PSCENC =       125.36673488
  Ewald energy   TEWEN  =     -1432.79341607
  -Hartree energ DENC   =       -63.04498813
  -exchange      EXHF   =         0.00000000
  -V(xc)+E(xc)   XCENC  =       116.66284971
  PAW double counting   =       302.65154477     -311.85538214
  entropy T*S    EENTRO =         0.00000000
  eigenvalues    EBANDS =        10.52963377
  atomic energy  EATOM  =      1177.01779097
  Solvation  Ediel_sol  =         0.00000000
  ---------------------------------------------------
  free energy    TOTEN  =       -75.46523224 eV

  energy without entropy =      -75.46523224  energy(sigma->0) =      -75.46523224


--------------------------------------------------------------------------------------------------------




--------------------------------------- Iteration      1(   6)  ---------------------------------------


    POTLOK:  cpu time    0.0213: real time    0.1001
    SETDIJ:  cpu time    0.0064: real time    0.0064
     EDDAV:  cpu time    4.5018: real time    4.5021
 BZINTS: Fermi energy: 10.305196; 32.000000 electrons
         Band energy:  28.405935;  BLOECHL correction:  0.000000
       DOS:  cpu time    0.0366: real time    0.0365
    CHARGE:  cpu time    0.1309: real time    0.1309
    MIXING:  cpu time    0.0018: real time    0.0018
    --------------------------------------------
      LOOP:  cpu time    4.6984: real time    4.6990

 eigenvalue-minimisations  :  4512
 total energy-change (2. order) : 0.2448097E+01  (-0.1591691E+00)
 number of electron      31.9999967 magnetization 
 augmentation part        0.8405420 magnetization 

 Broyden mixing:
  rms(total) = 0.57076E+00    rms(broyden)= 0.57075E+00
  rms(prec ) = 0.13607E+01
  weight for this iteration     100.00

 eigenvalues of (default mixing * dielectric matrix)
  average eigenvalue GAMMA=   2.1378
  2.1378

 Free energy of the ion-electron system (eV)
  ---------------------------------------------------
  alpha Z        PSCENC =       125.36673488
  Ewald energy   TEWEN  =     -1432.79341607
  -Hartree energ DENC   =       -79.34564054
  -exchange      EXHF   =         0.00000000
  -V(xc)+E(xc)   XCENC  =       118.20278589
  PAW double counting   =       411.55573730     -421.42706219
  entropy T*S    EENTRO =         0.00000000
  eigenvalues    EBANDS =        28.40593489
  atomic energy  EATOM  =      1177.01779097
  Solvation  Ediel_sol  =         0.00000000
  ---------------------------------------------------
  free energy    TOTEN  =       -73.01713487 eV

  energy without entropy =      -73.01713487  energy(sigma->0) =      -73.01713487


--------------------------------------------------------------------------------------------------------




--------------------------------------- Iteration      1(   7)  ---------------------------------------


    POTLOK:  cpu time    0.0205: real time    0.0211
    SETDIJ:  cpu time    0.0059: real time    0.0059
     EDDAV:  cpu time    4.6453: real time    4.6459
 BZINTS: Fermi energy: 11.146691; 32.000000 electrons
         Band energy:  48.704743;  BLOECHL correction:  0.000000
       DOS:  cpu time    0.0370: real time    0.0370
    CHARGE:  cpu time    0.1363: real time    0.1363
    MIXING:  cpu time    0.0018: real time    0.0018
    --------------------------------------------
      LOOP:  cpu time    4.8468: real time    4.8481

 eigenvalue-minimisations  :  4648
 total energy-change (2. order) : 0.8240601E+00  (-0.1755108E+00)
 number of electron      31.9999968 magnetization 
 augmentation part        0.8178262 magnetization 

 Broyden mixing:
  rms(total) = 0.71845E-01    rms(broyden)= 0.71515E-01
  rms(prec ) = 0.12550E+00
  weight for this iteration     100.00

 eigenvalues of (default mixing * dielectric matrix)
  average eigenvalue GAMMA=   2.2687
  2.0014  2.5361

 Free energy of the ion-electron system (eV)
  ---------------------------------------------------
  alpha Z        PSCENC =       125.36673488
  Ewald energy   TEWEN  =     -1432.79341607
  -Hartree energ DENC   =      -100.16382053
  -exchange      EXHF   =         0.00000000
  -V(xc)+E(xc)   XCENC  =       120.18430933
  PAW double counting   =       562.19786328     -572.70727992
  entropy T*S    EENTRO =         0.00000000
  eigenvalues    EBANDS =        48.70474331
  atomic energy  EATOM  =      1177.01779097
  Solvation  Ediel_sol  =         0.00000000
  ---------------------------------------------------
  free energy    TOTEN  =       -72.19307475 eV

  energy without entropy =      -72.19307475  energy(sigma->0) =      -72.19307475


--------------------------------------------------------------------------------------------------------




--------------------------------------- Iteration      1(   8)  ---------------------------------------


    POTLOK:  cpu time    0.0212: real time    0.0218
    SETDIJ:  cpu time    0.0069: real time    0.0069
     EDDAV:  cpu time    4.8353: real time    4.8356
 BZINTS: Fermi energy: 11.146878; 32.000000 electrons
         Band energy:  49.102657;  BLOECHL correction:  0.000000
       DOS:  cpu time    0.0366: real time    0.0366
    CHARGE:  cpu time    0.1290: real time    0.1290
    MIXING:  cpu time    0.0022: real time    0.0022
    --------------------------------------------
      LOOP:  cpu time    5.0312: real time    5.0321

 eigenvalue-minimisations  :  5000
 total energy-change (2. order) :-0.8480139E-02  (-0.3284528E-02)
 number of electron      31.9999968 magnetization 
 augmentation part        0.8178093 magnetization 

 Broyden mixing:
  rms(total) = 0.86883E-02    rms(broyden)= 0.85776E-02
  rms(prec ) = 0.15239E-01
  weight for this iteration     100.00

 eigenvalues of (default mixing * dielectric matrix)
  average eigenvalue GAMMA=   2.0976
  1.4392  2.6926  2.1610

 Free energy of the ion-electron system (eV)
  ---------------------------------------------------
  alpha Z        PSCENC =       125.36673488
  Ewald energy   TEWEN  =     -1432.79341607
  -Hartree energ DENC   =      -100.76499317
  -exchange      EXHF   =         0.00000000
  -V(xc)+E(xc)   XCENC  =       120.24668655
  PAW double counting   =       576.73258987     -587.10960540
  entropy T*S    EENTRO =         0.00000000
  eigenvalues    EBANDS =        49.10265747
  atomic energy  EATOM  =      1177.01779097
  Solvation  Ediel_sol  =         0.00000000
  ---------------------------------------------------
  free energy    TOTEN  =       -72.20155489 eV

  energy without entropy =      -72.20155489  energy(sigma->0) =      -72.20155489


--------------------------------------------------------------------------------------------------------




--------------------------------------- Iteration      1(   9)  ---------------------------------------


    POTLOK:  cpu time    0.0215: real time    0.0219
    SETDIJ:  cpu time    0.0059: real time    0.0059
     EDDAV:  cpu time    4.7599: real time    4.7606
 BZINTS: Fermi energy: 11.134251; 32.000000 electrons
         Band energy:  48.986643;  BLOECHL correction:  0.000000
       DOS:  cpu time    0.0368: real time    0.0368
    CHARGE:  cpu time    0.1319: real time    0.1319
    MIXING:  cpu time    0.0021: real time    0.0021
    --------------------------------------------
      LOOP:  cpu time    4.9581: real time    4.9591

 eigenvalue-minimisations  :  4872
 total energy-change (2. order) :-0.1949635E-03  (-0.4312458E-04)
 number of electron      31.9999968 magnetization 
 augmentation part        0.8178058 magnetization 

 Broyden mixing:
  rms(total) = 0.29327E-02    rms(broyden)= 0.29242E-02
  rms(prec ) = 0.51065E-02
  weight for this iteration     100.00

 eigenvalues of (default mixing * dielectric matrix)
  average eigenvalue GAMMA=   2.0339
  0.9718  2.7400  2.4287  1.9950

 Free energy of the ion-electron system (eV)
  ---------------------------------------------------
  alpha Z        PSCENC =       125.36673488
  Ewald energy   TEWEN  =     -1432.79341607
  -Hartree energ DENC   =      -100.65612375
  -exchange      EXHF   =         0.00000000
  -V(xc)+E(xc)   XCENC  =       120.23634559
  PAW double counting   =       576.12788751     -586.48761154
  entropy T*S    EENTRO =         0.00000000
  eigenvalues    EBANDS =        48.98664255
  atomic energy  EATOM  =      1177.01779097
  Solvation  Ediel_sol  =         0.00000000
  ---------------------------------------------------
  free energy    TOTEN  =       -72.20174985 eV

  energy without entropy =      -72.20174985  energy(sigma->0) =      -72.20174985


--------------------------------------------------------------------------------------------------------




--------------------------------------- Iteration      1(  10)  ---------------------------------------


    POTLOK:  cpu time    0.0201: real time    0.0205
    SETDIJ:  cpu time    0.0061: real time    0.0061
     EDDAV:  cpu time    4.8410: real time    4.8413
 BZINTS: Fermi energy: 11.128133; 32.000000 electrons
         Band energy:  49.017880;  BLOECHL correction:  0.000000
       DOS:  cpu time    0.0371: real time    0.0371
    CHARGE:  cpu time    0.1354: real time    0.1354
    MIXING:  cpu time    0.0024: real time    0.0024
    --------------------------------------------
      LOOP:  cpu time    5.0421: real time    5.0427

 eigenvalue-minimisations  :  4976
 total energy-change (2. order) :-0.4807687E-04  (-0.3763990E-05)
 number of electron      31.9999968 magnetization 
 augmentation part        0.8177845 magnetization 

 Broyden mixing:
  rms(total) = 0.27791E-03    rms(broyden)= 0.27303E-03
  rms(prec ) = 0.66083E-03
  weight for this iteration     100.00

 eigenvalues of (default mixing * dielectric matrix)
  average eigenvalue GAMMA=   1.9461
  2.9028  2.5548  2.0583  0.9948  1.2200

 Free energy of the ion-electron system (eV)
  ---------------------------------------------------
  alpha Z        PSCENC =       125.36673488
  Ewald energy   TEWEN  =     -1432.79341607
  -Hartree energ DENC   =      -100.68901124
  -exchange      EXHF   =         0.00000000
  -V(xc)+E(xc)   XCENC  =       120.23903417
  PAW double counting   =       575.39931912     -585.76013019
  entropy T*S    EENTRO =         0.00000000
  eigenvalues    EBANDS =        49.01788043
  atomic energy  EATOM  =      1177.01779097
  Solvation  Ediel_sol  =         0.00000000
  ---------------------------------------------------
  free energy    TOTEN  =       -72.20179793 eV

  energy without entropy =      -72.20179793  energy(sigma->0) =      -72.20179793


--------------------------------------------------------------------------------------------------------




--------------------------------------- Iteration      1(  11)  ---------------------------------------


    POTLOK:  cpu time    0.0221: real time    0.0226
    SETDIJ:  cpu time    0.0059: real time    0.0059
     EDDAV:  cpu time    4.0961: real time    4.0966
 BZINTS: Fermi energy: 11.123004; 32.000000 electrons
         Band energy:  49.029973;  BLOECHL correction:  0.000000
       DOS:  cpu time    0.0366: real time    0.0366
    --------------------------------------------
      LOOP:  cpu time    4.1605: real time    4.1616

 eigenvalue-minimisations  :  3688
 total energy-change (2. order) :-0.7559545E-06  (-0.9612874E-07)
 number of electron      31.9999968 magnetization 
 augmentation part        0.8177845 magnetization 

 Free energy of the ion-electron system (eV)
  ---------------------------------------------------
  alpha Z        PSCENC =       125.36673488
  Ewald energy   TEWEN  =     -1432.79341607
  -Hartree energ DENC   =      -100.70168072
  -exchange      EXHF   =         0.00000000
  -V(xc)+E(xc)   XCENC  =       120.24019711
  PAW double counting   =       575.40707803     -585.76847563
  entropy T*S    EENTRO =         0.00000000
  eigenvalues    EBANDS =        49.02997275
  atomic energy  EATOM  =      1177.01779097
  Solvation  Ediel_sol  =         0.00000000
  ---------------------------------------------------
  free energy    TOTEN  =       -72.20179869 eV

  energy without entropy =      -72.20179869  energy(sigma->0) =      -72.20179869


--------------------------------------------------------------------------------------------------------




 average (electrostatic) potential at core
  the test charge radii are     0.6991
  (the norm of the test charge is              1.0000)
       1 -44.0917       2 -44.0917       3 -44.0917       4 -44.0917       5 -44.0917
       6 -44.0917       7 -44.0917       8 -44.0917
 
 
 
 E-fermi :  11.1230     XC(G=0): -13.6628     alpha+bet :-19.3077


 k-point     1 :       0.0000    0.0000    0.0000
  band No.  band energies     occupation 
      1     -11.6239      2.00000
      2      -2.3464      2.00000
      3      -2.3464      2.00000
      4      -2.3464      2.00000
      5      -2.3464      2.00000
      6      -2.3464      2.00000
      7      -2.3464      2.00000
      8       4.2165      2.00000
      9       4.2165      2.00000
     10       4.2165      2.00000
     11       4.2165      2.00000
     12       4.2165      2.00000
     13       4.2165      2.00000
     14      11.0700      2.00000
     15      11.0700      2.00000
     16      11.0700      2.00000
     17      16.0001      0.00000
     18      16.0001      0.00000
     19      16.0001      0.00000
     20      16.0001      0.00000
     21      16.0001      0.00000
     22      16.0001      0.00000
     23      16.9194      0.00000
     24      16.9194      0.00000

 k-point     2 :       0.0833    0.0000    0.0000
  band No.  band energies     occupation 
      1     -11.5559      2.00000
      2      -3.7362      2.00000
      3      -2.2996      2.00000
      4      -2.2996      2.00000
      5      -2.2996      2.00000
      6      -2.2996      2.00000
      7      -0.8910      2.00000
      8       4.0624      2.00000
      9       4.0624      2.00000
     10       4.0624      2.00000
     11       4.0624      2.00000
     12       4.2839      2.00000
     13       4.2839      2.00000
     14      10.7765      2.00000
     15      10.7765      2.00000
     16      10.9130      2.00000
     17      15.6649      0.00000
     18      16.2822      0.00000
     19      16.2822      0.00000
     20      16.2822      0.00000
     21      16.2822      0.00000
     22      16.4923      0.00000
     23      16.8566      0.00000
     24      17.2690      0.00000

 k-point     3 :       0.1667    0.0000    0.0000
  band No.  band energies     occupation 
      1     -11.3521      2.00000
      2      -5.0430      2.00000
      3      -2.1641      2.00000
      4      -2.1641      2.00000
      5      -2.1641      2.00000
      6      -2.1641      2.00000
      7       0.6073      2.00000
      8       3.6497      2.00000
      9       3.6497      2.00000
     10       3.6497      2.00000
     11       3.6497      2.00000
     12       4.4852      2.00000
     13       4.4852      2.00000
     14      10.0597      2.00000
     15      10.0597      2.00000
     16      10.4573      2.00000
     17      15.4629      0.00000
     18      16.7090      0.00000
     19      17.0755      0.00000
     20      17.0755      0.00000
     21      17.0755      0.00000
     22      17.0755      0.00000
     23      17.1601      0.00000
     24      18.1697      0.00000

 k-point     4 :       0.2500    0.0000    0.0000
  band No.  band energies     occupation 
      1     -11.0131      2.00000
      2      -6.2518      2.00000
      3      -1.9560      2.00000
      4      -1.9560      2.00000
      5      -1.9560      2.00000
      6      -1.9560      2.00000
      7       2.1211      2.00000
      8       3.1009      2.00000
      9       3.1009      2.00000
     10       3.1009      2.00000
     11       3.1009      2.00000
     12       4.8187      2.00000
     13       4.8187      2.00000
     14       9.1673      2.00000
     15       9.1673      2.00000
     16       9.7408      2.00000
     17      15.3876      0.00000
     18      16.4909      0.00000
     19      18.0220      0.00000
     20      18.2596      0.00000
     21      18.2596      0.00000
     22      18.2596      0.00000
     23      18.2596      0.00000
     24      19.3653      0.00000

 k-point     5 :       0.3333    0.0000    0.0000
  band No.  band energies     occupation 
      1     -10.5400      2.00000
      2      -7.3524      2.00000
      3      -1.7109      2.00000
      4      -1.7109      2.00000
      5      -1.7109      2.00000
      6      -1.7109      2.00000
      7       2.5462      2.00000
      8       2.5462      2.00000
      9       2.5462      2.00000
     10       2.5462      2.00000
     11       3.6186      2.00000
     12       5.2792      2.00000
     13       5.2792      2.00000
     14       8.2451      2.00000
     15       8.2451      2.00000
     16       8.8017      2.00000
     17      15.4186      0.00000
     18      16.2280      0.00000
     19      19.0927      0.00000
     20      19.6893      0.00000
     21      19.6893      0.00000
     22      19.6893      0.00000
     23      19.6893      0.00000
     24      20.6986      0.00000

 k-point     6 :       0.4167    0.0000    0.0000
  band No.  band energies     occupation 
      1      -9.9345      2.00000
      2      -8.3368      2.00000
      3      -1.4950      2.00000
      4      -1.4950      2.00000
      5      -1.4950      2.00000
      6      -1.4950      2.00000
      7       2.1207      2.00000
      8       2.1207      2.00000
      9       2.1207      2.00000
     10       2.1207      2.00000
     11       5.0675      2.00000
     12       5.8635      2.00000
     13       5.8635      2.00000
     14       7.3661      2.00000
     15       7.3661      2.00000
     16       7.6887      2.00000
     17      15.5386      0.00000
     18      15.9654      0.00000
     19      20.3767      0.00000
     20      21.1846      0.00000
     21      21.1846      0.00000
     22      21.1846      0.00000
     23      21.1846      0.00000
     24      22.0984      0.00000

 k-point     7 :       0.5000    0.0000    0.0000
  band No.  band energies     occupation 
      1      -9.1990      2.00000
      2      -9.1990      2.00000
      3      -1.4047      2.00000
      4      -1.4047      2.00000
      5      -1.4047      2.00000
      6      -1.4047      2.00000
      7       1.9561      2.00000
      8       1.9561      2.00000
      9       1.9561      2.00000
     10       1.9561      2.00000
     11       6.4379      2.00000
     12       6.4379      2.00000
     13       6.5668      2.00000
     14       6.5668      2.00000
     15       6.5668      2.00000
     16       6.5668      2.00000
     17      15.7312      0.00000
     18      15.7312      0.00000
     19      21.8569      0.00000
     20      21.8569      0.00000
     21      22.0893      0.00000
     22      22.0893      0.00000
     23      22.0893      0.00000
     24      22.0893      0.00000

 k-point     8 :       0.0833    0.0833    0.0000
  band No.  band energies     occupation 
      1     -11.4879      2.00000
      2      -3.6821      2.00000
      3      -3.6821      2.00000
      4      -2.2836      2.00000
      5      -2.2259      2.00000
      6      -0.8572      2.00000
      7      -0.8572      2.00000
      8       3.5309      2.00000
      9       4.1177      2.00000
     10       4.1177      2.00000
     11       4.1472      2.00000
     12       4.1472      2.00000
     13       4.3326      2.00000
     14      10.3122      2.00000
     15      10.4958      2.00000
     16      10.9857      2.00000
     17      15.9506      0.00000
     18      15.9506      0.00000
     19      16.1087      0.00000
     20      16.7661      0.00000
     21      16.7661      0.00000
     22      16.9736      0.00000
     23      17.0549      0.00000
     24      17.3643      0.00000

 k-point     9 :       0.1667    0.0833    0.0000
  band No.  band energies     occupation 
      1     -11.2842      2.00000
      2      -4.9840      2.00000
      3      -3.5218      2.00000
      4      -2.1924      2.00000
      5      -2.0595      2.00000
      6      -0.7649      2.00000
      7       0.6176      2.00000
      8       2.8591      2.00000
      9       3.6714      2.00000
     10       3.7869      2.00000
     11       4.2947      2.00000
     12       4.3098      2.00000
     13       4.3766      2.00000
     14       9.5281      2.00000
     15       9.8012      2.00000
     16      10.7059      2.00000
     17      15.7561      0.00000
     18      16.4953      0.00000
     19      16.7596      0.00000
     20      16.9856      0.00000
     21      17.4235      0.00000
     22      17.5374      0.00000
     23      18.1246      0.00000
     24      18.1687      0.00000

 k-point    10 :       0.2500    0.0833    0.0000
  band No.  band energies     occupation 
      1     -10.9454      2.00000
      2      -6.1898      2.00000
      3      -3.2643      2.00000
      4      -2.0606      2.00000
      5      -1.8066      2.00000
      6      -0.6450      2.00000
      7       2.0854      2.00000
      8       2.1807      2.00000
      9       3.0665      2.00000
     10       3.3296      2.00000
     11       4.0013      2.00000
     12       4.6342      2.00000
     13       4.7583      2.00000
     14       8.6196      2.00000
     15       8.9279      2.00000
     16      10.0922      2.00000
     17      15.6827      0.00000
     18      16.7796      0.00000
     19      17.3772      0.00000
     20      17.9628      0.00000
     21      18.2723      0.00000
     22      18.6871      0.00000
     23      19.3470      0.00000
     24      19.3947      0.00000

 k-point    11 :       0.3333    0.0833    0.0000
  band No.  band energies     occupation 
      1     -10.4727      2.00000
      2      -7.2884      2.00000
      3      -2.9282      2.00000
      4      -1.9564      2.00000
      5      -1.4848      2.00000
      6      -0.5601      2.00000
      7       1.6348      2.00000
      8       2.4241      2.00000
      9       2.9294      2.00000
     10       3.4879      2.00000
     11       3.5730      2.00000
     12       5.0894      2.00000
     13       5.3191      2.00000
     14       7.6772      2.00000
     15       8.0202      2.00000
     16       9.2310      2.00000
     17      15.7173      0.00000
     18      16.5249      0.00000
     19      18.6217      0.00000
     20      19.3278      0.00000
     21      19.4314      0.00000
     22      20.0547      0.00000
     23      20.6307      0.00000
     24      20.6806      0.00000

 k-point    12 :       0.4167    0.0833    0.0000
  band No.  band energies     occupation 
      1      -9.8677      2.00000
      2      -8.2716      2.00000
      3      -2.5505      2.00000
      4      -1.9830      2.00000
      5      -1.1297      2.00000
      6      -0.5980      2.00000
      7       1.3677      2.00000
      8       1.8525      2.00000
      9       2.7334      2.00000
     10       3.1381      2.00000
     11       4.7381      2.00000
     12       5.6676      2.00000
     13       6.1048      2.00000
     14       6.7391      2.00000
     15       7.1511      2.00000
     16       8.2032      2.00000
     17      15.8385      0.00000
     18      16.2623      0.00000
     19      20.0552      0.00000
     20      20.5940      0.00000
     21      21.0304      0.00000
     22      21.3189      0.00000
     23      21.9430      0.00000
     24      22.0793      0.00000

 k-point    13 :       0.5000    0.0833    0.0000
  band No.  band energies     occupation 
      1      -9.1328      2.00000
      2      -9.1328      2.00000
      3      -2.2012      2.00000
      4      -2.2012      2.00000
      5      -0.8049      2.00000
      6      -0.8049      2.00000
      7       1.4592      2.00000
      8       1.4592      2.00000
      9       2.8187      2.00000
     10       2.8187      2.00000
     11       5.7904      2.00000
     12       5.7904      2.00000
     13       6.3589      2.00000
     14       6.3589      2.00000
     15       7.1137      2.00000
     16       7.1137      2.00000
     17      16.0298      0.00000
     18      16.0298      0.00000
     19      21.3349      0.00000
     20      21.3349      0.00000
     21      22.0448      0.00000
     22      22.0448      0.00000
     23      22.4924      0.00000
     24      22.4927      0.00000

 k-point    14 :       0.1667    0.1667    0.0000
  band No.  band energies     occupation 
      1     -11.0809      2.00000
      2      -4.8085      2.00000
      3      -4.8085      2.00000
      4      -2.1773      2.00000
      5      -1.8656      2.00000
      6       0.6310      2.00000
      7       0.6310      2.00000
      8       2.0567      2.00000
      9       3.8398      2.00000
     10       3.8398      2.00000
     11       4.1035      2.00000
     12       4.1035      2.00000
     13       4.6771      2.00000
     14       8.6859      2.00000
     15       9.1507      2.00000
     16      10.7223      2.00000
     17      16.4308      0.00000
     18      16.5766      0.00000
     19      16.5766      0.00000
     20      17.4756      0.00000
     21      18.1664      0.00000
     22      18.1664      0.00000
     23      18.4077      0.00000
     24      18.7864      0.00000

 k-point    15 :       0.2500    0.1667    0.0000
  band No.  band energies     occupation 
      1     -10.7427      2.00000
      2      -6.0050      2.00000
      3      -4.5220      2.00000
      4      -2.1875      2.00000
      5      -1.5808      2.00000
      6       0.5943      2.00000
      7       1.3856      2.00000
      8       1.9540      2.00000
      9       3.1979      2.00000
     10       3.8052      2.00000
     11       4.1457      2.00000
     12       4.6382      2.00000
     13       4.7504      2.00000
     14       7.7626      2.00000
     15       8.3151      2.00000
     16      10.3502      2.00000
     17      16.5090      0.00000
     18      16.9150      0.00000
     19      17.4925      0.00000
     20      17.7928      0.00000
     21      18.9780      0.00000
     22      19.2642      0.00000
     23      19.3543      0.00000
     24      19.5285      0.00000

 k-point    16 :       0.3333    0.1667    0.0000
  band No.  band energies     occupation 
      1     -10.2710      2.00000
      2      -7.0974      2.00000
      3      -4.1346      2.00000
      4      -2.3310      2.00000
      5      -1.2129      2.00000
      6       0.4320      2.00000
      7       1.0017      2.00000
      8       2.5041      2.00000
      9       3.1220      2.00000
     10       3.6369      2.00000
     11       4.5700      2.00000
     12       4.5834      2.00000
     13       5.4370      2.00000
     14       6.8285      2.00000
     15       7.4373      2.00000
     16       9.6455      2.00000
     17      16.5444      0.00000
     18      17.2993      0.00000
     19      17.8712      0.00000
     20      19.2767      0.00000
     21      19.9859      0.00000
     22      20.4771      0.00000
     23      20.5155      0.00000
     24      20.6487      0.00000

 k-point    17 :       0.4167    0.1667    0.0000
  band No.  band energies     occupation 
      1      -9.6674      2.00000
      2      -8.0763      2.00000
      3      -3.6664      2.00000
      4      -2.6745      2.00000
      5      -0.7809      2.00000
      6       0.1104      2.00000
      7       0.9967      2.00000
      8       1.8499      2.00000
      9       3.6852      2.00000
     10       4.1164      2.00000
     11       4.2542      2.00000
     12       5.1449      2.00000
     13       5.9107      2.00000
     14       6.4701      2.00000
     15       6.5915      2.00000
     16       8.6976      2.00000
     17      16.6631      0.00000
     18      17.0656      0.00000
     19      19.1462      0.00000
     20      20.9120      0.00000
     21      21.1858      0.00000
     22      21.2768      0.00000
     23      21.5459      0.00000
     24      22.0563      0.00000

 k-point    18 :       0.5000    0.1667    0.0000
  band No.  band energies     occupation 
      1      -8.9346      2.00000
      2      -8.9346      2.00000
      3      -3.1555      2.00000
      4      -3.1555      2.00000
      5      -0.3200      2.00000
      6      -0.3200      2.00000
      7       1.3170      2.00000
      8       1.3170      2.00000
      9       3.9229      2.00000
     10       3.9229      2.00000
     11       5.0191      2.00000
[...]

 k-point    72 :       0.4167    0.4167    0.2500
  band No.  band energies     occupation 
      1      -7.7005      2.00000
      2      -6.1994      2.00000
      3      -6.1994      2.00000
      4      -4.9413      2.00000
      5      -2.3597      2.00000
      6      -1.1467      2.00000
      7      -1.1467      2.00000
      8       0.2897      2.00000
      9       5.2105      2.00000
     10       6.0298      2.00000
     11       6.0298      2.00000
     12       7.1657      2.00000
     13       7.1773      2.00000
     14       7.3650      2.00000
     15       7.3650      2.00000
     16       8.5385      2.00000
     17      18.9552      0.00000
     18      19.4694      0.00000
     19      19.4694      0.00000
     20      19.8956      0.00000
     21      20.1404      0.00000
     22      20.8427      0.00000
     23      20.8427      0.00000
     24      21.3639      0.00000

 k-point    73 :       0.5000    0.4167    0.2500
  band No.  band energies     occupation 
      1      -7.0015      2.00000
      2      -7.0015      2.00000
      3      -5.5741      2.00000
      4      -5.5741      2.00000
      5      -1.8626      2.00000
      6      -1.8626      2.00000
      7      -0.4926      2.00000
      8      -0.4926      2.00000
      9       5.6397      2.00000
     10       5.6397      2.00000
     11       6.6287      2.00000
     12       6.6287      2.00000
     13       7.4043      2.00000
     14       7.4043      2.00000
     15       8.0934      2.00000
     16       8.0934      2.00000
     17      19.4819      0.00000
     18      19.4819      0.00000
     19      19.7557      0.00000
     20      19.7557      0.00000
     21      20.4279      0.00000
     22      20.4279      0.00000
     23      21.0292      0.00000
     24      21.0292      0.00000

 k-point    74 :       0.5000    0.5000    0.2500
  band No.  band energies     occupation 
      1      -6.3269      2.00000
      2      -6.3269      2.00000
      3      -6.3269      2.00000
      4      -6.3269      2.00000
      5      -1.2539      2.00000
      6      -1.2539      2.00000
      7      -1.2539      2.00000
      8      -1.2539      2.00000
      9       6.1513      2.00000
     10       6.1513      2.00000
     11       6.1513      2.00000
     12       6.1513      2.00000
     13       7.9095      2.00000
     14       7.9095      2.00000
     15       7.9095      2.00000
     16       7.9095      2.00000
     17      19.6992      0.00000
     18      19.6992      0.00000
     19      19.6992      0.00000
     20      19.6992      0.00000
     21      20.7282      0.00000
     22      20.7282      0.00000
     23      20.7282      0.00000
     24      20.7282      0.00000

 k-point    75 :       0.3333    0.3333    0.3333
  band No.  band energies     occupation 
      1      -8.4139      2.00000
      2      -5.4445      2.00000
      3      -5.4445      2.00000
      4      -5.4445      2.00000
      5      -1.7647      2.00000
      6      -1.7647      2.00000
      7      -1.7647      2.00000
      8       1.0830      2.00000
      9       5.7436      2.00000
     10       5.7436      2.00000
     11       5.7436      2.00000
     12       6.7505      2.00000
     13       6.7505      2.00000
     14       6.7505      2.00000
     15       8.5508      2.00000
     16       8.5508      2.00000
     17      18.4857      0.00000
     18      18.4857      0.00000
     19      18.4857      0.00000
     20      19.7757      0.00000
     21      19.7757      0.00000
     22      20.6645      0.00000
     23      22.4293      0.00000
     24      22.4293      0.00000

 k-point    76 :       0.4167    0.3333    0.3333
  band No.  band energies     occupation 
      1      -7.8303      2.00000
      2      -6.3239      2.00000
      3      -5.0556      2.00000
      4      -5.0556      2.00000
      5      -2.4929      2.00000
      6      -2.4929      2.00000
      7      -1.2666      2.00000
      8       0.1811      2.00000
      9       5.9674      2.00000
     10       5.9674      2.00000
     11       6.9240      2.00000
     12       6.9898      2.00000
     13       6.9898      2.00000
     14       7.1538      2.00000
     15       8.0828      2.00000
     16       8.4232      2.00000
     17      18.8588      0.00000
     18      19.0385      0.00000
     19      19.0385      0.00000
     20      19.5287      0.00000
     21      20.2465      0.00000
     22      20.9662      0.00000
     23      21.4768      0.00000
     24      21.4883      0.00000

 k-point    77 :       0.5000    0.3333    0.3333
  band No.  band energies     occupation 
      1      -7.1291      2.00000
      2      -7.1291      2.00000
      3      -4.8573      2.00000
      4      -4.8573      2.00000
      5      -2.8052      2.00000
      6      -2.8052      2.00000
      7      -0.6080      2.00000
      8      -0.6080      2.00000
      9       6.0448      2.00000
     10       6.0448      2.00000
     11       7.0659      2.00000
     12       7.0659      2.00000
     13       7.6068      2.00000
     14       7.6068      2.00000
     15       7.8526      2.00000
     16       7.8526      2.00000
     17      19.2208      0.00000
     18      19.2208      0.00000
     19      19.5588      0.00000
     20      19.5588      0.00000
     21      20.7606      0.00000
     22      20.7606      0.00000
     23      20.8609      0.00000
     24      20.8609      0.00000

 k-point    78 :       0.4167    0.4167    0.3333
  band No.  band energies     occupation 
      1      -7.2582      2.00000
      2      -5.8184      2.00000
      3      -5.8184      2.00000
      4      -4.9755      2.00000
      5      -2.9313      2.00000
      6      -2.1086      2.00000
      7      -2.1086      2.00000
      8      -0.7174      2.00000
      9       6.3984      2.00000
     10       6.8910      2.00000
     11       6.8910      2.00000
     12       7.3894      2.00000
     13       7.4738      2.00000
     14       7.4738      2.00000
     15       7.8701      2.00000
     16       8.3757      2.00000
     17      19.2306      0.00000
     18      19.3597      0.00000
     19      19.3597      0.00000
     20      19.8196      0.00000
     21      20.0459      0.00000
     22      20.8567      0.00000
     23      20.8578      0.00000
     24      21.0710      0.00000

 k-point    79 :       0.5000    0.4167    0.3333
  band No.  band energies     occupation 
      1      -6.5783      2.00000
      2      -6.5783      2.00000
      3      -5.2989      2.00000
      4      -5.2989      2.00000
      5      -2.7347      2.00000
      6      -2.7347      2.00000
      7      -1.4911      2.00000
      8      -1.4911      2.00000
      9       6.6949      2.00000
     10       6.6949      2.00000
     11       7.4563      2.00000
     12       7.4563      2.00000
     13       7.5745      2.00000
     14       7.5745      2.00000
     15       8.0469      2.00000
     16       8.0469      2.00000
     17      19.6344      0.00000
     18      19.6344      0.00000
     19      19.6561      0.00000
     20      19.6561      0.00000
     21      20.3679      0.00000
     22      20.3679      0.00000
     23      20.5814      0.00000
     24      20.5814      0.00000

 k-point    80 :       0.5000    0.5000    0.3333
  band No.  band energies     occupation 
      1      -5.9435      2.00000
      2      -5.9435      2.00000
      3      -5.9435      2.00000
      4      -5.9435      2.00000
      5      -2.2257      2.00000
      6      -2.2257      2.00000
      7      -2.2257      2.00000
      8      -2.2257      2.00000
      9       7.1280      2.00000
     10       7.1280      2.00000
     11       7.1280      2.00000
     12       7.1280      2.00000
     13       7.9704      2.00000
     14       7.9704      2.00000
     15       7.9704      2.00000
     16       7.9704      2.00000
     17      19.8278      0.00000
     18      19.8278      0.00000
     19      19.8278      0.00000
     20      19.8278      0.00000
     21      20.3043      0.00000
     22      20.3043      0.00000
     23      20.3043      0.00000
     24      20.3043      0.00000

 k-point    81 :       0.4167    0.4167    0.4167
  band No.  band energies     occupation 
      1      -6.7053      2.00000
      2      -5.4187      2.00000
      3      -5.4187      2.00000
      4      -5.4187      2.00000
      5      -2.8614      2.00000
      6      -2.8614      2.00000
      7      -2.8614      2.00000
      8      -1.6085      2.00000
      9       7.3616      2.00000
     10       7.3616      2.00000
     11       7.3616      2.00000
     12       7.6462      2.00000
     13       7.6462      2.00000
     14       7.6462      2.00000
     15       8.1608      2.00000
     16       8.1608      2.00000
     17      19.5087      0.00000
     18      19.5087      0.00000
     19      19.5087      0.00000
     20      19.9020      0.00000
     21      19.9020      0.00000
     22      20.6180      0.00000
     23      20.6180      0.00000
     24      20.6327      0.00000

 k-point    82 :       0.5000    0.4167    0.4167
  band No.  band energies     occupation 
      1      -6.0674      2.00000
      2      -6.0674      2.00000
      3      -5.2125      2.00000
      4      -5.2125      2.00000
      5      -3.1863      2.00000
      6      -3.1863      2.00000
      7      -2.3487      2.00000
      8      -2.3487      2.00000
      9       7.4484      2.00000
     10       7.4484      2.00000
     11       7.7859      2.00000
     12       7.7859      2.00000
     13       7.9119      2.00000
     14       7.9119      2.00000
     15       7.9845      2.00000
     16       7.9845      2.00000
     17      19.7447      0.00000
     18      19.7447      0.00000
     19      19.7617      0.00000
     20      19.7617      0.00000
     21      20.1746      0.00000
     22      20.1746      0.00000
     23      20.2778      0.00000
     24      20.2778      0.00000

 k-point    83 :       0.5000    0.5000    0.4167
  band No.  band energies     occupation 
      1      -5.5402      2.00000
      2      -5.5402      2.00000
      3      -5.5402      2.00000
      4      -5.5402      2.00000
      5      -2.9865      2.00000
      6      -2.9865      2.00000
      7      -2.9865      2.00000
      8      -2.9865      2.00000
      9       7.7928      2.00000
     10       7.7928      2.00000
     11       7.7928      2.00000
     12       7.7928      2.00000
     13       8.0143      2.00000
     14       8.0143      2.00000
     15       8.0143      2.00000
     16       8.0143      2.00000
     17      19.9049      0.00000
     18      19.9049      0.00000
     19      19.9049      0.00000
     20      19.9049      0.00000
     21      20.0187      0.00000
     22      20.0187      0.00000
     23      20.0187      0.00000
     24      20.0187      0.00000

 k-point    84 :       0.5000    0.5000    0.5000
  band No.  band energies     occupation 
      1      -5.3313      2.00000
      2      -5.3313      2.00000
      3      -5.3313      2.00000
      4      -5.3313      2.00000
      5      -3.3152      2.00000
      6      -3.3152      2.00000
      7      -3.3152      2.00000
      8      -3.3152      2.00000
      9       8.0312      2.00000
     10       8.0312      2.00000
     11       8.0312      2.00000
     12       8.0312      2.00000
     13       8.0312      2.00000
     14       8.0312      2.00000
     15       8.0312      2.00000
     16       8.0312      2.00000
     17      19.9168      0.00000
     18      19.9168      0.00000
     19      19.9168      0.00000
     20      19.9168      0.00000
     21      19.9168      0.00000
     22      19.9168      0.00000
     23      19.9168      0.00000
     24      19.9168      0.00000


--------------------------------------------------------------------------------------------------------


 soft charge-density along one line, spin component           1
         0         1         2         3         4         5         6         7         8         9
 total charge-density along one line
 
 pseudopotential strength for first ion, spin component:           1
  9.369  -0.007   0.000   0.000   0.000  -0.000  -0.000  -0.000
 -0.007  -0.002  -0.000  -0.000   0.000  -0.000  -0.000   0.000
  0.000  -0.000  -3.586   0.000  -0.000  -0.012   0.000  -0.000
  0.000  -0.000   0.000  -3.586   0.000   0.000  -0.012   0.000
  0.000   0.000  -0.000   0.000  -3.586  -0.000   0.000  -0.012
 -0.000  -0.000  -0.012   0.000  -0.000  -0.756   0.000  -0.000
 -0.000  -0.000   0.000  -0.012   0.000   0.000  -0.756   0.000
 -0.000   0.000  -0.000   0.000  -0.012  -0.000   0.000  -0.756
 total augmentation occupancy for first ion, spin component:           1
  1.437  -1.159   0.000   0.000   0.000  -0.000   0.000   0.000
 -1.159   1.238   0.000  -0.000  -0.000  -0.000  -0.000   0.000
 -0.000   0.000   1.153  -0.000  -0.000   0.201   0.000   0.000
  0.000  -0.000   0.000   1.153   0.000  -0.000   0.201  -0.000
 -0.000   0.000   0.000  -0.000   1.153   0.000   0.000   0.201
 -0.000   0.000   0.201  -0.000   0.000   0.042  -0.000  -0.000
  0.000  -0.000   0.000   0.201  -0.000  -0.000   0.042  -0.000
  0.000   0.000   0.000   0.000   0.201  -0.000   0.000   0.042


------------------------ aborting loop because EDIFF is reached ----------------------------------------


    CHARGE:  cpu time    0.1287: real time    0.1287
    FORLOC:  cpu time    0.0020: real time    0.0020
    FORNL :  cpu time    0.1968: real time    0.1968
    STRESS:  cpu time    0.4663: real time    0.4665
    FORHAR:  cpu time    0.0055: real time    0.0055
    MIXING:  cpu time    0.0020: real time    0.0020
    OFIELD:  cpu time    0.0001: real time    0.0001

  FORCE on cell =-STRESS in cart. coord.  units (eV):
  Direction    XX          YY          ZZ          XY          YZ          ZX
  --------------------------------------------------------------------------------------
  Alpha Z   125.36673   125.36673   125.36673
  Ewald    -477.59862  -477.59862  -477.59862    -0.00000    -0.00000    -0.00000
  Hartree    33.56666    33.56666    33.56666    -0.00000    -0.00000    -0.00000
  E(xc)    -122.16361  -122.16361  -122.16361     0.00000     0.00000     0.00000
  Local     -40.63949   -40.63949   -40.63949    -0.00000    -0.00000     0.00000
  n-local   -31.62581   -32.37699   -32.21362     0.61548     0.73019     0.34100
  augment    -3.21135    -3.21135    -3.21135     0.00000     0.00000    -0.00000
  Kinetic   515.85741   532.68481   535.62222    -4.74127    -6.53736    -3.27282
  Fock        0.00000     0.00000     0.00000     0.00000     0.00000     0.00000
  -------------------------------------------------------------------------------------
  Total      11.30299    11.30299    11.30299     0.00000     0.00000     0.00000
  in kB     435.36570   435.36570   435.36570     0.00000     0.00000     0.00000
  external pressure =      435.37 kB  Pullay stress =        0.00 kB


 VOLUME and BASIS-vectors are now :
 -----------------------------------------------------------------------------
  energy-cutoff  :      400.00
  volume of cell :       41.60
      direct lattice vectors                 reciprocal lattice vectors
     3.464840000  0.000000000  0.000000000     0.288613616  0.000000000  0.000000000
     0.000000000  3.464840000  0.000000000     0.000000000  0.288613616  0.000000000
     0.000000000  0.000000000  3.464840000     0.000000000  0.000000000  0.288613616

  length of vectors
     3.464840000  3.464840000  3.464840000     0.288613616  0.288613616  0.288613616


 FORCES acting on ions
    electron-ion (+dipol)            ewald-force                    non-local-force                 convergence-correction
 -----------------------------------------------------------------------------------------------
   0.820E-14 -.142E-12 -.346E-13   -.568E-13 -.213E-13 0.000E+00   -.147E-17 0.133E-16 0.390E-16   -.383E-14 -.275E-14 0.167E-13
   -.164E-13 -.224E-15 -.147E-13   -.143E-13 -.545E-15 0.198E-16   -.155E-16 0.935E-18 -.237E-16   0.897E-14 -.364E-14 0.191E-13
   0.164E-13 -.163E-12 -.126E-13   -.426E-13 -.213E-13 -.142E-13   0.260E-16 -.675E-17 0.288E-16   -.419E-14 -.325E-14 0.156E-13
   -.164E-13 0.174E-13 -.330E-13   -.224E-14 -.260E-16 -.138E-13   -.107E-16 -.284E-17 -.177E-16   0.894E-14 -.402E-14 0.198E-13
   0.492E-13 0.209E-12 0.348E-12   0.000E+00 0.000E+00 0.142E-13   0.139E-16 0.686E-17 0.249E-16   0.482E-14 -.262E-14 0.156E-13
   0.164E-13 -.980E-16 -.438E-12   0.354E-13 0.189E-13 0.146E-13   -.193E-17 -.169E-16 -.309E-16   0.761E-14 -.362E-14 0.197E-13
   0.410E-13 -.180E-12 -.415E-13   0.213E-13 0.000E+00 0.000E+00   -.660E-17 0.304E-17 0.179E-16   0.476E-14 -.323E-14 0.166E-13
   0.164E-13 0.375E-12 -.170E-13   0.572E-13 0.212E-13 -.186E-16   -.160E-16 0.112E-16 -.271E-16   0.741E-14 -.366E-14 0.187E-13
 -----------------------------------------------------------------------------------------------
   0.115E-12 0.115E-12 -.244E-12   -.212E-14 -.313E-14 0.839E-15   -.123E-16 0.893E-17 0.112E-16   0.345E-13 -.268E-13 0.142E-12
 
 
 POSITION                                       TOTAL-FORCE (eV/Angst)
 -----------------------------------------------------------------------------------
      0.86621      2.59863      0.86621        -0.000000      0.000000     -0.000000
      0.00000      0.00000      1.73242        -0.000000     -0.000000      0.000000
      0.86621      0.86621      2.59863        -0.000000     -0.000000     -0.000000
      0.00000      1.73242      0.00000         0.000000     -0.000000      0.000000
      2.59863      2.59863      2.59863        -0.000000      0.000000     -0.000000
      1.73242      0.00000      0.00000         0.000000     -0.000000      0.000000
      2.59863      0.86621      0.86621        -0.000000      0.000000     -0.000000
      1.73242      1.73242      1.73242         0.000000      0.000000      0.000000
 -----------------------------------------------------------------------------------
    total drift:                                0.000000      0.000000     -0.000000


--------------------------------------------------------------------------------------------------------



  FREE ENERGIE OF THE ION-ELECTRON SYSTEM (eV)
  ---------------------------------------------------
  free  energy   TOTEN  =       -72.20179869 eV

  energy  without entropy=      -72.20179869  energy(sigma->0) =      -72.20179869
 


--------------------------------------------------------------------------------------------------------


    POTLOK:  cpu time    0.0282: real time    0.0282


--------------------------------------------------------------------------------------------------------


     LOOP+:  cpu time   54.6208: real time   54.8074
    4ORBIT:  cpu time    0.0000: real time    0.0000
 BZINTS: Fermi energy: 11.123004; 32.000000 electrons
         Band energy:  49.029973;  BLOECHL correction:  0.000000

 total amount of memory used by VASP MPI-rank0    33673. kBytes
=======================================================================

   base      :      30000. kBytes
   nonl-proj :       1100. kBytes
   fftplans  :        345. kBytes
   grid      :        481. kBytes
   one-center:          6. kBytes
   wavefun   :       1741. kBytes
 
  
  
 General timing and accounting informations for this job:
 ========================================================
  
                  Total CPU time used (sec):       56.896
                            User time (sec):       54.933
                          System time (sec):        1.963
                         Elapsed time (sec):       57.124
  
                   Maximum memory used (kb):      189608.
                   Average memory used (kb):           0.
  
                          Minor page faults:        36885
                          Major page faults:           36
                 Voluntary context switches:          786
