  64  64   0   0
  0.5877168E+01  0.7218540E-09  0.7218540E-09  0.7218540E-09  0.5000000E-15
  1.000000000000000E-004
  CAR 
 unknown system                          
     22.47435061    -13.38875915  301      9.57110258      1.00000000
    -13.389  0.0000E+00  0.0000E+00
    -13.269  0.0000E+00  0.0000E+00
    -13.150  0.0000E+00  0.0000E+00
    -13.030  0.0000E+00  0.0000E+00
    -12.911  0.0000E+00  0.0000E+00
    -12.791  0.0000E+00  0.0000E+00
    -12.671  0.0000E+00  0.0000E+00
    -12.552  0.0000E+00  0.0000E+00
    -12.432  0.0000E+00  0.0000E+00
    -12.313  0.0000E+00  0.0000E+00
    -12.193  0.0000E+00  0.0000E+00
    -12.074  0.1807E-14  0.2160E-15
    -11.954  0.7084E-07  0.8468E-08
    -11.835  0.2158E-02  0.2580E-03
    -11.715  0.2633E+00  0.3174E-01
    -11.596  0.1125E+01  0.1663E+00
    -11.476  0.1670E+01  0.3660E+00
    -11.357  0.2322E+01  0.6435E+00
    -11.237  0.2489E+01  0.9410E+00
    -11.117  0.2843E+01  0.1281E+01
    -10.998  0.3383E+01  0.1685E+01
    -10.878  0.2747E+01  0.2014E+01
    -10.759  0.4250E+01  0.2522E+01
    -10.639  0.3557E+01  0.2947E+01
    -10.520  0.4227E+01  0.3452E+01
    -10.400  0.4134E+01  0.3946E+01
    -10.281  0.5099E+01  0.4556E+01
    -10.161  0.4675E+01  0.5115E+01
    -10.042  0.3675E+01  0.5554E+01
     -9.922  0.6045E+01  0.6277E+01
     -9.802  0.5711E+01  0.6960E+01
     -9.683  0.4692E+01  0.7520E+01
     -9.563  0.5493E+01  0.8177E+01
     -9.444  0.6212E+01  0.8920E+01
     -9.324  0.6457E+01  0.9692E+01
     -9.205  0.5274E+01  0.1032E+02
     -9.085  0.7294E+01  0.1119E+02
     -8.966  0.4889E+01  0.1178E+02
     -8.846  0.7002E+01  0.1262E+02
     -8.727  0.6998E+01  0.1345E+02
     -8.607  0.8737E+01  0.1450E+02
     -8.487  0.5352E+01  0.1514E+02
     -8.368  0.6273E+01  0.1589E+02
     -8.248  0.8804E+01  0.1694E+02
     -8.129  0.7420E+01  0.1783E+02
     -8.009  0.8319E+01  0.1882E+02
     -7.890  0.6833E+01  0.1964E+02
     -7.770  0.8696E+01  0.2068E+02
     -7.651  0.7605E+01  0.2159E+02
     -7.531  0.8022E+01  0.2254E+02
     -7.412  0.9013E+01  0.2362E+02
     -7.292  0.9475E+01  0.2475E+02
     -7.172  0.9660E+01  0.2591E+02
     -7.053  0.8539E+01  0.2693E+02
     -6.933  0.8015E+01  0.2789E+02
     -6.814  0.8799E+01  0.2894E+02
     -6.694  0.1216E+02  0.3039E+02
     -6.575  0.1052E+02  0.3165E+02
     -6.455  0.9792E+01  0.3282E+02
     -6.336  0.1049E+02  0.3408E+02
     -6.216  0.1242E+02  0.3556E+02
     -6.097  0.1119E+02  0.3690E+02
     -5.977  0.1347E+02  0.3851E+02
     -5.858  0.1178E+02  0.3992E+02
     -5.738  0.1135E+02  0.4127E+02
     -5.618  0.1531E+02  0.4310E+02
     -5.499  0.1058E+02  0.4437E+02
     -5.379  0.8599E+01  0.4540E+02
     -5.260  0.1087E+02  0.4669E+02
     -5.140  0.1134E+02  0.4805E+02
     -5.021  0.8350E+01  0.4905E+02
     -4.901  0.1382E+02  0.5070E+02
     -4.782  0.7424E+01  0.5159E+02
     -4.662  0.1066E+02  0.5286E+02
     -4.543  0.8250E+01  0.5385E+02
     -4.423  0.8282E+01  0.5484E+02
     -4.303  0.7886E+01  0.5578E+02
     -4.184  0.8927E+01  0.5685E+02
     -4.064  0.5866E+01  0.5755E+02
     -3.945  0.9025E+01  0.5863E+02
     -3.825  0.7476E+01  0.5952E+02
     -3.706  0.8745E+01  0.6057E+02
     -3.586  0.8000E+01  0.6152E+02
     -3.467  0.6129E+01  0.6226E+02
     -3.347  0.5215E+01  0.6288E+02
     -3.228  0.9962E+01  0.6407E+02
     -3.108  0.1040E+02  0.6532E+02
     -2.988  0.8855E+01  0.6637E+02
     -2.869  0.8945E+01  0.6744E+02
     -2.749  0.7059E+01  0.6829E+02
     -2.630  0.9851E+01  0.6946E+02
     -2.510  0.9103E+01  0.7055E+02
     -2.391  0.9239E+01  0.7166E+02
     -2.271  0.1085E+02  0.7295E+02
     -2.152  0.1720E+02  0.7501E+02
     -2.032  0.2725E+02  0.7827E+02
     -1.913  0.2571E+02  0.8134E+02
     -1.793  0.1366E+02  0.8298E+02
     -1.673  0.1408E+02  0.8466E+02
     -1.554  0.1398E+02  0.8633E+02
     -1.434  0.1159E+02  0.8771E+02
     -1.315  0.1437E+02  0.8943E+02
     -1.195  0.2069E+02  0.9191E+02
     -1.076  0.9246E+01  0.9301E+02
     -0.956  0.1142E+02  0.9438E+02
     -0.837  0.8815E+01  0.9543E+02
     -0.717  0.7615E+01  0.9634E+02
     -0.598  0.9646E+01  0.9749E+02
     -0.478  0.1080E+02  0.9878E+02
     -0.358  0.8280E+01  0.9977E+02
     -0.239  0.1140E+02  0.1011E+03
     -0.119  0.1233E+02  0.1026E+03
      0.000  0.4873E+01  0.1032E+03
      0.120  0.4725E+01  0.1038E+03
      0.239  0.1042E+02  0.1050E+03
      0.359  0.1314E+02  0.1066E+03
      0.478  0.1017E+02  0.1078E+03
      0.598  0.1355E+02  0.1094E+03
      0.717  0.1573E+02  0.1113E+03
      0.837  0.1989E+02  0.1137E+03
      0.956  0.1404E+02  0.1153E+03
      1.076  0.1461E+02  0.1171E+03
      1.196  0.1959E+02  0.1194E+03
      1.315  0.1980E+02  0.1218E+03
      1.435  0.1451E+02  0.1235E+03
      1.554  0.1515E+02  0.1253E+03
      1.674  0.1280E+02  0.1269E+03
      1.793  0.2267E+02  0.1296E+03
      1.913  0.2018E+02  0.1320E+03
      2.032  0.1595E+02  0.1339E+03
      2.152  0.1666E+02  0.1359E+03
      2.271  0.1340E+02  0.1375E+03
      2.391  0.1905E+02  0.1398E+03
      2.511  0.2521E+02  0.1428E+03
      2.630  0.2115E+02  0.1453E+03
      2.750  0.1282E+02  0.1469E+03
      2.869  0.2130E+02  0.1494E+03
      2.989  0.2623E+02  0.1525E+03
      3.108  0.2354E+02  0.1553E+03
      3.228  0.2376E+02  0.1582E+03
      3.347  0.2335E+02  0.1610E+03
      3.467  0.2618E+02  0.1641E+03
      3.586  0.2611E+02  0.1672E+03
      3.706  0.3003E+02  0.1708E+03
      3.826  0.2639E+02  0.1740E+03
      3.945  0.1892E+02  0.1762E+03
      4.065  0.2523E+02  0.1793E+03
      4.184  0.2130E+02  0.1818E+03
      4.304  0.3144E+02  0.1856E+03
      4.423  0.2646E+02  0.1887E+03
      4.543  0.2065E+02  0.1912E+03
      4.662  0.1676E+02  0.1932E+03
      4.782  0.2704E+02  0.1964E+03
      4.901  0.2677E+02  0.1996E+03
      5.021  0.2666E+02  0.2028E+03
      5.141  0.1542E+02  0.2047E+03
      5.260  0.2211E+02  0.2073E+03
      5.380  0.2302E+02  0.2101E+03
      5.499  0.2739E+02  0.2133E+03
      5.619  0.2153E+02  0.2159E+03
      5.738  0.1753E+02  0.2180E+03
      5.858  0.2055E+02  0.2205E+03
      5.977  0.2217E+02  0.2231E+03
      6.097  0.2650E+02  0.2263E+03
      6.216  0.1939E+02  0.2286E+03
      6.336  0.1825E+02  0.2308E+03
      6.455  0.1726E+02  0.2328E+03
      6.575  0.2450E+02  0.2358E+03
      6.695  0.2051E+02  0.2382E+03
      6.814  0.8751E+01  0.2393E+03
      6.934  0.1552E+02  0.2411E+03
      7.053  0.1381E+02  0.2428E+03
      7.173  0.1136E+02  0.2441E+03
      7.292  0.1127E+02  0.2455E+03
      7.412  0.7746E+01  0.2464E+03
      7.531  0.1010E+02  0.2476E+03
      7.651  0.9919E+01  0.2488E+03
      7.770  0.7921E+01  0.2497E+03
      7.890  0.5294E+01  0.2504E+03
      8.010  0.7612E+01  0.2513E+03
      8.129  0.6278E+01  0.2520E+03
      8.249  0.6633E+01  0.2528E+03
      8.368  0.4181E+01  0.2533E+03
      8.488  0.4334E+01  0.2538E+03
      8.607  0.4825E+01  0.2544E+03
      8.727  0.3185E+01  0.2548E+03
      8.846  0.3721E+01  0.2552E+03
      8.966  0.2101E+01  0.2555E+03
      9.085  0.2335E+01  0.2558E+03
      9.205  0.1431E+01  0.2559E+03
      9.325  0.4349E+00  0.2560E+03
      9.444  0.1999E-01  0.2560E+03
      9.564  0.5447E-05  0.2560E+03
      9.683  0.1114E-11  0.2560E+03
      9.803  0.0000E+00  0.2560E+03
      9.922  0.0000E+00  0.2560E+03
     10.042  0.0000E+00  0.2560E+03
     10.161  0.0000E+00  0.2560E+03
     10.281  0.0000E+00  0.2560E+03
     10.400  0.0000E+00  0.2560E+03
     10.520  0.0000E+00  0.2560E+03
     10.640  0.0000E+00  0.2560E+03
     10.759  0.0000E+00  0.2560E+03
     10.879  0.0000E+00  0.2560E+03
     10.998  0.0000E+00  0.2560E+03
     11.118  0.0000E+00  0.2560E+03
     11.237  0.0000E+00  0.2560E+03
     11.357  0.0000E+00  0.2560E+03
     11.476  0.0000E+00  0.2560E+03
     11.596  0.0000E+00  0.2560E+03
     11.715  0.0000E+00  0.2560E+03
     11.835  0.0000E+00  0.2560E+03
     11.955  0.0000E+00  0.2560E+03
     12.074  0.0000E+00  0.2560E+03
     12.194  0.0000E+00  0.2560E+03
     12.313  0.0000E+00  0.2560E+03
     12.433  0.0000E+00  0.2560E+03
     12.552  0.0000E+00  0.2560E+03
     12.672  0.0000E+00  0.2560E+03
     12.791  0.0000E+00  0.2560E+03
     12.911  0.0000E+00  0.2560E+03
     13.030  0.1034E-10  0.2560E+03
     13.150  0.3534E-04  0.2560E+03
     13.269  0.7432E-01  0.2560E+03
     13.389  0.6640E+00  0.2561E+03
     13.509  0.2396E+01  0.2564E+03
     13.628  0.3936E+01  0.2568E+03
     13.748  0.3448E+01  0.2573E+03
     13.867  0.2947E+01  0.2576E+03
     13.987  0.7703E+01  0.2585E+03
     14.106  0.9124E+01  0.2596E+03
     14.226  0.9054E+01  0.2607E+03
     14.345  0.5278E+01  0.2613E+03
     14.465  0.8386E+01  0.2623E+03
     14.584  0.1374E+02  0.2640E+03
     14.704  0.1567E+02  0.2659E+03
     14.824  0.1257E+02  0.2674E+03
     14.943  0.1364E+02  0.2690E+03
     15.063  0.1416E+02  0.2707E+03
     15.182  0.1254E+02  0.2722E+03
     15.302  0.1512E+02  0.2740E+03
     15.421  0.2112E+02  0.2765E+03
     15.541  0.2055E+02  0.2790E+03
     15.660  0.1490E+02  0.2807E+03
     15.780  0.1620E+02  0.2827E+03
     15.899  0.2071E+02  0.2852E+03
     16.019  0.1815E+02  0.2873E+03
     16.139  0.2007E+02  0.2897E+03
     16.258  0.2239E+02  0.2924E+03
     16.378  0.2465E+02  0.2954E+03
     16.497  0.1934E+02  0.2977E+03
     16.617  0.2523E+02  0.3007E+03
     16.736  0.2493E+02  0.3037E+03
     16.856  0.2493E+02  0.3066E+03
     16.975  0.3209E+02  0.3105E+03
     17.095  0.2698E+02  0.3137E+03
     17.214  0.2704E+02  0.3169E+03
     17.334  0.3464E+02  0.3211E+03
     17.454  0.3564E+02  0.3253E+03
     17.573  0.4253E+02  0.3304E+03
     17.693  0.4339E+02  0.3356E+03
     17.812  0.3790E+02  0.3401E+03
     17.932  0.2638E+02  0.3433E+03
     18.051  0.3645E+02  0.3476E+03
     18.171  0.2053E+02  0.3501E+03
     18.290  0.2295E+02  0.3528E+03
     18.410  0.3179E+02  0.3566E+03
     18.529  0.3772E+02  0.3612E+03
     18.649  0.2633E+02  0.3643E+03
     18.768  0.2168E+02  0.3669E+03
     18.888  0.2311E+02  0.3697E+03
     19.008  0.2642E+02  0.3728E+03
     19.127  0.2670E+02  0.3760E+03
     19.247  0.1926E+02  0.3783E+03
     19.366  0.7930E+01  0.3793E+03
     19.486  0.1002E+02  0.3805E+03
     19.605  0.9330E+01  0.3816E+03
     19.725  0.6766E+01  0.3824E+03
     19.844  0.2049E+01  0.3826E+03
     19.964  0.3570E+01  0.3831E+03
     20.083  0.1154E+01  0.3832E+03
     20.203  0.2470E+01  0.3835E+03
     20.323  0.1739E+01  0.3837E+03
     20.442  0.1609E+01  0.3839E+03
     20.562  0.1709E+00  0.3839E+03
     20.681  0.1114E-01  0.3839E+03
     20.801  0.4642E+00  0.3840E+03
     20.920  0.3017E+00  0.3840E+03
     21.040  0.7305E-02  0.3840E+03
     21.159  0.3935E-06  0.3840E+03
     21.279  0.1077E-13  0.3840E+03
     21.398  0.0000E+00  0.3840E+03
     21.518  0.0000E+00  0.3840E+03
     21.638  0.0000E+00  0.3840E+03
     21.757  0.0000E+00  0.3840E+03
     21.877  0.0000E+00  0.3840E+03
     21.996  0.0000E+00  0.3840E+03
     22.116  0.0000E+00  0.3840E+03
     22.235  0.0000E+00  0.3840E+03
     22.355  0.0000E+00  0.3840E+03
     22.474  0.0000E+00  0.3840E+03
