mesh: [    48,    48,    48 ]
nqpoint: 2600   
reciprocal_lattice:
- [   0.27706434,   0.00000000,   0.00000000 ] # a*
- [   0.00000000,   0.27706434,   0.00000000 ] # b*
- [   0.00000000,   0.00000000,   0.27706434 ] # c*
natom:   8      
lattice:
- [     3.609270000000000,     0.000000000000000,     0.000000000000000 ] # a
- [     0.000000000000000,     3.609270000000000,     0.000000000000000 ] # b
- [     0.000000000000000,     0.000000000000000,     3.609270000000000 ] # c
points:
- symbol: C  # 1
  coordinates: [  0.250000000000000,  0.750000000000000,  0.250000000000000 ]
  mass: 12.010700
- symbol: C  # 2
  coordinates: [  0.000000000000000,  0.000000000000000,  0.500000000000000 ]
  mass: 12.010700
- symbol: C  # 3
  coordinates: [  0.250000000000000,  0.250000000000000,  0.750000000000000 ]
  mass: 12.010700
- symbol: C  # 4
  coordinates: [  0.000000000000000,  0.500000000000000,  0.000000000000000 ]
  mass: 12.010700
- symbol: C  # 5
  coordinates: [  0.750000000000000,  0.750000000000000,  0.750000000000000 ]
  mass: 12.010700
- symbol: C  # 6
  coordinates: [  0.500000000000000,  0.000000000000000,  0.000000000000000 ]
  mass: 12.010700
- symbol: C  # 7
  coordinates: [  0.750000000000000,  0.250000000000000,  0.250000000000000 ]
  mass: 12.010700
- symbol: C  # 8
  coordinates: [  0.500000000000000,  0.500000000000000,  0.500000000000000 ]
  mass: 12.010700

phonon:
- q-position: [    0.0104167,    0.0104167,    0.0104167 ]
  distance_from_gamma:  0.004998849
  weight: 8    
  band:
  - # 1
    frequency:     0.5807847560
  - # 2
    frequency:     0.5807847560
  - # 3
    frequency:     0.8787970987
  - # 4
    frequency:    23.1618171712
  - # 5
    frequency:    23.1618171712
  - # 6
    frequency:    23.1618171712
  - # 7
    frequency:    23.1743312574
  - # 8
    frequency:    23.1743312574
  - # 9
    frequency:    23.1743312574
  - # 10
    frequency:    30.2613328477
  - # 11
    frequency:    30.2613328477
  - # 12
    frequency:    30.2613328477
  - # 13
    frequency:    30.2656578856
  - # 14
    frequency:    30.2656578856
  - # 15
    frequency:    30.2656578856
  - # 16
    frequency:    34.5335760231
  - # 17
    frequency:    34.5335760231
  - # 18
    frequency:    34.5335760231
  - # 19
    frequency:    34.8572335962
  - # 20
    frequency:    34.8572335962
  - # 21
    frequency:    34.8572335962
  - # 22
    frequency:    37.5625583237
  - # 23
    frequency:    37.5625583237
  - # 24
    frequency:    37.5667096282

- q-position: [    0.0312500,    0.0104167,    0.0104167 ]
  distance_from_gamma:  0.009572067
  weight: 24   
  band:
  - # 1
    frequency:     1.1231149970
  - # 2
    frequency:     1.1390429707
  - # 3
    frequency:     1.6562140725
  - # 4
    frequency:    23.1234479700
  - # 5
    frequency:    23.1359480255
  - # 6
    frequency:    23.1699572479
  - # 7
    frequency:    23.1699572479
  - # 8
    frequency:    23.2074401150
  - # 9
    frequency:    23.2074401150
  - # 10
    frequency:    30.2521487492
  - # 11
    frequency:    30.2521487492
  - # 12
    frequency:    30.2651272146
  - # 13
    frequency:    30.2651272146
  - # 14
    frequency:    30.2892090857
  - # 15
    frequency:    30.2936569852
  - # 16
    frequency:    34.1927361397
  - # 17
    frequency:    34.5210387092
  - # 18
    frequency:    34.5210387092
  - # 19
    frequency:    34.8443194272
  - # 20
    frequency:    34.8443194272
  - # 21
    frequency:    35.1635370951
  - # 22
    frequency:    37.5510554872
  - # 23
    frequency:    37.5517687210
  - # 24
    frequency:    37.5705675275

- q-position: [    0.0520833,    0.0104167,    0.0104167 ]
  distance_from_gamma:  0.014996547
  weight: 24   
  band:
  - # 1
    frequency:     1.7807526442
  - # 2
    frequency:     1.7929174403
  - # 3
    frequency:     2.5715544168
  - # 4
    frequency:    23.0474310184
  - # 5
    frequency:    23.0599040134
  - # 6
    frequency:    23.1986434570
  - # 7
    frequency:    23.1986434570
  - # 8
    frequency:    23.2609195324
  - # 9
    frequency:    23.2609195324
  - # 10
    frequency:    30.2380316473
  - # 11
    frequency:    30.2380316473
  - # 12
    frequency:    30.2596786748
  - # 13
    frequency:    30.2596786748
  - # 14
    frequency:    30.3441715536
  - # 15
    frequency:    30.3488883013
  - # 16
    frequency:    33.8343626284
  - # 17
    frequency:    34.4961453801
  - # 18
    frequency:    34.4961453801
  - # 19
    frequency:    34.8186546099
  - # 20
    frequency:    34.8186546099
  - # 21
    frequency:    35.4528888800
  - # 22
    frequency:    37.5280734681
  - # 23
    frequency:    37.5288863443
  - # 24
    frequency:    37.5795476213

- q-position: [    0.0729167,    0.0104167,    0.0104167 ]
  distance_from_gamma:  0.020610783
  weight: 24   
  band:
  - # 1
    frequency:     2.4575860947
  - # 2
    frequency:     2.4662841650
  - # 3
    frequency:     3.5196974838
  - # 4
    frequency:    22.9351151822
  - # 5
    frequency:    22.9475497710
  - # 6
    frequency:    23.2476015720
  - # 7
    frequency:    23.2476015720
  - # 8
    frequency:    23.3343825596
  - # 9
    frequency:    23.3343825596
  - # 10
    frequency:    30.2188417185
  - # 11
    frequency:    30.2188417185
  - # 12
    frequency:    30.2491783805
  - # 13
    frequency:    30.2491783805
  - # 14
    frequency:    30.4247250701
  - # 15
    frequency:    30.4299128193
  - # 16
    frequency:    33.4583827419
  - # 17
    frequency:    34.4592594704
  - # 18
    frequency:    34.4592594704
  - # 19
    frequency:    34.7805671107
  - # 20
    frequency:    34.7805671107
  - # 21
    frequency:    35.7254742623
  - # 22
    frequency:    37.4936596263
  - # 23
    frequency:    37.4945049017
  - # 24
    frequency:    37.5929790923

- q-position: [    0.0937500,    0.0104167,    0.0104167 ]
  distance_from_gamma:  0.026293503
  weight: 24   
  band:
  - # 1
    frequency:     3.1390165751
  - # 2
    frequency:     3.1451899850
  - # 3
    frequency:     4.4780467913
  - # 4
    frequency:    22.7883150242
  - # 5
    frequency:    22.8007017288
  - # 6
    frequency:    23.3163927218
  - # 7
    frequency:    23.3163927218
  - # 8
    frequency:    23.4272842582
  - # 9
    frequency:    23.4272842582
  - # 10
    frequency:    30.1943716753
  - # 11
    frequency:    30.1943716753
  - # 12
    frequency:    30.2334197458
  - # 13
    frequency:    30.2334197458
  - # 14
    frequency:    30.5288023242
  - # 15
    frequency:    30.5347825265
  - # 16
    frequency:    33.0647721322
  - # 17
    frequency:    34.4109280340
  - # 18
    frequency:    34.4109280340
  - # 19
    frequency:    34.7305510693
  - # 20
    frequency:    34.7305510693
  - # 21
    frequency:    35.9815227509
  - # 22
    frequency:    37.4478851295
  - # 23
    frequency:    37.4487484196
  - # 24
    frequency:    37.6106238431

- q-position: [    0.1145833,    0.0104167,    0.0104167 ]
  distance_from_gamma:  0.032008252
  weight: 24   
  band:
  - # 1
    frequency:     3.8208204565
  - # 2
    frequency:     3.8250876078
  - # 3
    frequency:     5.4387764126
  - # 4
    frequency:    22.6091218520
  - # 5
    frequency:    22.6214527562
  - # 6
    frequency:    23.4044164974
  - # 7
    frequency:    23.4044164974
  - # 8
    frequency:    23.5389272651
  - # 9
    frequency:    23.5389272651
  - # 10
    frequency:    30.1643468536
  - # 11
    frequency:    30.1643468536
  - # 12
    frequency:    30.2121207425
  - # 13
    frequency:    30.2121207425
  - # 14
    frequency:    30.6538647632
  - # 15
    frequency:    30.6612314444
  - # 16
    frequency:    32.6536706953
  - # 17
    frequency:    34.3518834586
  - # 18
    frequency:    34.3518834586
  - # 19
    frequency:    34.6692690589
  - # 20
    frequency:    34.6692690589
  - # 21
    frequency:    36.2212835568
  - # 22
    frequency:    37.3908451023
  - # 23
    frequency:    37.3917223261
  - # 24
    frequency:    37.6322272898

- q-position: [    0.1354167,    0.0104167,    0.0104167 ]
  distance_from_gamma:  0.037740483
  weight: 24   
  band:
  - # 1
    frequency:     4.5010855167
  - # 2
    frequency:     4.5038360404
  - # 3
    frequency:     6.3981652876
  - # 4
    frequency:    22.3997258321
  - # 5
    frequency:    22.4119939386
  - # 6
    frequency:    23.5109147936
  - # 7
    frequency:    23.5109147936
  - # 8
    frequency:    23.6684680567
  - # 9
    frequency:    23.6684680567
  - # 10
    frequency:    30.1284260976
  - # 11
    frequency:    30.1284260976
  - # 12
    frequency:    30.1849218474
  - # 13
    frequency:    30.1849218474
  - # 14
    frequency:    30.7967516556
  - # 15
    frequency:    30.8068562112
  - # 16
    frequency:    32.2257173256
  - # 17
    frequency:    34.2830447275
  - # 18
    frequency:    34.2830447275
  - # 19
    frequency:    34.5975544308
  - # 20
    frequency:    34.5975544308
  - # 21
    frequency:    36.4450236279
  - # 22
    frequency:    37.3226588167
  - # 23
    frequency:    37.3235489090
  - # 24
    frequency:    37.6574853486

- q-position: [    0.1562500,    0.0104167,    0.0104167 ]
  distance_from_gamma:  0.043483283
  weight: 24   
  band:
  - # 1
    frequency:     5.1786411485
  - # 2
    frequency:     5.1801304199
  - # 3
    frequency:     7.3539828374
  - # 4
    frequency:    22.1622742018
  - # 5
    frequency:    22.1744726566
  - # 6
    frequency:    23.6349757701
  - # 7
    frequency:    23.6349757701
  - # 8
    frequency:    23.8149232795
  - # 9
    frequency:    23.8149232795
  - # 10
    frequency:    30.0862047974
  - # 11
    frequency:    30.0862047974
  - # 12
    frequency:    30.1513857099
  - # 13
    frequency:    30.1513857099
  - # 14
    frequency:    30.9519646987
  - # 15
    frequency:    30.9692611181
  - # 16
    frequency:    31.7839118000
  - # 17
    frequency:    34.2055171946
  - # 18
    frequency:    34.2055171946
  - # 19
    frequency:    34.5164130528
  - # 20
    frequency:    34.5164130528
  - # 21
    frequency:    36.6530274595
  - # 22
    frequency:    37.2434699173
  - # 23
    frequency:    37.2443728918
  - # 24
    frequency:    37.6860418253

- q-position: [    0.1770833,    0.0104167,    0.0104167 ]
  distance_from_gamma:  0.049232953
  weight: 24   
  band:
  - # 1
    frequency:     5.8526149718
  - # 2
    frequency:     5.8530185433
  - # 3
    frequency:     8.3046484248
  - # 4
    frequency:    21.8987748552
  - # 5
    frequency:    21.9108962135
  - # 6
    frequency:    23.7755370977
  - # 7
    frequency:    23.7755370977
  - # 8
    frequency:    23.9771753841
  - # 9
    frequency:    23.9771753841
  - # 10
    frequency:    30.0372218249
  - # 11
    frequency:    30.0372218249
  - # 12
    frequency:    30.1110001728
  - # 13
    frequency:    30.1110001728
  - # 14
    frequency:    31.0820537533
  - # 15
    frequency:    31.1461582539
  - # 16
    frequency:    31.3633301879
  - # 17
    frequency:    34.1205894314
  - # 18
    frequency:    34.1205894314
  - # 19
    frequency:    34.4270234624
  - # 20
    frequency:    34.4270234624
  - # 21
    frequency:    36.8455973614
  - # 22
    frequency:    37.1534466745
  - # 23
    frequency:    37.1543629605
  - # 24
    frequency:    37.7174903174

- q-position: [    0.1979167,    0.0104167,    0.0104167 ]
  distance_from_gamma:  0.054987340
  weight: 24   
  band:
  - # 1
    frequency:     6.5217186809
  - # 2
    frequency:     6.5222746146
  - # 3
    frequency:     9.2489073714
  - # 4
    frequency:    21.6110425839
  - # 5
    frequency:    21.6230782256
  - # 6
    frequency:    23.9313874172
  - # 7
    frequency:    23.9313874172
  - # 8
    frequency:    24.1539766072
  - # 9
    frequency:    24.1539766072
  - # 10
    frequency:    29.9809727093
  - # 11
    frequency:    29.9809727093
  - # 12
    frequency:    30.0631868849
  - # 13
    frequency:    30.0631868849
  - # 14
    frequency:    30.7881322151
  - # 15
    frequency:    31.3354253913
  - # 16
    frequency:    31.3606682146
  - # 17
    frequency:    34.0297252629
  - # 18
    frequency:    34.0297252629
  - # 19
    frequency:    34.3307341110
  - # 20
    frequency:    34.3307341110
  - # 21
    frequency:    37.0230539199
  - # 22
    frequency:    37.0527822553
  - # 23
    frequency:    37.0537124365
  - # 24
    frequency:    37.7513773727

- q-position: [    0.2187500,    0.0104167,    0.0104167 ]
  distance_from_gamma:  0.060745101
  weight: 24   
  band:
  - # 1
    frequency:     7.1855406507
  - # 2
    frequency:     7.1869616432
  - # 3
    frequency:    10.1856890025
  - # 4
    frequency:    21.3006790165
  - # 5
    frequency:    21.3126187539
  - # 6
    frequency:    24.1011646146
  - # 7
    frequency:    24.1011646146
  - # 8
    frequency:    24.3439500821
  - # 9
    frequency:    24.3439500821
  - # 10
    frequency:    29.9169320636
  - # 11
    frequency:    29.9169320636
  - # 12
    frequency:    30.0073183984
  - # 13
    frequency:    30.0073183984
  - # 14
    frequency:    30.2978928456
  - # 15
    frequency:    31.5351304871
  - # 16
    frequency:    31.5462507560
  - # 17
    frequency:    33.9345487319
  - # 18
    frequency:    33.9345487319
  - # 19
    frequency:    34.2290560534
  - # 20
    frequency:    34.2290560534
  - # 21
    frequency:    36.9416950030
  - # 22
    frequency:    36.9426397107
  - # 23
    frequency:    37.1857365623
  - # 24
    frequency:    37.7872062163

- q-position: [    0.2395833,    0.0104167,    0.0104167 ]
  distance_from_gamma:  0.066505361
  weight: 24   
  band:
  - # 1
    frequency:     7.8438480051
  - # 2
    frequency:     7.8460607467
  - # 3
    frequency:    11.1140383525
  - # 4
    frequency:    20.9690757903
  - # 5
    frequency:    20.9809076636
  - # 6
    frequency:    24.2833490420
  - # 7
    frequency:    24.2833490420
  - # 8
    frequency:    24.5455864407
  - # 9
    frequency:    24.5455864407
  - # 10
    frequency:    29.7791134802
  - # 11
    frequency:    29.8445889529
  - # 12
    frequency:    29.8445889529
  - # 13
    frequency:    29.9427472846
  - # 14
    frequency:    29.9427472846
  - # 15
    frequency:    31.7435331729
  - # 16
    frequency:    31.7505284936
  - # 17
    frequency:    33.8368195891
  - # 18
    frequency:    33.8368195891
  - # 19
    frequency:    34.1236492103
  - # 20
    frequency:    34.1236492103
  - # 21
    frequency:    36.8204287144
  - # 22
    frequency:    36.8213885927
  - # 23
    frequency:    37.3340041676
  - # 24
    frequency:    37.8244408208

- q-position: [    0.2604167,    0.0104167,    0.0104167 ]
  distance_from_gamma:  0.072267522
  weight: 24   
  band:
  - # 1
    frequency:     8.4960385269
  - # 2
    frequency:     8.4989841879
  - # 3
    frequency:    12.0330809592
  - # 4
    frequency:    20.6174317104
  - # 5
    frequency:    20.6291419405
  - # 6
    frequency:    24.4762490745
  - # 7
    frequency:    24.4762490745
  - # 8
    frequency:    24.7572335878
  - # 9
    frequency:    24.7572335878
  - # 10
    frequency:    29.2395916767
  - # 11
    frequency:    29.7634995075
  - # 12
    frequency:    29.7634995075
  - # 13
    frequency:    29.8688513360
  - # 14
    frequency:    29.8688513360
  - # 15
    frequency:    31.9590723918
  - # 16
    frequency:    31.9641318493
  - # 17
    frequency:    33.7383972282
  - # 18
    frequency:    33.7383972282
  - # 19
    frequency:    34.0163003842
  - # 20
    frequency:    34.0163003842
  - # 21
    frequency:    36.6892529055
  - # 22
    frequency:    36.6902286165
  - # 23
    frequency:    37.4682356879
  - # 24
    frequency:    37.8625102033

- q-position: [    0.2812500,    0.0104167,    0.0104167 ]
  distance_from_gamma:  0.078031164
  weight: 24   
  band:
  - # 1
    frequency:     9.1415336254
  - # 2
    frequency:     9.1451635262
  - # 3
    frequency:    12.9420037737
  - # 4
    frequency:    20.2467769038
  - # 5
    frequency:    20.2583499631
  - # 6
    frequency:    24.6779752223
  - # 7
    frequency:    24.6779752223
  - # 8
    frequency:    24.9770761690
  - # 9
    frequency:    24.9770761690
  - # 10
    frequency:    28.6807049051
  - # 11
    frequency:    29.6733615751
  - # 12
    frequency:    29.6733615751
  - # 13
    frequency:    29.7850993094
  - # 14
    frequency:    29.7850993094
  - # 15
    frequency:    32.1803470878
  - # 16
    frequency:    32.1842925119
  - # 17
    frequency:    33.6411920181
  - # 18
    frequency:    33.6411920181
  - # 19
    frequency:    33.9088917280
  - # 20
    frequency:    33.9088917280
  - # 21
    frequency:    36.5484630551
  - # 22
    frequency:    36.5494553108
  - # 23
    frequency:    37.5888307447
  - # 24
    frequency:    37.9008128663

- q-position: [    0.3020833,    0.0104167,    0.0104167 ]
  distance_from_gamma:  0.083795980
  weight: 24   
  band:
  - # 1
    frequency:     9.7797723692
  - # 2
    frequency:     9.7840450717
  - # 3
    frequency:    13.8400444307
  - # 4
    frequency:    19.8579992390
  - # 5
    frequency:    19.8694180024
  - # 6
    frequency:    24.8863971324
  - # 7
    frequency:    24.8863971324
  - # 8
    frequency:    25.2030992488
  - # 9
    frequency:    25.2030992488
  - # 10
    frequency:    28.1029117252
  - # 11
    frequency:    29.5741167326
  - # 12
    frequency:    29.5741167326
  - # 13
    frequency:    29.6911420999
  - # 14
    frequency:    29.6911420999
  - # 15
    frequency:    32.4060945974
  - # 16
    frequency:    32.4093217480
  - # 17
    frequency:    33.5471048636
  - # 18
    frequency:    33.5471048636
  - # 19
    frequency:    33.8033595394
  - # 20
    frequency:    33.8033595394
  - # 21
    frequency:    36.3983808167
  - # 22
    frequency:    36.3993904321
  - # 23
    frequency:    37.6962101730
  - # 24
    frequency:    37.9387213114

- q-position: [    0.3229167,    0.0104167,    0.0104167 ]
  distance_from_gamma:  0.089561743
  weight: 24   
  band:
  - # 1
    frequency:    10.4102080708
  - # 2
    frequency:    10.4150873700
  - # 3
    frequency:    14.7264850699
  - # 4
    frequency:    19.4518701177
  - # 5
    frequency:    19.4631160595
  - # 6
    frequency:    25.0990748182
  - # 7
    frequency:    25.0990748182
  - # 8
    frequency:    25.4330272251
  - # 9
    frequency:    25.4330272251
  - # 10
    frequency:    27.5064430878
  - # 11
    frequency:    29.4660860196
  - # 12
    frequency:    29.4660860196
  - # 13
    frequency:    29.5869353602
  - # 14
    frequency:    29.5869353602
  - # 15
    frequency:    32.6351695629
  - # 16
    frequency:    32.6378991616
  - # 17
    frequency:    33.4579583856
  - # 18
    frequency:    33.4579583856
  - # 19
    frequency:    33.7016451181
  - # 20
    frequency:    33.7016451181
  - # 21
    frequency:    36.2393541938
  - # 22
    frequency:    36.2403821583
  - # 23
    frequency:    37.7908164825
  - # 24
    frequency:    37.9755865613

- q-position: [    0.3437500,    0.0104167,    0.0104167 ]
  distance_from_gamma:  0.095328283
  weight: 24   
  band:
  - # 1
    frequency:    11.0323063338
  - # 2
    frequency:    11.0377598360
  - # 3
    frequency:    15.6006487252
  - # 4
    frequency:    19.0290680654
  - # 5
    frequency:    19.0401214777
  - # 6
    frequency:    25.3131508693
  - # 7
    frequency:    25.3131508693
  - # 8
    frequency:    25.6642229013
  - # 9
    frequency:    25.6642229013
  - # 10
    frequency:    26.8914644545
  - # 11
    frequency:    29.3501483149
  - # 12
    frequency:    29.3501483149
  - # 13
    frequency:    29.4729028564
  - # 14
    frequency:    29.4729028564
  - # 15
    frequency:    32.8665248738
  - # 16
    frequency:    32.8688926982
  - # 17
    frequency:    33.3754257700
  - # 18
    frequency:    33.3754257700
  - # 19
    frequency:    33.6056417272
  - # 20
    frequency:    33.6056417272
  - # 21
    frequency:    36.0717576717
  - # 22
    frequency:    36.0728052397
  - # 23
    frequency:    37.8731142087
  - # 24
    frequency:    38.0107426312

- q-position: [    0.3645833,    0.0104167,    0.0104167 ]
  distance_from_gamma:  0.101095466
  weight: 24   
  band:
  - # 1
    frequency:    11.6455439540
  - # 2
    frequency:    11.6515420495
  - # 3
    frequency:    16.4618971922
  - # 4
    frequency:    18.5901994150
  - # 5
    frequency:    18.6010396270
  - # 6
    frequency:    25.5251839945
  - # 7
    frequency:    25.5251839945
  - # 8
    frequency:    25.8935211721
  - # 9
    frequency:    25.8935211721
  - # 10
    frequency:    26.2581283117
  - # 11
    frequency:    29.2279755113
  - # 12
    frequency:    29.2279755113
  - # 13
    frequency:    29.3501576552
  - # 14
    frequency:    29.3501576552
  - # 15
    frequency:    33.0991952883
  - # 16
    frequency:    33.1012909437
  - # 17
    frequency:    33.3009651786
  - # 18
    frequency:    33.3009651786
  - # 19
    frequency:    33.5171437656
  - # 20
    frequency:    33.5171437656
  - # 21
    frequency:    35.8959923073
  - # 22
    frequency:    35.8970611068
  - # 23
    frequency:    37.9435901271
  - # 24
    frequency:    38.0435108977

- q-position: [    0.3854167,    0.0104167,    0.0104167 ]
  distance_from_gamma:  0.106863187
  weight: 24   
  band:
  - # 1
    frequency:    12.2494083108
  - # 2
    frequency:    12.2559234187
  - # 3
    frequency:    17.3096297517
  - # 4
    frequency:    18.1358159087
  - # 5
    frequency:    18.1464214940
  - # 6
    frequency:    25.6065952426
  - # 7
    frequency:    25.7308976130
  - # 8
    frequency:    25.7308976130
  - # 9
    frequency:    26.1169549281
  - # 10
    frequency:    26.1169549281
  - # 11
    frequency:    29.1023460527
  - # 12
    frequency:    29.1023460527
  - # 13
    frequency:    29.2208133589
  - # 14
    frequency:    29.2208133589
  - # 15
    frequency:    33.2357678333
  - # 16
    frequency:    33.2357678333
  - # 17
    frequency:    33.3322838614
  - # 18
    frequency:    33.3341696653
  - # 19
    frequency:    33.4378050686
  - # 20
    frequency:    33.4378050686
  - # 21
    frequency:    35.7124857801
  - # 22
    frequency:    35.7135779423
  - # 23
    frequency:    38.0027533044
  - # 24
    frequency:    38.0732043147

- q-position: [    0.4062500,    0.0104167,    0.0104167 ]
  distance_from_gamma:  0.112631365
  weight: 24   
  band:
  - # 1
    frequency:    12.8433970151
  - # 2
    frequency:    12.8504030213
  - # 3
    frequency:    17.6664293415
  - # 4
    frequency:    17.6767783032
  - # 5
    frequency:    18.1432823793
  - # 6
    frequency:    24.9370438992
  - # 7
    frequency:    25.9248186646
  - # 8
    frequency:    25.9248186646
  - # 9
    frequency:    26.3293088667
  - # 10
    frequency:    26.3293088667
  - # 11
    frequency:    28.9775597586
  - # 12
    frequency:    28.9775597586
  - # 13
    frequency:    29.0884398075
  - # 14
    frequency:    29.0884398075
  - # 15
    frequency:    33.1807264663
  - # 16
    frequency:    33.1807264663
  - # 17
    frequency:    33.3691116175
  - # 18
    frequency:    33.3691116175
  - # 19
    frequency:    33.5649510209
  - # 20
    frequency:    33.5666720710
  - # 21
    frequency:    35.5216924151
  - # 22
    frequency:    35.5228107278
  - # 23
    frequency:    38.0511349608
  - # 24
    frequency:    38.0991314370

- q-position: [    0.4270833,    0.0104167,    0.0104167 ]
  distance_from_gamma:  0.118399932
  weight: 24   
  band:
  - # 1
    frequency:    13.4270176454
  - # 2
    frequency:    13.4344894808
  - # 3
    frequency:    17.1825235204
  - # 4
    frequency:    17.1925934485
  - # 5
    frequency:    18.9623272136
  - # 6
    frequency:    24.2496764277
  - # 7
    frequency:    26.0998200714
  - # 8
    frequency:    26.0998200714
  - # 9
    frequency:    26.5234313064
  - # 10
    frequency:    26.5234313064
  - # 11
    frequency:    28.8599384753
  - # 12
    frequency:    28.8599384753
  - # 13
    frequency:    28.9587302334
  - # 14
    frequency:    28.9587302334
  - # 15
    frequency:    33.1364289867
  - # 16
    frequency:    33.1364289867
  - # 17
    frequency:    33.3123689555
  - # 18
    frequency:    33.3123689555
  - # 19
    frequency:    33.7964059909
  - # 20
    frequency:    33.7979959209
  - # 21
    frequency:    35.3240931983
  - # 22
    frequency:    35.3252412869
  - # 23
    frequency:    38.0892881187
  - # 24
    frequency:    38.1206002149

- q-position: [    0.4479167,    0.0104167,    0.0104167 ]
  distance_from_gamma:  0.124168834
  weight: 24   
  band:
  - # 1
    frequency:    13.9997874366
  - # 2
    frequency:    14.0077007612
  - # 3
    frequency:    16.6845638718
  - # 4
    frequency:    16.6943320689
  - # 5
    frequency:    19.7662721395
  - # 6
    frequency:    23.5447217945
  - # 7
    frequency:    26.2467291118
  - # 8
    frequency:    26.2467291118
  - # 9
    frequency:    26.6893442303
  - # 10
    frequency:    26.6893442303
  - # 11
    frequency:    28.7582171569
  - # 12
    frequency:    28.7582171569
  - # 13
    frequency:    28.8403764872
  - # 14
    frequency:    28.8403764872
  - # 15
    frequency:    33.1031818248
  - # 16
    frequency:    33.1031818248
  - # 17
    frequency:    33.2686963539
  - # 18
    frequency:    33.2686963539
  - # 19
    frequency:    34.0259002127
  - # 20
    frequency:    34.0273846731
  - # 21
    frequency:    35.1201958128
  - # 22
    frequency:    35.1213783567
  - # 23
    frequency:    38.1177870178
  - # 24
    frequency:    38.1369215303

- q-position: [    0.4687500,    0.0104167,    0.0104167 ]
  distance_from_gamma:  0.129938027
  weight: 24   
  band:
  - # 1
    frequency:    14.5612328025
  - # 2
    frequency:    14.5695637711
  - # 3
    frequency:    16.1730050399
  - # 4
    frequency:    16.1824486122
  - # 5
    frequency:    20.5546603943
  - # 6
    frequency:    22.8224380382
  - # 7
    frequency:    26.3545293499
  - # 8
    frequency:    26.3545293499
  - # 9
    frequency:    26.8137098467
  - # 10
    frequency:    26.8137098467
  - # 11
    frequency:    28.6830790833
  - # 12
    frequency:    28.6830790833
  - # 13
    frequency:    28.7458241049
  - # 14
    frequency:    28.7458241049
  - # 15
    frequency:    33.0810682824
  - # 16
    frequency:    33.0810682824
  - # 17
    frequency:    33.2390111910
  - # 18
    frequency:    33.2390111910
  - # 19
    frequency:    34.2527224128
  - # 20
    frequency:    34.2541212805
  - # 21
    frequency:    34.9105347401
  - # 22
    frequency:    34.9117577339
  - # 23
    frequency:    38.1372262724
  - # 24
    frequency:    38.1474124517

- q-position: [    0.4895833,    0.0104167,    0.0104167 ]
  distance_from_gamma:  0.135707474
  weight: 24   
  band:
  - # 1
    frequency:    15.1108885701
  - # 2
    frequency:    15.1196136637
  - # 3
    frequency:    15.6482967988
  - # 4
    frequency:    15.6573927114
  - # 5
    frequency:    21.3270701332
  - # 6
    frequency:    22.0831139102
  - # 7
    frequency:    26.4121264935
  - # 8
    frequency:    26.4121264935
  - # 9
    frequency:    26.8814262440
  - # 10
    frequency:    26.8814262440
  - # 11
    frequency:    28.6440336668
  - # 12
    frequency:    28.6440336668
  - # 13
    frequency:    28.6909817049
  - # 14
    frequency:    28.6909817049
  - # 15
    frequency:    33.0700429060
  - # 16
    frequency:    33.0700429060
  - # 17
    frequency:    33.2239868207
  - # 18
    frequency:    33.2239868207
  - # 19
    frequency:    34.4761949969
  - # 20
    frequency:    34.4775238377
  - # 21
    frequency:    34.6956714838
  - # 22
    frequency:    34.6969425607
  - # 23
    frequency:    38.1482197553
  - # 24
    frequency:    38.1513991918

- q-position: [    0.0312500,    0.0312500,    0.0104167 ]
  distance_from_gamma:  0.012580161
  weight: 24   
  band:
  - # 1
    frequency:     1.4390618317
  - # 2
    frequency:     1.4993698161
  - # 3
    frequency:     2.1975899094
  - # 4
    frequency:    23.1315348437
  - # 5
    frequency:    23.1315348437
  - # 6
    frequency:    23.1530287736
  - # 7
    frequency:    23.1690000944
  - # 8
    frequency:    23.1690000944
  - # 9
    frequency:    23.2652812107
  - # 10
    frequency:    30.2344176117
  - # 11
    frequency:    30.2732720307
  - # 12
    frequency:    30.2796114056
  - # 13
    frequency:    30.2796114056
  - # 14
    frequency:    30.2930904490
  - # 15
    frequency:    30.2930904490
  - # 16
    frequency:    34.1823335573
  - # 17
    frequency:    34.1823335573
  - # 18
    frequency:    34.5044048959
  - # 19
    frequency:    34.8354602631
  - # 20
    frequency:    35.1491537473
  - # 21
    frequency:    35.1491537473
  - # 22
    frequency:    37.5398675769
  - # 23
    frequency:    37.5445631010
  - # 24
    frequency:    37.5705650224

- q-position: [    0.0520833,    0.0312500,    0.0104167 ]
  distance_from_gamma:  0.017074320
  weight: 48   
  band:
  - # 1
    frequency:     1.9695558374
  - # 2
    frequency:     2.0412572990
  - # 3
    frequency:     2.9635216774
  - # 4
    frequency:    23.0554161415
  - # 5
    frequency:    23.0928488740
  - # 6
    frequency:    23.1566686564
  - # 7
    frequency:    23.1600694422
  - # 8
    frequency:    23.2224099967
  - # 9
    frequency:    23.3431397140
  - # 10
    frequency:    30.2118660890
  - # 11
    frequency:    30.2646292726
  - # 12
    frequency:    30.2765139733
  - # 13
    frequency:    30.2876042603
  - # 14
    frequency:    30.3336481321
  - # 15
    frequency:    30.3482512795
  - # 16
    frequency:    33.8263445868
  - # 17
    frequency:    34.1617301288
  - # 18
    frequency:    34.4716360740
  - # 19
    frequency:    34.8175879982
  - # 20
    frequency:    35.1205341972
  - # 21
    frequency:    35.4375390875
  - # 22
    frequency:    37.5170804152
  - # 23
    frequency:    37.5239068571
  - # 24
    frequency:    37.5772010307

- q-position: [    0.0729167,    0.0312500,    0.0104167 ]
  distance_from_gamma:  0.022168454
  weight: 48   
  band: