       N       E                     dE             d eps       ncg     rms          rms(c)
DAV:   1     0.500585443683E+03    0.50059E+03   -0.11319E+05 13440   0.106E+03
DAV:   2    -0.558035917371E+03   -0.10586E+04   -0.10101E+04 17664   0.229E+02
DAV:   3    -0.599199345990E+03   -0.41163E+02   -0.40923E+02 17920   0.425E+01
DAV:   4    -0.599665189089E+03   -0.46584E+00   -0.46504E+00 18272   0.493E+00
DAV:   5    -0.599673135592E+03   -0.79465E-02   -0.79435E-02 16896   0.613E-01    0.257E+01
DAV:   6    -0.586080329031E+03    0.13593E+02   -0.90485E+00 15776   0.599E+00    0.142E+01
DAV:   7    -0.581485048914E+03    0.45953E+01   -0.10442E+01 16256   0.663E+00    0.193E+00
DAV:   8    -0.581542004004E+03   -0.56955E-01   -0.23773E-01 16768   0.970E-01    0.209E-01
DAV:   9    -0.581544156050E+03   -0.21520E-02   -0.36334E-03 17504   0.144E-01    0.786E-02
DAV:  10    -0.581544622970E+03   -0.46692E-03   -0.42683E-04 16160   0.542E-02    0.794E-03
DAV:  11    -0.581544627301E+03   -0.43313E-05   -0.11602E-05 17568   0.782E-03    0.207E-03
DAV:  12    -0.581544627454E+03   -0.15229E-06   -0.47948E-07 17216   0.167E-03    0.185E-04
DAV:  13    -0.581544627556E+03   -0.10196E-06   -0.66510E-09 13088   0.209E-04    0.436E-05
DAV:  14    -0.581544627572E+03   -0.16646E-07   -0.98850E-10 11776   0.740E-05    0.164E-05
DAV:  15    -0.581544627571E+03    0.93314E-09   -0.24220E-10 10432   0.355E-05
   1 F= -.58154463E+03 E0= -.58154463E+03  d E =-.725226E-16
 Linear response reoptimize wavefunctions
DAV:   1    -0.581544627572E+03   -0.25830E-09   -0.49048E-11  9984   0.170E-05
DAV:   2    -0.581544627572E+03   -0.39745E-09   -0.98601E-12 10080   0.883E-06
DAV:   3    -0.581544627572E+03    0.55479E-10   -0.30529E-12 10080   0.461E-06
 Linear response DOF=           1
 Linear response progress:
  Degree of freedom:   1/  1
       N       E                     dE             d eps       ncg     rms          rms(c)
RMM:   1    -0.143632092577E+00   -0.14363E+00    0.60932E-03112945   0.724E-01
RMM:   2    -0.122788130600E+00    0.20844E-01   -0.71282E-03 68474   0.187E-01    0.172E-01
RMM:   3    -0.122664136100E+00    0.12399E-03   -0.82521E-04 72020   0.481E-02    0.881E-02
RMM:   4    -0.122906650666E+00   -0.24251E-03   -0.22586E-04 72325   0.262E-02    0.269E-02
RMM:   5    -0.122983017204E+00   -0.76367E-04   -0.15335E-05 73267   0.740E-03    0.646E-03
RMM:   6    -0.122966026163E+00    0.16991E-04   -0.94637E-07 74292   0.192E-03    0.136E-03
RMM:   7    -0.122957420357E+00    0.86058E-05   -0.13057E-07 75032   0.616E-04    0.377E-04
RMM:   8    -0.122956934427E+00    0.48593E-06   -0.50841E-08 76891   0.251E-04    0.867E-05
RMM:   9    -0.122956701943E+00    0.23248E-06   -0.83721E-09 78675   0.148E-04    0.379E-05
RMM:  10    -0.122956782558E+00   -0.80615E-07   -0.63139E-08 81378   0.139E-04    0.115E-05
RMM:  11    -0.122956782126E+00    0.43140E-09   -0.20046E-08 81910   0.135E-04    0.481E-06
 Linear response finished
