# Thermal properties / unit cell (natom)

unit:
  temperature:   K
  free_energy:   kJ/mol
  entropy:       J/K/mol
  heat_capacity: J/K/mol

natom: 8    
cutoff_frequency:    0.000
num_modes: 2654208
num_integrated_modes: 2654208

zero_point_energy:     134.1245476
high_T_entropy:        439.4080065

thermal_properties:
- temperature:         0.0000000
  free_energy:       134.1245476
  entropy:             0.0000000
  heat_capacity:       0.0000000
  energy:            134.1245476

- temperature:         2.0000000
  free_energy:       134.1245476
  entropy:             0.0000000
  heat_capacity:       0.0000000
  energy:            134.1245476

- temperature:         4.0000000
  free_energy:       134.1245476
  entropy:             0.0000093
  heat_capacity:       0.0000577
  energy:            134.1245476

- temperature:         6.0000000
  free_energy:       134.1245475
  entropy:             0.0000748
  heat_capacity:       0.0003209
  energy:            134.1245479

- temperature:         8.0000000
  free_energy:       134.1245472
  entropy:             0.0002299
  heat_capacity:       0.0008251
  energy:            134.1245490

- temperature:        10.0000000
  free_energy:       134.1245465
  entropy:             0.0004946
  heat_capacity:       0.0016354
  energy:            134.1245514

- temperature:        12.0000000
  free_energy:       134.1245451
  entropy:             0.0008923
  heat_capacity:       0.0028359
  energy:            134.1245558

- temperature:        14.0000000
  free_energy:       134.1245428
  entropy:             0.0014486
  heat_capacity:       0.0045105
  energy:            134.1245631

- temperature:        16.0000000
  free_energy:       134.1245392
  entropy:             0.0021899
  heat_capacity:       0.0067422
  energy:            134.1245743

- temperature:        18.0000000
  free_energy:       134.1245339
  entropy:             0.0031431
  heat_capacity:       0.0096141
  energy:            134.1245905

- temperature:        20.0000000
  free_energy:       134.1245265
  entropy:             0.0043355
  heat_capacity:       0.0132100
  energy:            134.1246132

- temperature:        22.0000000
  free_energy:       134.1245164
  entropy:             0.0057943
  heat_capacity:       0.0176151
  energy:            134.1246439

- temperature:        24.0000000
  free_energy:       134.1245031
  entropy:             0.0075475
  heat_capacity:       0.0229160
  energy:            134.1246843

- temperature:        26.0000000
  free_energy:       134.1244860
  entropy:             0.0096231
  heat_capacity:       0.0292012
  energy:            134.1247362

- temperature:        28.0000000
  free_energy:       134.1244644
  entropy:             0.0120496
  heat_capacity:       0.0365612
  energy:            134.1248018

- temperature:        30.0000000
  free_energy:       134.1244376
  entropy:             0.0148558
  heat_capacity:       0.0450887
  energy:            134.1248832

- temperature:        32.0000000
  free_energy:       134.1244047
  entropy:             0.0180713
  heat_capacity:       0.0548793
  energy:            134.1249830

- temperature:        34.0000000
  free_energy:       134.1243650
  entropy:             0.0217258
  heat_capacity:       0.0660316
  energy:            134.1251037

- temperature:        36.0000000
  free_energy:       134.1243175
  entropy:             0.0258500
  heat_capacity:       0.0786475
  energy:            134.1252481

- temperature:        38.0000000
  free_energy:       134.1242612
  entropy:             0.0304749
  heat_capacity:       0.0928332
  energy:            134.1254193

- temperature:        40.0000000
  free_energy:       134.1241952
  entropy:             0.0356327
  heat_capacity:       0.1086995
  energy:            134.1256205

- temperature:        42.0000000
  free_energy:       134.1241183
  entropy:             0.0413560
  heat_capacity:       0.1263625
  energy:            134.1258553

- temperature:        44.0000000
  free_energy:       134.1240294
  entropy:             0.0476786
  heat_capacity:       0.1459447
  energy:            134.1261273

- temperature:        46.0000000
  free_energy:       134.1239272
  entropy:             0.0546355
  heat_capacity:       0.1675757
  energy:            134.1264404

- temperature:        48.0000000
  free_energy:       134.1238104
  entropy:             0.0622627
  heat_capacity:       0.1913931
  energy:            134.1267990

- temperature:        50.0000000
  free_energy:       134.1236777
  entropy:             0.0705977
  heat_capacity:       0.2175432
  energy:            134.1272076

- temperature:        52.0000000
  free_energy:       134.1235275
  entropy:             0.0796794
  heat_capacity:       0.2461821
  energy:            134.1276709

- temperature:        54.0000000
  free_energy:       134.1233584
  entropy:             0.0895486
  heat_capacity:       0.2774760
  energy:            134.1281941

- temperature:        56.0000000
  free_energy:       134.1231688
  entropy:             0.1002477
  heat_capacity:       0.3116017
  energy:            134.1287826

- temperature:        58.0000000
  free_energy:       134.1229569
  entropy:             0.1118210
  heat_capacity:       0.3487470
  energy:            134.1294425

- temperature:        60.0000000
  free_energy:       134.1227209
  entropy:             0.1243150
  heat_capacity:       0.3891101
  energy:            134.1301798

- temperature:        62.0000000
  free_energy:       134.1224589
  entropy:             0.1377782
  heat_capacity:       0.4328999
  energy:            134.1310012

- temperature:        64.0000000
  free_energy:       134.1221691
  entropy:             0.1522613
  heat_capacity:       0.4803350
  energy:            134.1319138

- temperature:        66.0000000
  free_energy:       134.1218492
  entropy:             0.1678171
  heat_capacity:       0.5316430
  energy:            134.1329251

- temperature:        68.0000000
  free_energy:       134.1214971
  entropy:             0.1845008
  heat_capacity:       0.5870595
  energy:            134.1340431

- temperature:        70.0000000
  free_energy:       134.1211104
  entropy:             0.2023695
  heat_capacity:       0.6468268
  energy:            134.1352763

- temperature:        72.0000000
  free_energy:       134.1206868
  entropy:             0.2214824
  heat_capacity:       0.7111923
  energy:            134.1366335

- temperature:        74.0000000
  free_energy:       134.1202236
  entropy:             0.2419009
  heat_capacity:       0.7804075
  energy:            134.1381243

- temperature:        76.0000000
  free_energy:       134.1197182
  entropy:             0.2636879
  heat_capacity:       0.8547261
  energy:            134.1397585

- temperature:        78.0000000
  free_energy:       134.1191679
  entropy:             0.2869083
  heat_capacity:       0.9344025
  energy:            134.1415467

- temperature:        80.0000000
  free_energy:       134.1185696
  entropy:             0.3116283
  heat_capacity:       1.0196903
  energy:            134.1434999

- temperature:        82.0000000
  free_energy:       134.1179203
  entropy:             0.3379155
  heat_capacity:       1.1108406
  energy:            134.1456294

- temperature:        84.0000000
  free_energy:       134.1172169
  entropy:             0.3658387
  heat_capacity:       1.2081008
  energy:            134.1479473

- temperature:        86.0000000
  free_energy:       134.1164558
  entropy:             0.3954675
  heat_capacity:       1.3117132
  energy:            134.1504660

- temperature:        88.0000000
  free_energy:       134.1156338
  entropy:             0.4268722
  heat_capacity:       1.4219136
  energy:            134.1531986

- temperature:        90.0000000
  free_energy:       134.1147471
  entropy:             0.4601236
  heat_capacity:       1.5389304
  energy:            134.1561582

- temperature:        92.0000000
  free_energy:       134.1137920
  entropy:             0.4952928
  heat_capacity:       1.6629835
  energy:            134.1593590

- temperature:        94.0000000
  free_energy:       134.1127646
  entropy:             0.5324509
  heat_capacity:       1.7942836
  energy:            134.1628150

- temperature:        96.0000000
  free_energy:       134.1116609
  entropy:             0.5716689
  heat_capacity:       1.9330312
  energy:            134.1665411

- temperature:        98.0000000
  free_energy:       134.1104765
  entropy:             0.6130173
  heat_capacity:       2.0794165
  energy:            134.1705522

- temperature:       100.0000000
  free_energy:       134.1092073
  entropy:             0.6565663
  heat_capacity:       2.2336185
  energy:            134.1748639

- temperature:       102.0000000
  free_energy:       134.1078487
  entropy:             0.7023850
  heat_capacity:       2.3958050
  energy:            134.1794920

- temperature:       104.0000000
  free_energy:       134.1063962
  entropy:             0.7505421
  heat_capacity:       2.5661324
  energy:            134.1844526

- temperature:       106.0000000
  free_energy:       134.1048450
  entropy:             0.8011047
  heat_capacity:       2.7447452
  energy:            134.1897621

- temperature:       108.0000000
  free_energy:       134.1031901
  entropy:             0.8541392
  heat_capacity:       2.9317766
  energy:            134.1954372

- temperature:       110.0000000
  free_energy:       134.1014267
  entropy:             0.9097104
  heat_capacity:       3.1273481
  energy:            134.2014949

- temperature:       112.0000000
  free_energy:       134.0995496
  entropy:             0.9678819
  heat_capacity:       3.3315697
  energy:            134.2079523

- temperature:       114.0000000
  free_energy:       134.0975534
  entropy:             1.0287155
  heat_capacity:       3.5445403
  energy:            134.2148270

- temperature:       116.0000000
  free_energy:       134.0954329
  entropy:             1.0922715
  heat_capacity:       3.7663478
  energy:            134.2221364

- temperature:       118.0000000
  free_energy:       134.0931825
  entropy:             1.1586088
  heat_capacity:       3.9970691
  energy:            134.2298983

- temperature:       120.0000000
  free_energy:       134.0907966
  entropy:             1.2277841
  heat_capacity:       4.2367710
  energy:            134.2381307

- temperature:       122.0000000
  free_energy:       134.0882694
  entropy:             1.2998525
  heat_capacity:       4.4855100
  energy:            134.2468514

- temperature:       124.0000000
  free_energy:       134.0855952
  entropy:             1.3748674
  heat_capacity:       4.7433329
  energy:            134.2560788

- temperature:       126.0000000
  free_energy:       134.0827680
  entropy:             1.4528801
  heat_capacity:       5.0102770
  energy:            134.2658308

- temperature:       128.0000000
  free_energy:       134.0797816
  entropy:             1.5339400
  heat_capacity:       5.2863705
  energy:            134.2761260

- temperature:       130.0000000
  free_energy:       134.0766301
  entropy:             1.6180947
  heat_capacity:       5.5716328
  energy:            134.2869824

- temperature:       132.0000000
  free_energy:       134.0733072
  entropy:             1.7053897
  heat_capacity:       5.8660749
  energy:            134.2984186

- temperature:       134.0000000
  free_energy:       134.0698064
  entropy:             1.7958688
  heat_capacity:       6.1696997
  energy:            134.3104529

- temperature:       136.0000000
  free_energy:       134.0661215
  entropy:             1.8895734
  heat_capacity:       6.4825024
  energy:            134.3231035

- temperature:       138.0000000
  free_energy:       134.0622460
  entropy:             1.9865435
  heat_capacity:       6.8044706
  energy:            134.3363890

- temperature:       140.0000000
  free_energy:       134.0581732
  entropy:             2.0868167
  heat_capacity:       7.1355847
  energy:            134.3503275

- temperature:       142.0000000
  free_energy:       134.0538965
  entropy:             2.1904290
  heat_capacity:       7.4758184
  energy:            134.3649374

- temperature:       144.0000000
  free_energy:       134.0494092
  entropy:             2.2974142
  heat_capacity:       7.8251385
  energy:            134.3802368

- temperature:       146.0000000
  free_energy:       134.0447046
  entropy:             2.4078043
  heat_capacity:       8.1835056
  energy:            134.3962440

- temperature:       148.0000000
  free_energy:       134.0397757
  entropy:             2.5216295
  heat_capacity:       8.5508740
  energy:            134.4129769

- temperature:       150.0000000
  free_energy:       134.0346157
  entropy:             2.6389181
  heat_capacity:       8.9271924
  energy:            134.4304534

- temperature:       152.0000000
  free_energy:       134.0292177
  entropy:             2.7596965
  heat_capacity:       9.3124034
  energy:            134.4486916

- temperature:       154.0000000
  free_energy:       134.0235746
  entropy:             2.8839893
  heat_capacity:       9.7064445
  energy:            134.4677089

- temperature:       156.0000000
  free_energy:       134.0176794
  entropy:             3.0118192
  heat_capacity:      10.1092478
  energy:            134.4875232

- temperature:       158.0000000
  free_energy:       134.0115250
  entropy:             3.1432075
  heat_capacity:      10.5207401
  energy:            134.5081517

- temperature:       160.0000000
  free_energy:       134.0051042
  entropy:             3.2781732
  heat_capacity:      10.9408437
  energy:            134.5296119

- temperature:       162.0000000
  free_energy:       133.9984099
  entropy:             3.4167341
  heat_capacity:      11.3694760
  energy:            134.5519208

- temperature:       164.0000000
  free_energy:       133.9914348
  entropy:             3.5589061
  heat_capacity:      11.8065497
  energy:            134.5750954

- temperature:       166.0000000
  free_energy:       133.9841718
  entropy:             3.7047032
  heat_capacity:      12.2519733
  energy:            134.5991526

- temperature:       168.0000000
  free_energy:       133.9766136
  entropy:             3.8541383
  heat_capacity:      12.7056512
  energy:            134.6241088

- temperature:       170.0000000
  free_energy:       133.9687528
  entropy:             4.0072221
  heat_capacity:      13.1674835
  energy:            134.6499806

- temperature:       172.0000000
  free_energy:       133.9605823
  entropy:             4.1639643
  heat_capacity:      13.6373665
  energy:            134.6767841

- temperature:       174.0000000
  free_energy:       133.9520945
  entropy:             4.3243726
  heat_capacity:      14.1151929
  energy:            134.7045354

- temperature:       176.0000000
  free_energy:       133.9432823
  entropy:             4.4884533
  heat_capacity:      14.6008517
  energy:            134.7332501

- temperature:       178.0000000
  free_energy:       133.9341383
  entropy:             4.6562115
  heat_capacity:      15.0942284
  energy:            134.7629439

- temperature:       180.0000000
  free_energy:       133.9246550
  entropy:             4.8276504
  heat_capacity:      15.5952054
  energy:            134.7936321

- temperature:       182.0000000
  free_energy:       133.9148252
  entropy:             5.0027720
  heat_capacity:      16.1036620
  energy:            134.8253297

- temperature:       184.0000000
  free_energy:       133.9046415
  entropy:             5.1815770
  heat_capacity:      16.6194742
  energy:            134.8580516

- temperature:       186.0000000
  free_energy:       133.8940964
  entropy:             5.3640645
  heat_capacity:      17.1425157
  energy:            134.8918124

- temperature:       188.0000000
  free_energy:       133.8831828
  entropy:             5.5502323
  heat_capacity:      17.6726570
  energy:            134.9266264

- temperature:       190.0000000
  free_energy:       133.8718931
  entropy:             5.7400771
  heat_capacity:      18.2097665
  energy:            134.9625077

- temperature:       192.0000000
  free_energy:       133.8602200
  entropy:             5.9335940
  heat_capacity:      18.7537100
  energy:            134.9994701

- temperature:       194.0000000
  free_energy:       133.8481562
  entropy:             6.1307772
  heat_capacity:      19.3043513
  energy:            135.0375270

- temperature:       196.0000000
  free_energy:       133.8356945
  entropy:             6.3316193
  heat_capacity:      19.8615519
  energy:            135.0766918

- temperature:       198.0000000
  free_energy:       133.8228273
  entropy:             6.5361119
  heat_capacity:      20.4251716
  energy:            135.1169775

- temperature:       200.0000000
  free_energy:       133.8095476
  entropy:             6.7442456
  heat_capacity:      20.9950682
  energy:            135.1583967

- temperature:       202.0000000
  free_energy:       133.7958479
  entropy:             6.9560096
  heat_capacity:      21.5710982
  energy:            135.2009619

- temperature:       204.0000000
  free_energy:       133.7817211
  entropy:             7.1713919
  heat_capacity:      22.1531164
  energy:            135.2446851

- temperature:       206.0000000
  free_energy:       133.7671600
  entropy:             7.3903799
  heat_capacity:      22.7409764
  energy:            135.2895782

- temperature:       208.0000000
  free_energy:       133.7521572
  entropy:             7.6129595
  heat_capacity:      23.3345305
  energy:            135.3356528

- temperature:       210.0000000
  free_energy:       133.7367057
  entropy:             7.8391157
  heat_capacity:      23.9336301
  energy:            135.3829200

- temperature:       212.0000000
  free_energy:       133.7207984
  entropy:             8.0688327
  heat_capacity:      24.5381257
  energy:            135.4313909

- temperature:       214.0000000
  free_energy:       133.7044280
  entropy:             8.3020934
  heat_capacity:      25.1478671
  energy:            135.4810760

- temperature:       216.0000000
  free_energy:       133.6875877
  entropy:             8.5388802
  heat_capacity:      25.7627033
  energy:            135.5319858

- temperature:       218.0000000
  free_energy:       133.6702702
  entropy:             8.7791741
  heat_capacity:      26.3824831
  energy:            135.5841302

- temperature:       220.0000000
  free_energy:       133.6524686
  entropy:             9.0229558
  heat_capacity:      27.0070548
  energy:            135.6375189

- temperature:       222.0000000
  free_energy:       133.6341761
  entropy:             9.2702046
  heat_capacity:      27.6362664
  energy:            135.6921615

- temperature:       224.0000000
  free_energy:       133.6153855
  entropy:             9.5208993
  heat_capacity:      28.2699661
  energy:            135.7480670

- temperature:       226.0000000
  free_energy:       133.5960902
  entropy:             9.7750179
  heat_capacity:      28.9080019
  energy:            135.8052442

- temperature:       228.0000000
  free_energy:       133.5762832
  entropy:            10.0325376
  heat_capacity:      29.5502222
  energy:            135.8637018

- temperature:       230.0000000
  free_energy:       133.5559578
  entropy:            10.2934349
  heat_capacity:      30.1964754
  energy:            135.9234478

- temperature:       232.0000000
  free_energy:       133.5351072
  entropy:            10.5576855
  heat_capacity:      30.8466106
  energy:            135.9844902

- temperature:       234.0000000
  free_energy:       133.5137248
  entropy:            10.8252646
  heat_capacity:      31.5004772
  energy:            136.0468367

- temperature:       236.0000000
  free_energy:       133.4918039
  entropy:            11.0961466
  heat_capacity:      32.1579253
  energy:            136.1104945

- temperature:       238.0000000
  free_energy:       133.4693380
  entropy:            11.3703054
  heat_capacity:      32.8188058
  energy:            136.1754707

- temperature:       240.0000000
  free_energy:       133.4463206
  entropy:            11.6477142
  heat_capacity:      33.4829703
  energy:            136.2417720

- temperature:       242.0000000
  free_energy:       133.4227450
  entropy:            11.9283457
  heat_capacity:      34.1502714
  energy:            136.3094047

- temperature:       244.0000000
  free_energy:       133.3986050
  entropy:            12.2121721
  heat_capacity:      34.8205626
  energy:            136.3783750

- temperature:       246.0000000
  free_energy:       133.3738942
  entropy:            12.4991650
  heat_capacity:      35.4936988
  energy:            136.4486888

- temperature:       248.0000000
  free_energy:       133.3486063
  entropy:            12.7892957
  heat_capacity:      36.1695357
  energy:            136.5203516

- temperature:       250.0000000
  free_energy:       133.3227350
  entropy:            13.0825348
  heat_capacity:      36.8479306
  energy:            136.5933687

- temperature:       252.0000000
  free_energy:       133.2962741
  entropy:            13.3788526
  heat_capacity:      37.5287419
  energy:            136.6677450

- temperature:       254.0000000
  free_energy:       133.2692175
  entropy:            13.6782190
  heat_capacity:      38.2118295
  energy:            136.7434852

- temperature:       256.0000000
  free_energy:       133.2415592
  entropy:            13.9806035
  heat_capacity:      38.8970549
  energy:            136.8205937

- temperature:       258.0000000
  free_energy:       133.2132931
  entropy:            14.2859752
  heat_capacity:      39.5842811
  energy:            136.8990747

- temperature:       260.0000000
  free_energy:       133.1844133
  entropy:            14.5943028
  heat_capacity:      40.2733725
  energy:            136.9789321

- temperature:       262.0000000
  free_energy:       133.1549140
  entropy:            14.9055549
  heat_capacity:      40.9641955
  energy:            137.0601694

- temperature:       264.0000000
  free_energy:       133.1247892
  entropy:            15.2196997
  heat_capacity:      41.6566179
  energy:            137.1427899

- temperature:       266.0000000
  free_energy:       133.0940333
  entropy:            15.5367051
  heat_capacity:      42.3505096
  energy:            137.2267968

- temperature:       268.0000000
  free_energy:       133.0626405
  entropy:            15.8565387
  heat_capacity:      43.0457421
  energy:            137.3121929

- temperature:       270.0000000
  free_energy:       133.0306052
  entropy:            16.1791680
  heat_capacity:      43.7421887
  energy:            137.3989806

- temperature:       272.0000000
  free_energy:       132.9979220
  entropy:            16.5045602
  heat_capacity:      44.4397249
  energy:            137.4871623

- temperature:       274.0000000
  free_energy:       132.9645852
  entropy:            16.8326823
  heat_capacity:      45.1382278
  energy:            137.5767401

- temperature:       276.0000000
  free_energy:       132.9305894
  entropy:            17.1635013
  heat_capacity:      45.8375766
  energy:            137.6677158

- temperature:       278.0000000
  free_energy:       132.8959294
  entropy:            17.4969839
  heat_capacity:      46.5376526
  energy:            137.7600909

- temperature:       280.0000000
  free_energy:       132.8605998
  entropy:            17.8330967
  heat_capacity:      47.2383390
  energy:            137.8538668

- temperature:       282.0000000
  free_energy:       132.8245953
  entropy:            18.1718061
  heat_capacity:      47.9395211
  energy:            137.9490446

- temperature:       284.0000000
  free_energy:       132.7879108
  entropy:            18.5130787
  heat_capacity:      48.6410862
  energy:            138.0456252

- temperature:       286.0000000
  free_energy:       132.7505413
  entropy:            18.8568806
  heat_capacity:      49.3429237
  energy:            138.1436091

- temperature:       288.0000000
  free_energy:       132.7124816
  entropy:            19.2031782
  heat_capacity:      50.0449251
  energy:            138.2429970

- temperature:       290.0000000
  free_energy:       132.6737269
  entropy:            19.5519378
  heat_capacity:      50.7469840
  energy:            138.3437889

- temperature:       292.0000000
  free_energy:       132.6342723
  entropy:            19.9031254
  heat_capacity:      51.4489962
  energy:            138.4459849

- temperature:       294.0000000
  free_energy:       132.5941128
  entropy:            20.2567073
  heat_capacity:      52.1508596
  energy:            138.5495848

- temperature:       296.0000000
  free_energy:       132.5532439
  entropy:            20.6126496
  heat_capacity:      52.8524740
  energy:            138.6545882

- temperature:       298.0000000
  free_energy:       132.5116607
  entropy:            20.9709186
  heat_capacity:      53.5537417
  energy:            138.7609944

- temperature:       300.0000000
  free_energy:       132.4693587
  entropy:            21.3314805
  heat_capacity:      54.2545667
  energy:            138.8688028

- temperature:       302.0000000
  free_energy:       132.4263333
  entropy:            21.6943016
  heat_capacity:      54.9548556
  energy:            138.9780123

- temperature:       304.0000000
  free_energy:       132.3825800
  entropy:            22.0593482
  heat_capacity:      55.6545168
  energy:            139.0886218

- temperature:       306.0000000
  free_energy:       132.3380944
  entropy:            22.4265867
  heat_capacity:      56.3534608
  energy:            139.2006299

- temperature:       308.0000000
  free_energy:       132.2928722
  entropy:            22.7959836
  heat_capacity:      57.0516004
  energy:            139.3140351

- temperature:       310.0000000
  free_energy:       132.2469091
  entropy:            23.1675054
  heat_capacity:      57.7488504
  energy:            139.4288357

- temperature:       312.0000000
  free_energy:       132.2002008
  entropy:            23.5411190
  heat_capacity:      58.4451276
  energy:            139.5450299

- temperature:       314.0000000
  free_energy:       132.1527432
  entropy:            23.9167909
  heat_capacity:      59.1403511
  energy:            139.6626155

- temperature:       316.0000000
  free_energy:       132.1045323
  entropy:            24.2944882
  heat_capacity:      59.8344418
  energy:            139.7815905

- temperature:       318.0000000
  free_energy:       132.0555639
  entropy:            24.6741779
  heat_capacity:      60.5273227
  energy:            139.9019525

- temperature:       320.0000000
  free_energy:       132.0058342
  entropy:            25.0558273
  heat_capacity:      61.2189191
  energy:            140.0236990

- temperature:       322.0000000
  free_energy:       131.9553393
  entropy:            25.4394036
  heat_capacity:      61.9091579
  energy:            140.1468273

- temperature:       324.0000000
  free_energy:       131.9040754
  entropy:            25.8248743
  heat_capacity:      62.5979683
  energy:            140.2713347

- temperature:       326.0000000
  free_energy:       131.8520386
  entropy:            26.2122073
  heat_capacity:      63.2852813
  energy:            140.3972182

- temperature:       328.0000000
  free_energy:       131.7992253
  entropy:            26.6013702
  heat_capacity:      63.9710300
  energy:            140.5244747

- temperature:       330.0000000
  free_energy:       131.7456319
  entropy:            26.9923311
  heat_capacity:      64.6551492
  energy:            140.6531012

- temperature:       332.0000000
  free_energy:       131.6912548
  entropy:            27.3850584
  heat_capacity:      65.3375759
  energy:            140.7830942

- temperature:       334.0000000
  free_energy:       131.6360905
  entropy:            27.7795204
  heat_capacity:      66.0182486
  energy:            140.9144503

- temperature:       336.0000000
  free_energy:       131.5801356
  entropy:            28.1756857
  heat_capacity:      66.6971081
  energy:            141.0471660

- temperature:       338.0000000
  free_energy:       131.5233867
  entropy:            28.5735232
  heat_capacity:      67.3740967
  energy:            141.1812375

- temperature:       340.0000000
  free_energy:       131.4658404
  entropy:            28.9730020
  heat_capacity:      68.0491587
  energy:            141.3166611

- temperature:       342.0000000
  free_energy:       131.4074936
  entropy:            29.3740913
  heat_capacity:      68.7222400
  energy:            141.4534328

- temperature:       344.0000000
  free_energy:       131.3483430
  entropy:            29.7767608
  heat_capacity:      69.3932884
  energy:            141.5915487

- temperature:       346.0000000
  free_energy:       131.2883855
  entropy:            30.1809800
  heat_capacity:      70.0622534
  energy:            141.7310046

- temperature:       348.0000000
  free_energy:       131.2276181
  entropy:            30.5867191
  heat_capacity:      70.7290863
  energy:            141.8717963

- temperature:       350.0000000
  free_energy:       131.1660376
  entropy:            30.9939481
  heat_capacity:      71.3937398
  energy:            142.0139195

- temperature:       352.0000000
  free_energy:       131.1036413
  entropy:            31.4026377
  heat_capacity:      72.0561685
  energy:            142.1573698

- temperature:       354.0000000
  free_energy:       131.0404261
  entropy:            31.8127585
  heat_capacity:      72.7163285
  energy:            142.3021426

- temperature:       356.0000000
  free_energy:       130.9763893
  entropy:            32.2242815