<?xml version="1.0" encoding="ISO-8859-1"?>
<modeling>
 <generator>
  <i name="program" type="string">vasp </i>
  <i name="version" type="string">5.4.4.18Apr17-6-g9f103f2a35  </i>
  <i name="subversion" type="string">(build Mar 12 2022 03:36:41) complex            parallel </i>
  <i name="platform" type="string">IFC19.0.3.199_CrayMPICH7.7.19 </i>
  <i name="date" type="string">2022 12 01 </i>
  <i name="time" type="string">06:47:00 </i>
 </generator>
 <incar>
  <i type="string" name="PREC">accurate</i>
  <i type="int" name="IALGO">    38</i>
  <i type="logical" name="ADDGRID"> T  </i>
  <i type="int" name="IBRION">     8</i>
  <i name="EDIFF">      0.00000001</i>
  <i type="logical" name="LREAL"> F  </i>
  <i type="int" name="ISMEAR">     0</i>
  <i name="SIGMA">      0.06000000</i>
  <i type="logical" name="LWAVE"> F  </i>
  <i type="logical" name="LCHARG"> F  </i>
  <v type="int" name="KPOINT_BSE">    -1     0     0     0</v>
 </incar>
 <structure name="primitive_cell" >
  <crystal>
   <varray name="basis" >
    <v>       1.80463500       1.80463500       0.00000000 </v>
    <v>       1.80463500       0.00000000      -1.80463500 </v>
    <v>       0.00000000       1.80463500      -1.80463500 </v>
   </varray>
   <i name="volume">     11.75433662 </i>
   <varray name="rec_basis" >
    <v>       0.27706434       0.27706434       0.27706434 </v>
    <v>       0.27706434      -0.27706434      -0.27706434 </v>
    <v>      -0.27706434       0.27706434      -0.27706434 </v>
   </varray>
  </crystal>
  <varray name="positions" >
   <v>       0.25000000       0.25000000       0.25000000 </v>
   <v>      -0.50000000      -0.50000000      -0.50000000 </v>
  </varray>
 </structure>
 <varray name="primitive_index" >
  <v type="int" >        1 </v>
  <v type="int" >       11 </v>
 </varray>
 <kpoints>
  <generation param="Gamma">
   <v type="int" name="divisions">       8        8        8 </v>
   <v name="usershift">      0.00000000       0.00000000       0.00000000 </v>
   <v name="genvec1">      0.12500000       0.00000000       0.00000000 </v>
   <v name="genvec2">      0.00000000       0.12500000       0.00000000 </v>
   <v name="genvec3">      0.00000000       0.00000000       0.12500000 </v>
   <v name="shift">      0.00000000       0.00000000       0.00000000 </v>
  </generation>
  <varray name="kpointlist" >
   <v>       0.00000000       0.00000000       0.00000000 </v>
   <v>       0.12500000       0.00000000       0.00000000 </v>
   <v>       0.25000000       0.00000000       0.00000000 </v>
   <v>       0.37500000       0.00000000       0.00000000 </v>
   <v>       0.50000000       0.00000000       0.00000000 </v>
   <v>       0.12500000       0.12500000       0.00000000 </v>
   <v>       0.25000000       0.12500000       0.00000000 </v>
   <v>       0.37500000       0.12500000       0.00000000 </v>
   <v>       0.50000000       0.12500000       0.00000000 </v>
   <v>       0.25000000       0.25000000       0.00000000 </v>
   <v>       0.37500000       0.25000000       0.00000000 </v>
   <v>       0.50000000       0.25000000       0.00000000 </v>
   <v>       0.37500000       0.37500000       0.00000000 </v>
   <v>       0.50000000       0.37500000       0.00000000 </v>
   <v>       0.50000000       0.50000000       0.00000000 </v>
   <v>       0.12500000       0.12500000       0.12500000 </v>
   <v>       0.25000000       0.12500000       0.12500000 </v>
   <v>       0.37500000       0.12500000       0.12500000 </v>
   <v>       0.50000000       0.12500000       0.12500000 </v>
   <v>       0.25000000       0.25000000       0.12500000 </v>
   <v>       0.37500000       0.25000000       0.12500000 </v>
   <v>       0.50000000       0.25000000       0.12500000 </v>
   <v>       0.37500000       0.37500000       0.12500000 </v>
   <v>       0.50000000       0.37500000       0.12500000 </v>
   <v>       0.50000000       0.50000000       0.12500000 </v>
   <v>       0.25000000       0.25000000       0.25000000 </v>
   <v>       0.37500000       0.25000000       0.25000000 </v>
   <v>       0.50000000       0.25000000       0.25000000 </v>
   <v>       0.37500000       0.37500000       0.25000000 </v>
   <v>       0.50000000       0.37500000       0.25000000 </v>
   <v>       0.50000000       0.50000000       0.25000000 </v>
   <v>       0.37500000       0.37500000       0.37500000 </v>
   <v>       0.50000000       0.37500000       0.37500000 </v>
   <v>       0.50000000       0.50000000       0.37500000 </v>
   <v>       0.50000000       0.50000000       0.50000000 </v>
  </varray>
  <varray name="weights" >
   <v>       0.00195312 </v>
   <v>       0.01171875 </v>
   <v>       0.01171875 </v>
   <v>       0.01171875 </v>
   <v>       0.00585938 </v>
   <v>       0.02343750 </v>
   <v>       0.04687500 </v>
   <v>       0.04687500 </v>
   <v>       0.02343750 </v>
   <v>       0.02343750 </v>
   <v>       0.04687500 </v>
   <v>       0.02343750 </v>
   <v>       0.02343750 </v>
   <v>       0.02343750 </v>
   <v>       0.00585938 </v>
   <v>       0.01562500 </v>
   <v>       0.04687500 </v>
   <v>       0.04687500 </v>
   <v>       0.02343750 </v>
   <v>       0.04687500 </v>
   <v>       0.09375000 </v>
   <v>       0.04687500 </v>
   <v>       0.04687500 </v>
   <v>       0.04687500 </v>
   <v>       0.01171875 </v>
   <v>       0.01562500 </v>
   <v>       0.04687500 </v>
   <v>       0.02343750 </v>
   <v>       0.04687500 </v>
   <v>       0.04687500 </v>
   <v>       0.01171875 </v>
   <v>       0.01562500 </v>
   <v>       0.02343750 </v>
   <v>       0.01171875 </v>
   <v>       0.00195312 </v>
  </varray>
 </kpoints>
 <parameters>
  <separator name="general" >
   <i type="string" name="SYSTEM">unknown system</i>
   <i type="logical" name="LCOMPAT"> F  </i>
  </separator>
  <separator name="electronic" >
   <i type="string" name="PREC">accura</i>
   <i name="ENMAX">    400.00000000</i>
   <i name="ENAUG">    644.87300000</i>
   <i name="EDIFF">      0.00000001</i>
   <i type="int" name="IALGO">    38</i>
   <i type="int" name="IWAVPR">    11</i>
   <i type="int" name="NBANDS">   192</i>
   <i name="NELECT">    256.00000000</i>
   <i type="int" name="TURBO">     0</i>
   <i type="int" name="IRESTART">     0</i>
   <i type="int" name="NREBOOT">     0</i>
   <i type="int" name="NMIN">     0</i>
   <i name="EREF">      0.00000000</i>
   <separator name="electronic smearing" >
    <i type="int" name="ISMEAR">     0</i>
    <i name="SIGMA">      0.06000000</i>
    <i name="KSPACING">      0.50000000</i>
    <i type="logical" name="KGAMMA"> T  </i>
   </separator>
   <separator name="electronic projectors" >
    <i type="logical" name="LREAL"> F  </i>
    <v name="ROPT">      0.00000000</v>
    <i type="int" name="LMAXPAW">  -100</i>
    <i type="int" name="LMAXMIX">     2</i>
    <i type="logical" name="NLSPLINE"> F  </i>
   </separator>
   <separator name="electronic startup" >
    <i type="int" name="ISTART">     0</i>
    <i type="int" name="ICHARG">     2</i>
    <i type="int" name="INIWAV">     1</i>
   </separator>
   <separator name="electronic spin" >
    <i type="int" name="ISPIN">     1</i>
    <i type="logical" name="LNONCOLLINEAR"> F  </i>
    <v name="MAGMOM">      1.00000000      1.00000000      1.00000000      1.00000000      1.00000000      1.00000000      1.00000000      1.00000000      1.00000000      1.00000000      1.00000000      1.00000000      1.00000000      1.00000000      1.00000000      1.00000000      1.00000000      1.00000000      1.00000000      1.00000000
      1.00000000      1.00000000      1.00000000      1.00000000      1.00000000      1.00000000      1.00000000      1.00000000      1.00000000      1.00000000      1.00000000      1.00000000      1.00000000      1.00000000      1.00000000      1.00000000      1.00000000      1.00000000      1.00000000      1.00000000
      1.00000000      1.00000000      1.00000000      1.00000000      1.00000000      1.00000000      1.00000000      1.00000000      1.00000000      1.00000000      1.00000000      1.00000000      1.00000000      1.00000000      1.00000000      1.00000000      1.00000000      1.00000000      1.00000000      1.00000000
      1.00000000      1.00000000      1.00000000      1.00000000</v>
    <i name="NUPDOWN">     -1.00000000</i>
    <i type="logical" name="LSORBIT"> F  </i>
    <v name="SAXIS">      0.00000000      0.00000000      1.00000000</v>
    <i type="logical" name="LSPIRAL"> F  </i>
    <v name="QSPIRAL">      0.00000000      0.00000000      0.00000000</v>
    <i type="logical" name="LZEROZ"> F  </i>
   </separator>
   <separator name="electronic exchange-correlation" >
    <i type="logical" name="LASPH"> F  </i>
    <i type="logical" name="LMETAGGA"> F  </i>
   </separator>
   <separator name="electronic convergence" >
    <i type="int" name="NELM">    60</i>
    <i type="int" name="NELMDL">    -5</i>
    <i type="int" name="NELMIN">     2</i>
    <i name="ENINI">    400.00000000</i>
    <separator name="electronic convergence detail" >
     <i type="logical" name="LDIAG"> T  </i>
     <i type="logical" name="LSUBROT"> F  </i>
     <i name="WEIMIN">      0.00100000</i>
     <i name="EBREAK">      0.00000000</i>
     <i name="DEPER">      0.30000000</i>
     <i type="int" name="NRMM">     4</i>
     <i name="TIME">      0.40000000</i>
    </separator>
   </separator>
   <separator name="electronic mixer" >
    <i name="AMIX">      0.40000000</i>
    <i name="BMIX">      1.00000000</i>
    <i name="AMIN">      0.10000000</i>
    <i name="AMIX_MAG">      1.60000000</i>
    <i name="BMIX_MAG">      1.00000000</i>
    <separator name="electronic mixer details" >
     <i type="int" name="IMIX">     4</i>
     <i type="logical" name="MIXFIRST"> F  </i>
     <i type="int" name="MAXMIX">   -45</i>
     <i name="WC">    100.00000000</i>
     <i type="int" name="INIMIX">     1</i>
     <i type="int" name="MIXPRE">     1</i>
     <i type="int" name="MREMOVE">     5</i>
    </separator>
   </separator>
   <separator name="electronic dipolcorrection" >
    <i type="logical" name="LDIPOL"> F  </i>
    <i type="logical" name="LMONO"> F  </i>
    <i type="int" name="IDIPOL">     0</i>
    <i name="EPSILON">      1.00000000</i>
    <v name="DIPOL">   -100.00000000   -100.00000000   -100.00000000</v>
    <i name="EFIELD">      0.00000000</i>
   </separator>
  </separator>
  <separator name="grids" >
   <i type="int" name="NGX">    48</i>
   <i type="int" name="NGY">    48</i>
   <i type="int" name="NGZ">    48</i>
   <i type="int" name="NGXF">    96</i>
   <i type="int" name="NGYF">    96</i>
   <i type="int" name="NGZF">    96</i>
   <i type="logical" name="ADDGRID"> T  </i>
  </separator>
  <separator name="ionic" >
   <i type="int" name="NSW">     1</i>
   <i type="int" name="IBRION">     8</i>
   <i type="int" name="MDALGO">     0</i>
   <i type="int" name="ISIF">     2</i>
   <i name="PSTRESS">      0.00000000</i>
   <i name="EDIFFG">      0.00000010</i>
   <i type="int" name="NFREE">     0</i>
   <i name="POTIM">      0.50000000</i>
   <i name="SMASS">     -3.00000000</i>
   <i name="SCALEE">      1.00000000</i>
  </separator>
  <separator name="ionic md" >
   <i name="TEBEG">      0.00010000</i>
   <i name="TEEND">      0.00010000</i>
   <i type="int" name="NBLOCK">     1</i>
   <i type="int" name="KBLOCK">     1</i>
   <i type="int" name="NPACO">   256</i>
   <i name="APACO">     16.00000000</i>
  </separator>
  <separator name="symmetry" >
   <i type="int" name="ISYM">     2</i>
   <i name="SYMPREC">      0.00001000</i>
  </separator>
  <separator name="dos" >
   <i type="int" name="LORBIT">     0</i>
   <v name="RWIGS">     -1.00000000</v>
   <i type="int" name="NEDOS">   301</i>
   <i name="EMIN">     10.00000000</i>
   <i name="EMAX">    -10.00000000</i>
   <i name="EFERMI">      0.00000000</i>
  </separator>
  <separator name="writing" >
   <i type="int" name="NWRITE">     2</i>
   <i type="logical" name="LWAVE"> F  </i>
   <i type="logical" name="LDOWNSAMPLE"> F  </i>
   <i type="logical" name="LCHARG"> F  </i>
   <i type="logical" name="LPARD"> F  </i>
   <i type="logical" name="LVTOT"> F  </i>
   <i type="logical" name="LVHAR"> F  </i>
   <i type="logical" name="LELF"> F  </i>
   <i type="logical" name="LOPTICS"> F  </i>
   <v name="STM">      0.00000000      0.00000000      0.00000000      0.00000000      0.00000000      0.00000000      0.00000000</v>
  </separator>
  <separator name="performance" >
   <i type="int" name="NPAR">    32</i>
   <i type="int" name="NSIM">     4</i>
   <i type="int" name="NBLK">    -1</i>
   <i type="logical" name="LPLANE"> T  </i>
   <i type="logical" name="LSCALAPACK"> T  </i>
   <i type="logical" name="LSCAAWARE"> F  </i>
   <i type="logical" name="LSCALU"> F  </i>
   <i type="logical" name="LASYNC"> F  </i>
   <i type="logical" name="LORBITALREAL"> F  </i>
  </separator>
  <separator name="miscellaneous" >
   <i type="int" name="IDIOT">     3</i>
   <i type="int" name="ISPECIAL">     0</i>
   <i type="logical" name="LMUSIC"> F  </i>
   <v name="POMASS">     12.01100000</v>
   <v name="DARWINR">      0.00000000</v>
   <v name="DARWINV">      1.00000000</v>
   <i type="logical" name="LCORR"> T  </i>
  </separator>
  <i type="logical" name="GGA_COMPAT"> T  </i>
  <i type="logical" name="LBERRY"> F  </i>
  <i type="int" name="ICORELEVEL">     0</i>
  <i type="logical" name="LDAU"> F  </i>
  <i type="int" name="I_CONSTRAINED_M">     0</i>
  <separator name="electronic exchange-correlation" >
   <i type="string" name="GGA">--</i>
   <i type="int" name="VOSKOWN">     0</i>
   <i type="logical" name="LHFCALC"> F  </i>
   <i type="string" name="PRECFOCK"></i>
   <i type="logical" name="LSYMGRAD"> F  </i>
   <i type="logical" name="LHFONE"> F  </i>
   <i type="logical" name="LRHFCALC"> F  </i>
   <i type="logical" name="LTHOMAS"> F  </i>
   <i type="logical" name="LMODELHF"> F  </i>
   <i name="ENCUT4O">     -1.00000000</i>
   <i type="int" name="EXXOEP">     0</i>
   <i type="int" name="FOURORBIT">     0</i>
   <i name="AEXX">      0.00000000</i>
   <i name="HFALPHA">      0.00000000</i>
   <i name="MCALPHA">      0.00000000</i>
   <i name="ALDAX">      1.00000000</i>
   <i name="AGGAX">      1.00000000</i>
   <i name="ALDAC">      1.00000000</i>
   <i name="AGGAC">      1.00000000</i>
   <i type="int" name="NKREDX">     1</i>
   <i type="int" name="NKREDY">     1</i>
   <i type="int" name="NKREDZ">     1</i>
   <i type="logical" name="SHIFTRED"> F  </i>
   <i type="logical" name="ODDONLY"> F  </i>
   <i type="logical" name="EVENONLY"> F  </i>
   <i type="int" name="LMAXFOCK">     0</i>
   <i type="int" name="NMAXFOCKAE">     0</i>
   <i type="logical" name="LFOCKAEDFT"> F  </i>
   <i name="HFSCREEN">      0.00000000</i>
   <i name="HFSCREENC">      0.00000000</i>
   <i type="int" name="NBANDSGWLOW">     0</i>
  </separator>
  <separator name="vdW DFT" >
   <i type="logical" name="LUSE_VDW"> F  </i>
   <i name="Zab_VDW">     -0.84910000</i>
   <i name="PARAM1">      0.12340000</i>
   <i name="PARAM2">      1.00000000</i>
   <i name="PARAM3">      0.00000000</i>
  </separator>
  <separator name="model GW" >
   <i type="int" name="MODEL_GW">     0</i>
   <i name="MODEL_EPS0">      3.52630099</i>
   <i name="MODEL_ALPHA">      1.00000000</i>
  </separator>
  <separator name="linear response parameters" >
   <i type="logical" name="LEPSILON"> F  </i>
   <i type="logical" name="LRPA"> F  </i>
   <i type="logical" name="LNABLA"> F  </i>
   <i type="logical" name="LVEL"> F  </i>
   <i type="int" name="KINTER">     0</i>
   <i name="CSHIFT">      0.10000000</i>
   <i name="OMEGAMAX">     -1.00000000</i>
   <i name="DEG_THRESHOLD">      0.00200000</i>
   <i name="RTIME">     -0.10000000</i>
   <i name="WPLASMAI">      0.00000000</i>
   <v name="DFIELD">      0.00000000      0.00000000      0.00000000</v>
   <v name="WPLASMA">      0.00000000      0.00000000      0.00000000      0.00000000      0.00000000      0.00000000      0.00000000      0.00000000      0.00000000</v>
  </separator>
  <separator name="orbital magnetization" >
   <i type="logical" name="NUCIND"> F  </i>
   <v name="MAGPOS">      0.00000000      0.00000000      0.00000000</v>
   <i type="logical" name="LNICSALL"> T  </i>
   <i type="logical" name="ORBITALMAG"> F  </i>
   <i type="logical" name="LMAGBLOCH"> F  </i>
   <i type="logical" name="LCHIMAG"> F  </i>
   <i type="logical" name="LGAUGE"> T  </i>
   <i type="int" name="MAGATOM">     0</i>
   <v name="MAGDIPOL">      0.00000000      0.00000000      0.00000000</v>
   <v name="AVECCONST">      0.00000000      0.00000000      0.00000000</v>
  </separator>
  <separator name="response functions" >
   <i type="logical" name="LADDER"> F  </i>
   <i type="logical" name="LRPAFORCE"> F  </i>
   <i type="logical" name="LFXC"> F  </i>
   <i type="logical" name="LHARTREE"> T  </i>
   <i type="int" name="IBSE">     0</i>
   <v type="int" name="KPOINT">    -1     0     0     0</v>
   <i type="logical" name="LTCTE"> F  </i>
   <i type="logical" name="LTETE"> F  </i>
   <i type="logical" name="LTRIPLET"> F  </i>
   <i type="logical" name="LFXCEPS"> F  </i>
   <i type="logical" name="LFXHEG"> F  </i>
   <i type="int" name="NATURALO">     2</i>
   <i type="logical" name="L2ORDER"> F  </i>
   <i type="logical" name="LMP2LT"> F  </i>
   <i type="logical" name="LUSEW"> F  </i>
   <i name="ENCUTGW">     -2.00000000</i>
   <i name="ENCUTGWSOFT">     -2.00000000</i>
   <i name="ENCUTLF">     -1.00000000</i>
   <i type="int" name="LMAXMP2">    -1</i>
   <i name="SCISSOR">      0.00000000</i>
   <i type="int" name="NOMEGA">     0</i>
   <i type="int" name="NOMEGAR">     0</i>
   <i type="int" name="NBANDSGW">    -1</i>
   <i type="int" name="NBANDSO">    -1</i>
   <i type="int" name="NBANDSV">    -1</i>
   <i type="int" name="NELM">     1</i>
   <i type="int" name="NELMHF">     1</i>
   <i type="int" name="DIM">     3</i>
   <i type="int" name="ANTIRES">     0</i>
   <i name="OMEGAMAX">    -30.00000000</i>
   <i name="OMEGAMIN">    -30.00000000</i>
   <i name="OMEGATL">   -200.00000000</i>
   <i type="int" name="OMEGAGRID">   140</i>
   <i name="CSHIFT">     -0.10000000</i>
   <i type="logical" name="SELFENERGY"> F  </i>
   <i type="logical" name="LSPECTRAL"> F  </i>
   <i type="logical" name="LSPECTRALGW"> F  </i>
   <i type="logical" name="LSINGLES"> F  </i>
   <i type="logical" name="LFERMIGW"> F  </i>
   <i type="logical" name="ODDONLYGW"> F  </i>
   <i type="logical" name="EVENONLYGW"> F  </i>
   <i type="int" name="NKREDLFX">     1</i>
   <i type="int" name="NKREDLFY">     1</i>
   <i type="int" name="NKREDLFZ">     1</i>
   <i type="int" name="MAXMEM">  2800</i>
   <i type="int" name="TELESCOPE">     0</i>
   <i type="int" name="TAUPAR">     1</i>
   <i type="int" name="OMEGAPAR">    -1</i>
   <i name="LAMBDA">      1.00000000</i>
  </separator>
  <separator name="External order field" >
   <i name="OFIELD_KAPPA">      0.00000000</i>
   <v name="OFIELD_K">      0.00000000      0.00000000      0.00000000</v>
   <i name="OFIELD_Q6_NEAR">      0.00000000</i>
   <i name="OFIELD_Q6_FAR">      0.00000000</i>
   <i name="OFIELD_A">      0.00000000</i>
  </separator>
 </parameters>
 <atominfo>
  <atoms>      64 </atoms>
  <types>       1 </types>
  <array name="atoms" >
   <dimension dim="1">ion</dimension>
   <field type="string">element</field>
   <field type="int">atomtype</field>
   <set>
    <rc><c>C </c><c>   1</c></rc>
    <rc><c>C </c><c>   1</c></rc>
    <rc><c>C </c><c>   1</c></rc>
    <rc><c>C </c><c>   1</c></rc>
    <rc><c>C </c><c>   1</c></rc>
    <rc><c>C </c><c>   1</c></rc>
    <rc><c>C </c><c>   1</c></rc>
    <rc><c>C </c><c>   1</c></rc>
    <rc><c>C </c><c>   1</c></rc>
    <rc><c>C </c><c>   1</c></rc>
    <rc><c>C </c><c>   1</c></rc>
    <rc><c>C </c><c>   1</c></rc>
    <rc><c>C </c><c>   1</c></rc>
    <rc><c>C </c><c>   1</c></rc>
    <rc><c>C </c><c>   1</c></rc>
    <rc><c>C </c><c>   1</c></rc>
    <rc><c>C </c><c>   1</c></rc>
    <rc><c>C </c><c>   1</c></rc>
    <rc><c>C </c><c>   1</c></rc>
    <rc><c>C </c><c>   1</c></rc>
    <rc><c>C </c><c>   1</c></rc>
    <rc><c>C </c><c>   1</c></rc>
    <rc><c>C </c><c>   1</c></rc>
    <rc><c>C </c><c>   1</c></rc>
    <rc><c>C </c><c>   1</c></rc>
    <rc><c>C </c><c>   1</c></rc>
    <rc><c>C </c><c>   1</c></rc>
    <rc><c>C </c><c>   1</c></rc>
    <rc><c>C </c><c>   1</c></rc>
    <rc><c>C </c><c>   1</c></rc>
    <rc><c>C </c><c>   1</c></rc>
    <rc><c>C </c><c>   1</c></rc>
    <rc><c>C </c><c>   1</c></rc>
    <rc><c>C </c><c>   1</c></rc>
    <rc><c>C </c><c>   1</c></rc>
    <rc><c>C </c><c>   1</c></rc>
    <rc><c>C </c><c>   1</c></rc>
    <rc><c>C </c><c>   1</c></rc>
    <rc><c>C </c><c>   1</c></rc>
    <rc><c>C </c><c>   1</c></rc>
    <rc><c>C </c><c>   1</c></rc>
    <rc><c>C </c><c>   1</c></rc>
    <rc><c>C </c><c>   1</c></rc>
    <rc><c>C </c><c>   1</c></rc>
    <rc><c>C </c><c>   1</c></rc>
    <rc><c>C </c><c>   1</c></rc>
    <rc><c>C </c><c>   1</c></rc>
    <rc><c>C </c><c>   1</c></rc>
    <rc><c>C </c><c>   1</c></rc>
    <rc><c>C </c><c>   1</c></rc>
    <rc><c>C </c><c>   1</c></rc>
    <rc><c>C </c><c>   1</c></rc>
    <rc><c>C </c><c>   1</c></rc>
    <rc><c>C </c><c>   1</c></rc>
    <rc><c>C </c><c>   1</c></rc>
    <rc><c>C </c><c>   1</c></rc>
    <rc><c>C </c><c>   1</c></rc>
    <rc><c>C </c><c>   1</c></rc>
    <rc><c>C </c><c>   1</c></rc>
    <rc><c>C </c><c>   1</c></rc>
    <rc><c>C </c><c>   1</c></rc>
    <rc><c>C </c><c>   1</c></rc>
    <rc><c>C </c><c>   1</c></rc>
    <rc><c>C </c><c>   1</c></rc>
   </set>
  </array>
  <array name="atomtypes" >
   <dimension dim="1">type</dimension>
   <field type="int">atomspertype</field>
   <field type="string">element</field>
   <field>mass</field>
   <field>valence</field>
   <field type="string">pseudopotential</field>
   <set>
    <rc><c>  64</c><c>C </c><c>     12.01100000</c><c>      4.00000000</c><c> PAW_PBE C 08Apr2002                    </c></rc>
   </set>
  </array>
 </atominfo>
 <structure name="initialpos" >
  <crystal>
   <varray name="basis" >
    <v>       7.21854000       0.00000000       0.00000000 </v>
    <v>       0.00000000       7.21854000       0.00000000 </v>
    <v>       0.00000000       0.00000000       7.21854000 </v>
   </varray>
   <i name="volume">    376.13877178 </i>
   <varray name="rec_basis" >
    <v>       0.13853217       0.00000000       0.00000000 </v>
    <v>       0.00000000       0.13853217       0.00000000 </v>
    <v>       0.00000000       0.00000000       0.13853217 </v>
   </varray>
  </crystal>
  <varray name="positions" >
   <v>       0.12500000       0.37500000       0.12500000 </v>
   <v>       0.62500000       0.37500000       0.12500000 </v>
   <v>       0.12500000       0.87500000       0.12500000 </v>
   <v>       0.62500000       0.87500000       0.12500000 </v>
   <v>       0.12500000       0.37500000       0.62500000 </v>
   <v>       0.62500000       0.37500000       0.62500000 </v>
   <v>       0.12500000       0.87500000       0.62500000 </v>
   <v>       0.62500000       0.87500000       0.62500000 </v>
   <v>       0.00000000       0.00000000       0.25000000 </v>
   <v>       0.50000000       0.00000000       0.25000000 </v>
   <v>       0.00000000       0.50000000       0.25000000 </v>
   <v>       0.50000000       0.50000000       0.25000000 </v>
   <v>       0.00000000       0.00000000       0.75000000 </v>
   <v>       0.50000000       0.00000000       0.75000000 </v>
   <v>       0.00000000       0.50000000       0.75000000 </v>
   <v>       0.50000000       0.50000000       0.75000000 </v>
   <v>       0.12500000       0.12500000       0.37500000 </v>
   <v>       0.62500000       0.12500000       0.37500000 </v>
   <v>       0.12500000       0.62500000       0.37500000 </v>
   <v>       0.62500000       0.62500000       0.37500000 </v>
   <v>       0.12500000       0.12500000       0.87500000 </v>
   <v>       0.62500000       0.12500000       0.87500000 </v>
   <v>       0.12500000       0.62500000       0.87500000 </v>
   <v>       0.62500000       0.62500000       0.87500000 </v>
   <v>       0.00000000       0.25000000       0.00000000 </v>
   <v>       0.50000000       0.25000000       0.00000000 </v>
   <v>       0.00000000       0.75000000       0.00000000 </v>
   <v>       0.50000000       0.75000000       0.00000000 </v>
   <v>       0.00000000       0.25000000       0.50000000 </v>
   <v>       0.50000000       0.25000000       0.50000000 </v>
   <v>       0.00000000       0.75000000       0.50000000 </v>
   <v>       0.50000000       0.75000000       0.50000000 </v>
   <v>       0.37500000       0.37500000       0.37500000 </v>
   <v>       0.87500000       0.37500000       0.37500000 </v>
   <v>       0.37500000       0.87500000       0.37500000 </v>
   <v>       0.87500000       0.87500000       0.37500000 </v>
   <v>       0.37500000       0.37500000       0.87500000 </v>
   <v>       0.87500000       0.37500000       0.87500000 </v>
   <v>       0.37500000       0.87500000       0.87500000 </v>
   <v>       0.87500000       0.87500000       0.87500000 </v>
   <v>       0.25000000       0.00000000       0.00000000 </v>
   <v>       0.75000000       0.00000000       0.00000000 </v>
   <v>       0.25000000       0.50000000       0.00000000 </v>
   <v>       0.75000000       0.50000000       0.00000000 </v>
   <v>       0.25000000       0.00000000       0.50000000 </v>
   <v>       0.75000000       0.00000000       0.50000000 </v>
   <v>       0.25000000       0.50000000       0.50000000 </v>
   <v>       0.75000000       0.50000000       0.50000000 </v>
   <v>       0.37500000       0.12500000       0.12500000 </v>
   <v>       0.87500000       0.12500000       0.12500000 </v>
   <v>       0.37500000       0.62500000       0.12500000 </v>
   <v>       0.87500000       0.62500000       0.12500000 </v>
   <v>       0.37500000       0.12500000       0.62500000 </v>
   <v>       0.87500000       0.12500000       0.62500000 </v>
   <v>       0.37500000       0.62500000       0.62500000 </v>
   <v>       0.87500000       0.62500000       0.62500000 </v>
   <v>       0.25000000       0.25000000       0.25000000 </v>
   <v>       0.75000000       0.25000000       0.25000000 </v>
   <v>       0.25000000       0.75000000       0.25000000 </v>
   <v>       0.75000000       0.75000000       0.25000000 </v>
   <v>       0.25000000       0.25000000       0.75000000 </v>
   <v>       0.75000000       0.25000000       0.75000000 </v>
   <v>       0.25000000       0.75000000       0.75000000 </v>
   <v>       0.75000000       0.75000000       0.75000000 </v>
  </varray>
 </structure>
 <calculation>
  <scstep>
   <time name="dav">   24.94   24.95</time>
   <time name="total">   25.06   25.09</time>
   <energy>
    <i name="alphaZ">    887.28622728 </i>
    <i name="ewald"> -11003.66685747 </i>
    <i name="hartreedc">   -588.88443761 </i>
    <i name="XCdc">    907.92789735 </i>
    <i name="pawpsdc">   2421.21235816 </i>
    <i name="pawaedc">  -2494.84305711 </i>
    <i name="eentropy">     -0.01114718 </i>
    <i name="bandstr">    955.42213248 </i>
    <i name="atom">   9416.14232778 </i>
    <i name="e_fr_energy">    500.58544368 </i>
    <i name="e_wo_entrp">    500.59659086 </i>
    <i name="e_0_energy">    500.59101727 </i>
   </energy>
  </scstep>
  <scstep>
   <time name="dav">   30.01   30.02</time>
   <time name="total">   30.02   30.02</time>
   <energy>
    <i name="e_fr_energy">   -558.03591737 </i>
    <i name="e_wo_entrp">   -558.03591737 </i>
    <i name="e_0_energy">   -558.03591737 </i>
   </energy>
  </scstep>
  <scstep>
   <time name="dav">   31.32   31.32</time>
   <time name="total">   31.33   31.33</time>
   <energy>
    <i name="e_fr_energy">   -599.19934599 </i>
    <i name="e_wo_entrp">   -599.19934599 </i>
    <i name="e_0_energy">   -599.19934599 </i>
   </energy>
  </scstep>
  <scstep>
   <time name="dav">   30.92   30.93</time>
   <time name="total">   30.93   30.93</time>
   <energy>
    <i name="e_fr_energy">   -599.66518909 </i>
    <i name="e_wo_entrp">   -599.66518909 </i>
    <i name="e_0_energy">   -599.66518909 </i>
   </energy>
  </scstep>
  <scstep>
   <time name="dav">   29.92   29.93</time>
   <time name="total">   30.65   30.66</time>
   <energy>
    <i name="e_fr_energy">   -599.67313559 </i>
    <i name="e_wo_entrp">   -599.67313559 </i>
    <i name="e_0_energy">   -599.67313559 </i>
   </energy>
  </scstep>
  <scstep>
   <time name="dav">   28.04   28.04</time>
   <time name="total">   28.88   28.88</time>
   <energy>
    <i name="e_fr_energy">   -586.08032903 </i>
    <i name="e_wo_entrp">   -586.08032903 </i>
    <i name="e_0_energy">   -586.08032903 </i>
   </energy>
  </scstep>
  <scstep>
   <time name="dav">   28.87   28.87</time>
   <time name="total">   29.69   29.69</time>
   <energy>
    <i name="e_fr_energy">   -581.48504891 </i>
    <i name="e_wo_entrp">   -581.48504891 </i>
    <i name="e_0_energy">   -581.48504891 </i>
   </energy>
  </scstep>
  <scstep>
   <time name="dav">   29.70   29.70</time>
   <time name="total">   30.52   30.53</time>
   <energy>
    <i name="e_fr_energy">   -581.54200400 </i>
    <i name="e_wo_entrp">   -581.54200400 </i>
    <i name="e_0_energy">   -581.54200400 </i>
   </energy>
  </scstep>
  <scstep>
   <time name="dav">   30.83   30.84</time>
   <time name="total">   31.66   31.66</time>
   <energy>
    <i name="e_fr_energy">   -581.54415605 </i>
    <i name="e_wo_entrp">   -581.54415605 </i>
    <i name="e_0_energy">   -581.54415605 </i>
   </energy>
  </scstep>
  <scstep>
   <time name="dav">   29.00   29.00</time>
   <time name="total">   29.83   29.83</time>
   <energy>
    <i name="e_fr_energy">   -581.54462297 </i>
    <i name="e_wo_entrp">   -581.54462297 </i>
    <i name="e_0_energy">   -581.54462297 </i>
   </energy>
  </scstep>
  <scstep>
   <time name="dav">   31.17   31.17</time>
   <time name="total">   32.00   32.00</time>
   <energy>
    <i name="e_fr_energy">   -581.54462730 </i>
    <i name="e_wo_entrp">   -581.54462730 </i>
    <i name="e_0_energy">   -581.54462730 </i>
   </energy>
  </scstep>
  <scstep>
   <time name="dav">   30.47   30.47</time>
   <time name="total">   31.30   31.31</time>
   <energy>
    <i name="e_fr_energy">   -581.54462745 </i>
    <i name="e_wo_entrp">   -581.54462745 </i>
    <i name="e_0_energy">   -581.54462745 </i>
   </energy>
  </scstep>
  <scstep>
   <time name="dav">   24.72   24.72</time>
   <time name="total">   25.56   25.56</time>
   <energy>
    <i name="e_fr_energy">   -581.54462756 </i>
    <i name="e_wo_entrp">   -581.54462756 </i>
    <i name="e_0_energy">   -581.54462756 </i>
   </energy>
  </scstep>
  <scstep>
   <time name="dav">   23.90   23.90</time>
   <time name="total">   24.74   24.74</time>
   <energy>
    <i name="e_fr_energy">   -581.54462757 </i>
    <i name="e_wo_entrp">   -581.54462757 </i>
    <i name="e_0_energy">   -581.54462757 </i>
   </energy>
  </scstep>
  <scstep>
   <time name="dav">   22.49   22.49</time>
   <time name="total">   22.59   22.59</time>
   <energy>
    <i name="alphaZ">    887.28622728 </i>
    <i name="ewald"> -11003.66685747 </i>
    <i name="hartreedc">   -859.98650374 </i>
    <i name="XCdc">    933.43420250 </i>
    <i name="pawpsdc">   4072.57729261 </i>
    <i name="pawaedc">  -4152.82765445 </i>
    <i name="eentropy">     -0.00000000 </i>
    <i name="bandstr">    125.49633791 </i>
    <i name="atom">   9416.14232778 </i>
    <i name="e_fr_energy">   -581.54462757 </i>
    <i name="e_wo_entrp">   -581.54462757 </i>
    <i name="e_0_energy">   -581.54462757 </i>
   </energy>
  </scstep>
  <structure>
   <crystal>
    <varray name="basis" >
     <v>       7.21854000       0.00000000       0.00000000 </v>
     <v>       0.00000000       7.21854000       0.00000000 </v>
     <v>       0.00000000       0.00000000       7.21854000 </v>
    </varray>
    <i name="volume">    376.13877178 </i>
    <varray name="rec_basis" >
     <v>       0.13853217       0.00000000       0.00000000 </v>
     <v>       0.00000000       0.13853217       0.00000000 </v>
     <v>       0.00000000       0.00000000       0.13853217 </v>
    </varray>
   </crystal>
   <varray name="positions" >
    <v>       0.12500000       0.37500000       0.12500000 </v>
    <v>       0.62500000       0.37500000       0.12500000 </v>
    <v>       0.12500000       0.87500000       0.12500000 </v>
    <v>       0.62500000       0.87500000       0.12500000 </v>
    <v>       0.12500000       0.37500000       0.62500000 </v>
    <v>       0.62500000       0.37500000       0.62500000 </v>
    <v>       0.12500000       0.87500000       0.62500000 </v>
    <v>       0.62500000       0.87500000       0.62500000 </v>
    <v>       0.00000000       0.00000000       0.25000000 </v>
    <v>       0.50000000       0.00000000       0.25000000 </v>
    <v>       0.00000000       0.50000000       0.25000000 </v>
    <v>       0.50000000       0.50000000       0.25000000 </v>
    <v>       0.00000000       0.00000000       0.75000000 </v>
    <v>       0.50000000       0.00000000       0.75000000 </v>
    <v>       0.00000000       0.50000000       0.75000000 </v>
    <v>       0.50000000       0.50000000       0.75000000 </v>
    <v>       0.12500000       0.12500000       0.37500000 </v>
    <v>       0.62500000       0.12500000       0.37500000 </v>
    <v>       0.12500000       0.62500000       0.37500000 </v>
    <v>       0.62500000       0.62500000       0.37500000 </v>
    <v>       0.12500000       0.12500000       0.87500000 </v>
    <v>       0.62500000       0.12500000       0.87500000 </v>
    <v>       0.12500000       0.62500000       0.87500000 </v>
    <v>       0.62500000       0.62500000       0.87500000 </v>
    <v>       0.00000000       0.25000000       0.00000000 </v>
    <v>       0.50000000       0.25000000       0.00000000 </v>
    <v>       0.00000000       0.75000000       0.00000000 </v>
    <v>       0.50000000       0.75000000       0.00000000 </v>
    <v>       0.00000000       0.25000000       0.50000000 </v>
    <v>       0.50000000       0.25000000       0.50000000 </v>
    <v>       0.00000000       0.75000000       0.50000000 </v>
    <v>       0.50000000       0.75000000       0.50000000 </v>
    <v>       0.37500000       0.37500000       0.37500000 </v>
    <v>       0.87500000       0.37500000       0.37500000 </v>
    <v>       0.37500000       0.87500000       0.37500000 </v>
    <v>       0.87500000       0.87500000       0.37500000 </v>
    <v>       0.37500000       0.37500000       0.87500000 </v>
    <v>       0.87500000       0.37500000       0.87500000 </v>
    <v>       0.37500000       0.87500000       0.87500000 </v>
    <v>       0.87500000       0.87500000       0.87500000 </v>
    <v>       0.25000000       0.00000000       0.00000000 </v>
    <v>       0.75000000       0.00000000       0.00000000 </v>
    <v>       0.25000000       0.50000000       0.00000000 </v>
    <v>       0.75000000       0.50000000       0.00000000 </v>
    <v>       0.25000000       0.00000000       0.50000000 </v>
    <v>       0.75000000       0.00000000       0.50000000 </v>
    <v>       0.25000000       0.50000000       0.50000000 </v>
    <v>       0.75000000       0.50000000       0.50000000 </v>
    <v>       0.37500000       0.12500000       0.12500000 </v>
    <v>       0.87500000       0.12500000       0.12500000 </v>
    <v>       0.37500000       0.62500000       0.12500000 </v>
    <v>       0.87500000       0.62500000       0.12500000 </v>
    <v>       0.37500000       0.12500000       0.62500000 </v>
    <v>       0.87500000       0.12500000       0.62500000 </v>
    <v>       0.37500000       0.62500000       0.62500000 </v>
    <v>       0.87500000       0.62500000       0.62500000 </v>
    <v>       0.25000000       0.25000000       0.25000000 </v>
    <v>       0.75000000       0.25000000       0.25000000 </v>
    <v>       0.25000000       0.75000000       0.25000000 </v>
    <v>       0.75000000       0.75000000       0.25000000 </v>
    <v>       0.25000000       0.25000000       0.75000000 </v>
    <v>       0.75000000       0.25000000       0.75000000 </v>
    <v>       0.25000000       0.75000000       0.75000000 </v>
    <v>       0.75000000       0.75000000       0.75000000 </v>
   </varray>
  </structure>
  <varray name="forces" >
   <v>       0.00000000      -0.00000000       0.00000000 </v>
   <v>       0.00000000       0.00000000       0.00000000 </v>
   <v>       0.00000000       0.00000000       0.00000000 </v>
   <v>       0.00000000      -0.00000000       0.00000000 </v>
   <v>       0.00000000       0.00000000       0.00000000 </v>
   <v>       0.00000000       0.00000000       0.00000000 </v>
   <v>       0.00000000      -0.00000000      -0.00000000 </v>
   <v>       0.00000000       0.00000000       0.00000000 </v>
   <v>      -0.00000000      -0.00000000      -0.00000000 </v>
   <v>      -0.00000000      -0.00000000      -0.00000000 </v>
   <v>      -0.00000000       0.00000000      -0.00000000 </v>
   <v>      -0.00000000      -0.00000000      -0.00000000 </v>
   <v>       0.00000000       0.00000000      -0.00000000 </v>
   <v>      -0.00000000      -0.00000000      -0.00000000 </v>
   <v>      -0.00000000      -0.00000000      -0.00000000 </v>
   <v>      -0.00000000      -0.00000000      -0.00000000 </v>
   <v>       0.00000000      -0.00000000       0.00000000 </v>
   <v>       0.00000000       0.00000000       0.00000000 </v>
   <v>       0.00000000      -0.00000000       0.00000000 </v>
   <v>       0.00000000       0.00000000       0.00000000 </v>
   <v>       0.00000000      -0.00000000       0.00000000 </v>
   <v>      -0.00000000       0.00000000       0.00000000 </v>
   <v>       0.00000000       0.00000000      -0.00000000 </v>
   <v>       0.00000000       0.00000000       0.00000000 </v>
   <v>      -0.00000000       0.00000000      -0.00000000 </v>
   <v>      -0.00000000      -0.00000000       0.00000000 </v>
   <v>      -0.00000000      -0.00000000      -0.00000000 </v>
   <v>      -0.00000000       0.00000000      -0.00000000 </v>
   <v>      -0.00000000      -0.00000000      -0.00000000 </v>
   <v>      -0.00000000      -0.00000000      -0.00000000 </v>
   <v>      -0.00000000       0.00000000      -0.00000000 </v>
   <v>      -0.00000000      -0.00000000      -0.00000000 </v>
   <v>       0.00000000      -0.00000000       0.00000000 </v>
   <v>       0.00000000       0.00000000       0.00000000 </v>
   <v>       0.00000000      -0.00000000       0.00000000 </v>
   <v>       0.00000000       0.00000000       0.00000000 </v>
   <v>       0.00000000       0.00000000       0.00000000 </v>
   <v>       0.00000000      -0.00000000       0.00000000 </v>
   <v>       0.00000000       0.00000000      -0.00000000 </v>
   <v>       0.00000000      -0.00000000       0.00000000 </v>
   <v>      -0.00000000      -0.00000000      -0.00000000 </v>
   <v>      -0.00000000       0.00000000      -0.00000000 </v>
   <v>      -0.00000000       0.00000000      -0.00000000 </v>
   <v>      -0.00000000      -0.00000000       0.00000000 </v>
   <v>      -0.00000000      -0.00000000      -0.00000000 </v>
   <v>      -0.00000000      -0.00000000      -0.00000000 </v>
   <v>      -0.00000000      -0.00000000      -0.00000000 </v>
   <v>      -0.00000000       0.00000000      -0.00000000 </v>
   <v>       0.00000000      -0.00000000       0.00000000 </v>
   <v>       0.00000000      -0.00000000       0.00000000 </v>
   <v>       0.00000000      -0.00000000       0.00000000 </v>
   <v>       0.00000000       0.00000000       0.00000000 </v>
   <v>       0.00000000       0.00000000      -0.00000000 </v>
   <v>       0.00000000       0.00000000       0.00000000 </v>
   <v>       0.00000000       0.00000000       0.00000000 </v>
   <v>       0.00000000       0.00000000       0.00000000 </v>
   <v>      -0.00000000       0.00000000      -0.00000000 </v>
   <v>      -0.00000000      -0.00000000      -0.00000000 </v>
   <v>      -0.00000000      -0.00000000      -0.00000000 </v>
   <v>      -0.00000000      -0.00000000      -0.00000000 </v>
   <v>      -0.00000000       0.00000000      -0.00000000 </v>
   <v>      -0.00000000      -0.00000000      -0.00000000 </v>
   <v>      -0.00000000      -0.00000000      -0.00000000 </v>
   <v>       0.00000000       0.00000000      -0.00000000 </v>
  </varray>
  <varray name="stress" >
   <v>    -165.13050791       0.00000000      -0.00000000 </v>
   <v>       0.00000000    -165.13050791      -0.00000000 </v>
   <v>       0.00000000       0.00000000    -165.13050791 </v>
  </varray>
  <energy>
   <i name="e_fr_energy">   -581.54462757 </i>
   <i name="e_wo_entrp">   -581.54462757 </i>
   <i name="e_0_energy">     -0.00000000 </i>
  </energy>
  <kpoints>
   <generation param="Gamma">
    <v type="int" name="divisions">       8        8        8 </v>
    <v name="usershift">      0.00000000       0.00000000       0.00000000 </v>
    <v name="genvec1">      0.12500000       0.00000000       0.00000000 </v>
    <v name="genvec2">      0.00000000       0.12500000       0.00000000 </v>
    <v name="genvec3">      0.00000000       0.00000000       0.12500000 </v>
    <v name="shift">      0.00000000       0.00000000       0.00000000 </v>
   </generation>
   <varray name="kpointlist" >
    <v>       0.00000000       0.00000000       0.00000000 </v>
    <v>       0.12500000       0.00000000       0.00000000 </v>
    <v>       0.25000000       0.00000000       0.00000000 </v>
    <v>       0.37500000       0.00000000       0.00000000 </v>
    <v>       0.50000000       0.00000000       0.00000000 </v>
    <v>       0.00000000       0.12500000       0.00000000 </v>
    <v>       0.12500000       0.12500000       0.00000000 </v>
    <v>       0.25000000       0.12500000       0.00000000 </v>
    <v>       0.37500000       0.12500000       0.00000000 </v>
    <v>       0.50000000       0.12500000       0.00000000 </v>
    <v>       0.00000000       0.25000000       0.00000000 </v>
    <v>       0.12500000       0.25000000       0.00000000 </v>
    <v>       0.25000000       0.25000000       0.00000000 </v>
    <v>       0.37500000       0.25000000       0.00000000 </v>
    <v>       0.50000000       0.25000000       0.00000000 </v>
    <v>       0.00000000       0.37500000       0.00000000 </v>
    <v>       0.12500000       0.37500000       0.00000000 </v>
    <v>       0.25000000       0.37500000       0.00000000 </v>
    <v>       0.37500000       0.37500000       0.00000000 </v>
    <v>       0.50000000       0.37500000       0.00000000 </v>
    <v>       0.00000000       0.50000000       0.00000000 </v>
    <v>       0.12500000       0.50000000       0.00000000 </v>
    <v>       0.25000000       0.50000000       0.00000000 </v>
    <v>       0.37500000       0.50000000       0.00000000 </v>
    <v>       0.50000000       0.50000000       0.00000000 </v>
    <v>       0.00000000       0.12500000       0.12500000 </v>
    <v>       0.12500000       0.12500000       0.12500000 </v>
    <v>       0.25000000       0.12500000       0.12500000 </v>
    <v>       0.37500000       0.12500000       0.12500000 </v>
    <v>       0.50000000       0.12500000       0.12500000 </v>
    <v>       0.00000000       0.25000000       0.12500000 </v>
    <v>       0.12500000       0.25000000       0.12500000 </v>
    <v>       0.25000000       0.25000000       0.12500000 </v>
    <v>       0.37500000       0.25000000       0.12500000 </v>
    <v>       0.50000000       0.25000000       0.12500000 </v>
    <v>       0.00000000       0.37500000       0.12500000 </v>
    <v>       0.12500000       0.37500000       0.12500000 </v>
    <v>       0.25000000       0.37500000       0.12500000 </v>
    <v>       0.37500000       0.37500000       0.12500000 </v>
    <v>       0.50000000       0.37500000       0.12500000 </v>
    <v>       0.00000000       0.50000000       0.12500000 </v>
    <v>       0.12500000       0.50000000       0.12500000 </v>
    <v>       0.25000000       0.50000000       0.12500000 </v>
    <v>       0.37500000       0.50000000       0.12500000 </v>
    <v>       0.50000000       0.50000000       0.12500000 </v>
    <v>       0.00000000      -0.37500000       0.12500000 </v>
    <v>       0.12500000      -0.37500000       0.12500000 </v>
    <v>       0.25000000      -0.37500000       0.12500000 </v>
    <v>       0.37500000      -0.37500000       0.12500000 </v>
    <v>       0.50000000      -0.37500000       0.12500000 </v>
    <v>       0.00000000      -0.25000000       0.12500000 </v>
    <v>       0.12500000      -0.25000000       0.12500000 </v>
    <v>       0.25000000      -0.25000000       0.12500000 </v>
    <v>       0.37500000      -0.25000000       0.12500000 </v>
    <v>       0.50000000      -0.25000000       0.12500000 </v>
    <v>       0.00000000      -0.12500000       0.12500000 </v>
    <v>       0.12500000      -0.12500000       0.12500000 </v>
    <v>       0.25000000      -0.12500000       0.12500000 </v>
    <v>       0.37500000      -0.12500000       0.12500000 </v>
    <v>       0.50000000      -0.12500000       0.12500000 </v>
    <v>       0.00000000       0.25000000       0.25000000 </v>
    <v>       0.12500000       0.25000000       0.25000000 </v>
    <v>       0.25000000       0.25000000       0.25000000 </v>
    <v>       0.37500000       0.25000000       0.25000000 </v>
    <v>       0.50000000       0.25000000       0.25000000 </v>
    <v>       0.00000000       0.37500000       0.25000000 </v>
    <v>       0.12500000       0.37500000       0.25000000 </v>
    <v>       0.25000000       0.37500000       0.25000000 </v>
    <v>       0.37500000       0.37500000       0.25000000 </v>
    <v>       0.50000000       0.37500000       0.25000000 </v>
    <v>       0.00000000       0.50000000       0.25000000 </v>
    <v>       0.12500000       0.50000000       0.25000000 </v>
    <v>       0.25000000       0.50000000       0.25000000 </v>
    <v>       0.37500000       0.50000000       0.25000000 </v>
    <v>       0.50000000       0.50000000       0.25000000 </v>
    <v>       0.00000000      -0.37500000       0.25000000 </v>
    <v>       0.12500000      -0.37500000       0.25000000 </v>
    <v>       0.25000000      -0.37500000       0.25000000 </v>
    <v>       0.37500000      -0.37500000       0.25000000 </v>
    <v>       0.50000000      -0.37500000       0.25000000 </v>
    <v>       0.00000000      -0.25000000       0.25000000 </v>
    <v>       0.12500000      -0.25000000       0.25000000 </v>
    <v>       0.25000000      -0.25000000       0.25000000 </v>
    <v>       0.37500000      -0.25000000       0.25000000 </v>
    <v>       0.50000000      -0.25000000       0.25000000 </v>
    <v>       0.00000000       0.37500000       0.37500000 </v>
    <v>       0.12500000       0.37500000       0.37500000 </v>
    <v>       0.25000000       0.37500000       0.37500000 </v>
    <v>       0.37500000       0.37500000       0.37500000 </v>
    <v>       0.50000000       0.37500000       0.37500000 </v>
    <v>       0.00000000       0.50000000       0.37500000 </v>
    <v>       0.12500000       0.50000000       0.37500000 </v>
    <v>       0.25000000       0.50000000       0.37500000 </v>
    <v>       0.37500000       0.50000000       0.37500000 </v>
    <v>       0.50000000       0.50000000       0.37500000 </v>
    <v>       0.00000000      -0.37500000       0.37500000 </v>
    <v>       0.12500000      -0.37500000       0.37500000 </v>
    <v>       0.25000000      -0.37500000       0.37500000 </v>
    <v>       0.37500000      -0.37500000       0.37500000 </v>
    <v>       0.50000000      -0.37500000       0.37500000 </v>
    <v>       0.00000000       0.50000000       0.50000000 </v>
    <v>       0.12500000       0.50000000       0.50000000 </v>
    <v>       0.25000000       0.50000000       0.50000000 </v>
    <v>       0.37500000       0.50000000       0.50000000 </v>
    <v>       0.50000000       0.50000000       0.50000000 </v>
   </varray>
   <varray name="weights" >
    <v>       0.00195312 </v>
    <v>       0.00390625 </v>
    <v>       0.00390625 </v>
    <v>       0.00390625 </v>
    <v>       0.00195312 </v>
    <v>       0.00781250 </v>
    <v>       0.01562500 </v>
    <v>       0.01562500 </v>
    <v>       0.01562500 </v>
    <v>       0.00781250 </v>
    <v>       0.00781250 </v>
    <v>       0.01562500 </v>
    <v>       0.01562500 </v>
    <v>       0.01562500 </v>
    <v>       0.00781250 </v>
    <v>       0.00781250 </v>
    <v>       0.01562500 </v>
    <v>       0.01562500 </v>
    <v>       0.01562500 </v>
    <v>       0.00781250 </v>
    <v>       0.00390625 </v>
    <v>       0.00781250 </v>
    <v>       0.00781250 </v>
    <v>       0.00781250 </v>
    <v>       0.00390625 </v>
    <v>       0.00390625 </v>
    <v>       0.00781250 </v>
    <v>       0.00781250 </v>
    <v>       0.00781250 </v>
    <v>       0.00390625 </v>
    <v>       0.00781250 </v>
    <v>       0.01562500 </v>
    <v>       0.01562500 </v>
    <v>       0.01562500 </v>
    <v>       0.00781250 </v>
    <v>       0.00781250 </v>
    <v>       0.01562500 </v>
    <v>       0.01562500 </v>
    <v>       0.01562500 </v>
    <v>       0.00781250 </v>
    <v>       0.00781250 </v>
    <v>       0.01562500 </v>
    <v>       0.01562500 </v>
    <v>       0.01562500 </v>
    <v>       0.00781250 </v>
    <v>       0.00781250 </v>
    <v>       0.01562500 </v>
    <v>       0.01562500 </v>
    <v>       0.01562500 </v>
    <v>       0.00781250 </v>
    <v>       0.00781250 </v>
    <v>       0.01562500 </v>
    <v>       0.01562500 </v>
    <v>       0.01562500 </v>
    <v>       0.00781250 </v>
    <v>       0.00390625 </v>
    <v>       0.00781250 </v>
    <v>       0.00781250 </v>
    <v>       0.00781250 </v>
    <v>       0.00390625 </v>
    <v>       0.00390625 </v>
    <v>       0.00781250 </v>
    <v>       0.00781250 </v>
    <v>       0.00781250 </v>
    <v>       0.00390625 </v>
    <v>       0.00781250 </v>
    <v>       0.01562500 </v>
    <v>       0.01562500 </v>
    <v>       0.01562500 </v>
    <v>       0.00781250 </v>
    <v>       0.00781250 </v>
    <v>       0.01562500 </v>
    <v>       0.01562500 </v>
    <v>       0.01562500 </v>
    <v>       0.00781250 </v>
    <v>       0.00781250 </v>
    <v>       0.01562500 </v>
    <v>       0.01562500 </v>
    <v>       0.01562500 </v>
    <v>       0.00781250 </v>
    <v>       0.00390625 </v>
    <v>       0.00781250 </v>
    <v>       0.00781250 </v>
    <v>       0.00781250 </v>
    <v>       0.00390625 </v>
    <v>       0.00390625 </v>
    <v>       0.00781250 </v>
    <v>       0.00781250 </v>
    <v>       0.00781250 </v>
    <v>       0.00390625 </v>
    <v>       0.00781250 </v>
    <v>       0.01562500 </v>
    <v>       0.01562500 </v>
    <v>       0.01562500 </v>
    <v>       0.00781250 </v>
    <v>       0.00390625 </v>
    <v>       0.00781250 </v>
    <v>       0.00781250 </v>
    <v>       0.00781250 </v>
    <v>       0.00390625 </v>
    <v>       0.00195312 </v>
    <v>       0.00390625 </v>
    <v>       0.00390625 </v>
    <v>       0.00390625 </v>
    <v>       0.00195312 </v>
   </varray>
  </kpoints>
  <scstep>
   <time name="total">   91.15   91.16</time>
   <energy>
    <i name="e_fr_energy">   -359.08023144 </i>
    <i name="e_wo_entrp">   -359.08023144 </i>
    <i name="e_0_energy">   -359.08023144 </i>
   </energy>
  </scstep>
  <scstep>
   <time name="total">   68.28   68.29</time>
   <energy>
    <i name="e_fr_energy">   -306.97032650 </i>
    <i name="e_wo_entrp">   -306.97032650 </i>
    <i name="e_0_energy">   -306.97032650 </i>
   </energy>
  </scstep>
  <scstep>
   <time name="total">   68.58   68.58</time>
   <energy>
    <i name="e_fr_energy">   -306.66034025 </i>
    <i name="e_wo_entrp">   -306.66034025 </i>
    <i name="e_0_energy">   -306.66034025 </i>
   </energy>
  </scstep>
  <scstep>
   <time name="total">   69.13   69.14</time>
   <energy>
    <i name="e_fr_energy">   -307.26662667 </i>
    <i name="e_wo_entrp">   -307.26662667 </i>
    <i name="e_0_energy">   -307.26662667 </i>
   </energy>
  </scstep>
  <scstep>
   <time name="total">   70.41   70.42</time>
   <energy>
    <i name="e_fr_energy">   -307.45754301 </i>
    <i name="e_wo_entrp">   -307.45754301 </i>
    <i name="e_0_energy">   -307.45754301 </i>
   </energy>
  </scstep>
  <scstep>
   <time name="total">   71.94   71.95</time>
   <energy>
    <i name="e_fr_energy">   -307.41506541 </i>
    <i name="e_wo_entrp">   -307.41506541 </i>
    <i name="e_0_energy">   -307.41506541 </i>
   </energy>
  </scstep>
  <scstep>
   <time name="total">   70.71   70.71</time>
   <energy>
    <i name="e_fr_energy">   -307.39355089 </i>
    <i name="e_wo_entrp">   -307.39355089 </i>
    <i name="e_0_energy">   -307.39355089 </i>
   </energy>
  </scstep>
  <scstep>
   <time name="total">   72.67   72.68</time>
   <energy>
    <i name="e_fr_energy">   -307.39233607 </i>
    <i name="e_wo_entrp">   -307.39233607 </i>
    <i name="e_0_energy">   -307.39233607 </i>
   </energy>
  </scstep>
  <scstep>
   <time name="total">   73.30   73.31</time>
   <energy>
    <i name="e_fr_energy">   -307.39175486 </i>
    <i name="e_wo_entrp">   -307.39175486 </i>
    <i name="e_0_energy">   -307.39175486 </i>
   </energy>
  </scstep>
  <scstep>
   <time name="total">   75.09   75.09</time>
   <energy>
    <i name="e_fr_energy">   -307.39195639 </i>
    <i name="e_wo_entrp">   -307.39195639 </i>
    <i name="e_0_energy">   -307.39195639 </i>
   </energy>
  </scstep>
  <scstep>
   <time name="total">   74.01   74.01</time>
   <energy>
    <i name="e_fr_energy">   -307.39195532 </i>
    <i name="e_wo_entrp">   -307.39195532 </i>
    <i name="e_0_energy">   -307.39195532 </i>
   </energy>
  </scstep>
  <kpoints>
   <generation param="Gamma">
    <v type="int" name="divisions">       8        8        8 </v>
    <v name="usershift">      0.00000000       0.00000000       0.00000000 </v>
    <v name="genvec1">      0.12500000       0.00000000       0.00000000 </v>
    <v name="genvec2">      0.00000000       0.12500000       0.00000000 </v>
    <v name="genvec3">      0.00000000       0.00000000       0.12500000 </v>
    <v name="shift">      0.00000000       0.00000000       0.00000000 </v>
   </generation>
   <varray name="kpointlist" >
    <v>       0.00000000       0.00000000       0.00000000 </v>
    <v>       0.12500000       0.00000000       0.00000000 </v>
    <v>       0.25000000       0.00000000       0.00000000 </v>
    <v>       0.37500000       0.00000000       0.00000000 </v>
    <v>       0.50000000       0.00000000       0.00000000 </v>
    <v>       0.12500000       0.12500000       0.00000000 </v>
    <v>       0.25000000       0.12500000       0.00000000 </v>
    <v>       0.37500000       0.12500000       0.00000000 </v>
    <v>       0.50000000       0.12500000       0.00000000 </v>
    <v>       0.25000000       0.25000000       0.00000000 </v>
    <v>       0.37500000       0.25000000       0.00000000 </v>
    <v>       0.50000000       0.25000000       0.00000000 </v>
    <v>       0.37500000       0.37500000       0.00000000 </v>
    <v>       0.50000000       0.37500000       0.00000000 </v>
    <v>       0.50000000       0.50000000       0.00000000 </v>
    <v>       0.12500000       0.12500000       0.12500000 </v>
    <v>       0.25000000       0.12500000       0.12500000 </v>
    <v>       0.37500000       0.12500000       0.12500000 </v>
    <v>       0.50000000       0.12500000       0.12500000 </v>
    <v>       0.25000000       0.25000000       0.12500000 </v>
    <v>       0.37500000       0.25000000       0.12500000 </v>
    <v>       0.50000000       0.25000000       0.12500000 </v>
    <v>       0.37500000       0.37500000       0.12500000 </v>
    <v>       0.50000000       0.37500000       0.12500000 </v>
    <v>       0.50000000       0.50000000       0.12500000 </v>
    <v>       0.25000000       0.25000000       0.25000000 </v>
    <v>       0.37500000       0.25000000       0.25000000 </v>
    <v>       0.50000000       0.25000000       0.25000000 </v>
    <v>       0.37500000       0.37500000       0.25000000 </v>
    <v>       0.50000000       0.37500000       0.25000000 </v>
    <v>       0.50000000       0.50000000       0.25000000 </v>
    <v>       0.37500000       0.37500000       0.37500000 </v>
    <v>       0.50000000       0.37500000       0.37500000 </v>
    <v>       0.50000000       0.50000000       0.37500000 </v>
    <v>       0.50000000       0.50000000       0.50000000 </v>
   </varray>
   <varray name="weights" >
    <v>       0.00195312 </v>
    <v>       0.01171875 </v>
    <v>       0.01171875 </v>
    <v>       0.01171875 </v>
    <v>       0.00585938 </v>
    <v>       0.02343750 </v>
    <v>       0.04687500 </v>
    <v>       0.04687500 </v>
    <v>       0.02343750 </v>
    <v>       0.02343750 </v>
    <v>       0.04687500 </v>
    <v>       0.02343750 </v>
    <v>       0.02343750 </v>
    <v>       0.02343750 </v>
    <v>       0.00585938 </v>
    <v>       0.01562500 </v>
    <v>       0.04687500 </v>
    <v>       0.04687500 </v>
    <v>       0.02343750 </v>
    <v>       0.04687500 </v>
    <v>       0.09375000 </v>
    <v>       0.04687500 </v>
    <v>       0.04687500 </v>
    <v>       0.04687500 </v>
    <v>       0.01171875 </v>
    <v>       0.01562500 </v>
    <v>       0.04687500 </v>
    <v>       0.02343750 </v>
    <v>       0.04687500 </v>
    <v>       0.04687500 </v>
    <v>       0.01171875 </v>
    <v>       0.01562500 </v>
    <v>       0.02343750 </v>
    <v>       0.01171875 </v>
    <v>       0.00195312 </v>
   </varray>
  </kpoints>
  <dynmat>
   <varray name="hessian" >
    <v>      -3.44287402      -0.00000000      -0.00000000       0.01300203       0.00000000       0.00000000       0.00768658       0.00000000      -0.00000000       0.00906657      -0.00000000      -0.00000000       0.00768658      -0.00000000       0.00000000       0.00906657      -0.00000000      -0.00000000      -0.04702530      -0.00000000       0.00000000       0.00420178      -0.00000000      -0.00000000      -0.01277138      -0.00769442       0.00167057       0.00648115      -0.00813873      -0.01723441       0.71416836      -0.13492319      -0.13492319      -0.00542642      -0.00769442      -0.00769442       0.02833837      -0.01723441      -0.01723441      -0.00273899      -0.00258623      -0.00258623      -0.01277138       0.00167057      -0.00769442       0.00648115      -0.01723441      -0.00813873      -0.11246652       0.05716058      -0.05716058      -0.00446777       0.00302028      -0.00302028      -0.11246652       0.05716058       0.05716058      -0.00446777       0.00302028       0.00302028      -0.11246652      -0.05716058      -0.05716058      -0.00446777      -0.00302028      -0.00302028      -0.11246652      -0.05716058       0.05716058      -0.00446777      -0.00302028       0.00302028       0.71416836       0.13492319       0.13492319      -0.00542642       0.00769442       0.00769442      -0.01277138       0.00769442      -0.00167057       0.00648115       0.00813873       0.01723441      -0.01277138      -0.00167057       0.00769442       0.00648115       0.01723441       0.00813873       0.02833837       0.01723441       0.01723441      -0.00273899       0.00258623       0.00258623       0.12073345      -0.05716058       0.12526280       0.12073345      -0.05716058      -0.12526280       0.00675192      -0.00302028      -0.00634069       0.00675192      -0.00302028       0.00634069       0.12073345       0.05716058      -0.12526280       0.12073345       0.05716058       0.12526280       0.00675192       0.00302028       0.00634069       0.00675192       0.00302028      -0.00634069      -0.01277138       0.00769442       0.00167057       0.00648115       0.00813873      -0.01723441       0.71416836       0.13492319      -0.13492319      -0.00542642       0.00769442      -0.00769442       0.02833837       0.01723441      -0.01723441      -0.00273899       0.00258623      -0.00258623      -0.01277138      -0.00167057      -0.00769442       0.00648115       0.01723441      -0.00813873       0.12073345      -0.12526280       0.05716058       0.12073345       0.12526280       0.05716058       0.12073345       0.12526280      -0.05716058       0.12073345      -0.12526280      -0.05716058       0.00675192       0.00634069       0.00302028       0.00675192      -0.00634069       0.00302028       0.00675192      -0.00634069      -0.00302028       0.00675192       0.00634069      -0.00302028       0.71416836      -0.13492319       0.13492319      -0.00542642      -0.00769442       0.00769442      -0.01277138      -0.00769442      -0.00167057       0.00648115      -0.00813873       0.01723441      -0.01277138       0.00167057       0.00769442       0.00648115      -0.01723441       0.00813873       0.02833837      -0.01723441       0.01723441      -0.00273899      -0.00258623       0.00258623 </v>
    <v>      -0.00000000      -3.44287402      -0.00000000       0.00000000       0.00768658      -0.00000000       0.00000000       0.01300203       0.00000000      -0.00000000       0.00906657      -0.00000000      -0.00000000       0.00768658       0.00000000      -0.00000000      -0.04702530       0.00000000      -0.00000000       0.00906657      -0.00000000      -0.00000000       0.00420178      -0.00000000      -0.00769442      -0.00542642       0.00769442      -0.00813873       0.00648115       0.01723441      -0.13492319       0.71416836       0.13492319      -0.00769442      -0.01277138      -0.00167057      -0.01723441       0.00648115       0.00813873      -0.00258623      -0.00273899       0.00258623       0.00167057      -0.01277138       0.00769442      -0.01723441       0.02833837       0.01723441      -0.05716058       0.12073345      -0.12526280      -0.00302028       0.00675192       0.00634069      -0.05716058       0.12073345       0.12526280      -0.00302028       0.00675192      -0.00634069       0.05716058       0.12073345       0.12526280       0.00302028       0.00675192      -0.00634069       0.05716058       0.12073345      -0.12526280       0.00302028       0.00675192       0.00634069       0.13492319       0.71416836       0.13492319       0.00769442      -0.01277138      -0.00167057       0.00769442      -0.00542642       0.00769442       0.00813873       0.00648115       0.01723441      -0.00167057      -0.01277138       0.00769442       0.01723441       0.02833837       0.01723441       0.01723441       0.00648115       0.00813873       0.00258623      -0.00273899       0.00258623       0.05716058      -0.11246652       0.05716058       0.05716058      -0.11246652      -0.05716058       0.00302028      -0.00446777       0.00302028       0.00302028      -0.00446777      -0.00302028      -0.05716058      -0.11246652       0.05716058      -0.05716058      -0.11246652      -0.05716058      -0.00302028      -0.00446777       0.00302028      -0.00302028      -0.00446777      -0.00302028       0.00769442      -0.00542642      -0.00769442       0.00813873       0.00648115      -0.01723441       0.13492319       0.71416836      -0.13492319       0.00769442      -0.01277138       0.00167057       0.01723441       0.00648115      -0.00813873       0.00258623      -0.00273899      -0.00258623      -0.00167057      -0.01277138      -0.00769442       0.01723441       0.02833837      -0.01723441      -0.12526280       0.12073345      -0.05716058       0.12526280       0.12073345       0.05716058       0.12526280       0.12073345      -0.05716058      -0.12526280       0.12073345       0.05716058       0.00634069       0.00675192      -0.00302028      -0.00634069       0.00675192       0.00302028      -0.00634069       0.00675192      -0.00302028       0.00634069       0.00675192       0.00302028      -0.13492319       0.71416836      -0.13492319      -0.00769442      -0.01277138       0.00167057      -0.00769442      -0.00542642      -0.00769442      -0.00813873       0.00648115      -0.01723441       0.00167057      -0.01277138      -0.00769442      -0.01723441       0.02833837      -0.01723441      -0.01723441       0.00648115      -0.00813873      -0.00258623      -0.00273899      -0.00258623 </v>
    <v>      -0.00000000      -0.00000000      -3.44287402       0.00000000      -0.00000000       0.00768658      -0.00000000       0.00000000       0.00768658      -0.00000000      -0.00000000      -0.04702530       0.00000000       0.00000000       0.01300203      -0.00000000       0.00000000       0.00906657       0.00000000      -0.00000000       0.00906657      -0.00000000      -0.00000000       0.00420178       0.00167057       0.00769442      -0.01277138      -0.01723441       0.01723441       0.02833837      -0.13492319       0.13492319       0.71416836      -0.00769442      -0.00167057      -0.01277138      -0.01723441       0.00813873       0.00648115      -0.00258623       0.00258623      -0.00273899      -0.00769442       0.00769442      -0.00542642      -0.00813873       0.01723441       0.00648115       0.05716058      -0.12526280       0.12073345       0.00302028       0.00634069       0.00675192      -0.05716058       0.12526280       0.12073345      -0.00302028      -0.00634069       0.00675192       0.05716058       0.12526280       0.12073345       0.00302028      -0.00634069       0.00675192      -0.05716058      -0.12526280       0.12073345      -0.00302028       0.00634069       0.00675192       0.13492319       0.13492319       0.71416836       0.00769442      -0.00167057      -0.01277138      -0.00167057       0.00769442      -0.01277138       0.01723441       0.01723441       0.02833837       0.00769442       0.00769442      -0.00542642       0.00813873       0.01723441       0.00648115       0.01723441       0.00813873       0.00648115       0.00258623       0.00258623      -0.00273899       0.12526280      -0.05716058       0.12073345      -0.12526280       0.05716058       0.12073345      -0.00634069      -0.00302028       0.00675192       0.00634069       0.00302028       0.00675192      -0.12526280      -0.05716058       0.12073345       0.12526280       0.05716058       0.12073345       0.00634069      -0.00302028       0.00675192      -0.00634069       0.00302028       0.00675192       0.00167057      -0.00769442      -0.01277138      -0.01723441      -0.01723441       0.02833837      -0.13492319      -0.13492319       0.71416836      -0.00769442       0.00167057      -0.01277138      -0.01723441      -0.00813873       0.00648115      -0.00258623      -0.00258623      -0.00273899      -0.00769442      -0.00769442      -0.00542642      -0.00813873      -0.01723441       0.00648115      -0.05716058       0.05716058      -0.11246652      -0.05716058      -0.05716058      -0.11246652       0.05716058       0.05716058      -0.11246652       0.05716058      -0.05716058      -0.11246652      -0.00302028       0.00302028      -0.00446777      -0.00302028      -0.00302028      -0.00446777       0.00302028       0.00302028      -0.00446777       0.00302028      -0.00302028      -0.00446777       0.13492319      -0.13492319       0.71416836       0.00769442       0.00167057      -0.01277138      -0.00167057      -0.00769442      -0.01277138       0.01723441      -0.01723441       0.02833837       0.00769442      -0.00769442      -0.00542642       0.00813873      -0.01723441       0.00648115       0.01723441      -0.00813873       0.00648115       0.00258623      -0.00258623      -0.00273899 </v>
    <v>       0.01300203       0.00000000       0.00000000      -3.44287402      -0.00000000      -0.00000000       0.00906657      -0.00000000      -0.00000000       0.00768658       0.00000000      -0.00000000       0.00906657      -0.00000000      -0.00000000       0.00768658      -0.00000000       0.00000000       0.00420178      -0.00000000      -0.00000000      -0.04702530      -0.00000000       0.00000000       0.00648115      -0.00813873      -0.01723441      -0.01277138      -0.00769442       0.00167057      -0.00542642      -0.00769442      -0.00769442       0.71416836      -0.13492319      -0.13492319      -0.00273899      -0.00258623      -0.00258623       0.02833837      -0.01723441      -0.01723441       0.00648115      -0.01723441      -0.00813873      -0.01277138       0.00167057      -0.00769442      -0.00446777       0.00302028      -0.00302028      -0.11246652       0.05716058      -0.05716058      -0.00446777       0.00302028       0.00302028      -0.11246652       0.05716058       0.05716058      -0.00446777      -0.00302028      -0.00302028      -0.11246652      -0.05716058      -0.05716058      -0.00446777      -0.00302028       0.00302028      -0.11246652      -0.05716058       0.05716058      -0.00542642       0.00769442       0.00769442       0.71416836       0.13492319       0.13492319       0.00648115       0.00813873       0.01723441      -0.01277138       0.00769442      -0.00167057       0.00648115       0.01723441       0.00813873      -0.01277138      -0.00167057       0.00769442      -0.00273899       0.00258623       0.00258623       0.02833837       0.01723441       0.01723441       0.12073345      -0.05716058      -0.12526280       0.12073345      -0.05716058       0.12526280       0.00675192      -0.00302028       0.00634069       0.00675192      -0.00302028      -0.00634069       0.12073345       0.05716058       0.12526280       0.12073345       0.05716058      -0.12526280       0.00675192       0.00302028      -0.00634069       0.00675192       0.00302028       0.00634069       0.00648115       0.00813873      -0.01723441      -0.01277138       0.00769442       0.00167057      -0.00542642       0.00769442      -0.00769442       0.71416836       0.13492319      -0.13492319      -0.00273899       0.00258623      -0.00258623       0.02833837       0.01723441      -0.01723441       0.00648115       0.01723441      -0.00813873      -0.01277138      -0.00167057      -0.00769442       0.12073345       0.12526280       0.05716058       0.12073345      -0.12526280       0.05716058       0.12073345      -0.12526280      -0.05716058       0.12073345       0.12526280      -0.05716058       0.00675192      -0.00634069       0.00302028       0.00675192       0.00634069       0.00302028       0.00675192       0.00634069      -0.00302028       0.00675192      -0.00634069      -0.00302028      -0.00542642      -0.00769442       0.00769442       0.71416836      -0.13492319       0.13492319       0.00648115      -0.00813873       0.01723441      -0.01277138      -0.00769442      -0.00167057       0.00648115      -0.01723441       0.00813873      -0.01277138       0.00167057       0.00769442      -0.00273899      -0.00258623       0.00258623       0.02833837      -0.01723441       0.01723441 </v>
    <v>       0.00000000       0.00768658      -0.00000000      -0.00000000      -3.44287402      -0.00000000      -0.00000000       0.00906657      -0.00000000       0.00000000       0.01300203       0.00000000      -0.00000000      -0.04702530       0.00000000      -0.00000000       0.00768658       0.00000000      -0.00000000       0.00420178      -0.00000000      -0.00000000       0.00906657      -0.00000000      -0.00813873       0.00648115       0.01723441      -0.00769442      -0.00542642       0.00769442      -0.00769442      -0.01277138      -0.00167057      -0.13492319       0.71416836       0.13492319      -0.00258623      -0.00273899       0.00258623      -0.01723441       0.00648115       0.00813873      -0.01723441       0.02833837       0.01723441       0.00167057      -0.01277138       0.00769442      -0.00302028       0.00675192       0.00634069      -0.05716058       0.12073345      -0.12526280      -0.00302028       0.00675192      -0.00634069      -0.05716058       0.12073345       0.12526280       0.00302028       0.00675192      -0.00634069       0.05716058       0.12073345       0.12526280       0.00302028       0.00675192       0.00634069       0.05716058       0.12073345      -0.12526280       0.00769442      -0.01277138      -0.00167057       0.13492319       0.71416836       0.13492319       0.00813873       0.00648115       0.01723441       0.00769442      -0.00542642       0.00769442       0.01723441       0.02833837       0.01723441      -0.00167057      -0.01277138       0.00769442       0.00258623      -0.00273899       0.00258623       0.01723441       0.00648115       0.00813873       0.05716058      -0.11246652      -0.05716058       0.05716058      -0.11246652       0.05716058       0.00302028      -0.00446777      -0.00302028       0.00302028      -0.00446777       0.00302028      -0.05716058      -0.11246652      -0.05716058      -0.05716058      -0.11246652       0.05716058      -0.00302028      -0.00446777      -0.00302028      -0.00302028      -0.00446777       0.00302028       0.00813873       0.00648115      -0.01723441       0.00769442      -0.00542642      -0.00769442       0.00769442      -0.01277138       0.00167057       0.13492319       0.71416836      -0.13492319       0.00258623      -0.00273899      -0.00258623       0.01723441       0.00648115      -0.00813873       0.01723441       0.02833837      -0.01723441      -0.00167057      -0.01277138      -0.00769442       0.12526280       0.12073345       0.05716058      -0.12526280       0.12073345      -0.05716058      -0.12526280       0.12073345       0.05716058       0.12526280       0.12073345      -0.05716058      -0.00634069       0.00675192       0.00302028       0.00634069       0.00675192      -0.00302028       0.00634069       0.00675192       0.00302028      -0.00634069       0.00675192      -0.00302028      -0.00769442      -0.01277138       0.00167057      -0.13492319       0.71416836      -0.13492319      -0.00813873       0.00648115      -0.01723441      -0.00769442      -0.00542642      -0.00769442      -0.01723441       0.02833837      -0.01723441       0.00167057      -0.01277138      -0.00769442      -0.00258623      -0.00273899      -0.00258623      -0.01723441       0.00648115      -0.00813873 </v>
    <v>       0.00000000      -0.00000000       0.00768658      -0.00000000      -0.00000000      -3.44287402      -0.00000000      -0.00000000      -0.04702530      -0.00000000       0.00000000       0.00768658      -0.00000000       0.00000000       0.00906657       0.00000000       0.00000000       0.01300203      -0.00000000      -0.00000000       0.00420178       0.00000000      -0.00000000       0.00906657      -0.01723441       0.01723441       0.02833837       0.00167057       0.00769442      -0.01277138      -0.00769442      -0.00167057      -0.01277138      -0.13492319       0.13492319       0.71416836      -0.00258623       0.00258623      -0.00273899      -0.01723441       0.00813873       0.00648115      -0.00813873       0.01723441       0.00648115      -0.00769442       0.00769442      -0.00542642       0.00302028       0.00634069       0.00675192       0.05716058      -0.12526280       0.12073345      -0.00302028      -0.00634069       0.00675192      -0.05716058       0.12526280       0.12073345       0.00302028      -0.00634069       0.00675192       0.05716058       0.12526280       0.12073345      -0.00302028       0.00634069       0.00675192      -0.05716058      -0.12526280       0.12073345       0.00769442      -0.00167057      -0.01277138       0.13492319       0.13492319       0.71416836       0.01723441       0.01723441       0.02833837      -0.00167057       0.00769442      -0.01277138       0.00813873       0.01723441       0.00648115       0.00769442       0.00769442      -0.00542642       0.00258623       0.00258623      -0.00273899       0.01723441       0.00813873       0.00648115      -0.12526280       0.05716058       0.12073345       0.12526280      -0.05716058       0.12073345       0.00634069       0.00302028       0.00675192      -0.00634069      -0.00302028       0.00675192       0.12526280       0.05716058       0.12073345      -0.12526280      -0.05716058       0.12073345      -0.00634069       0.00302028       0.00675192       0.00634069      -0.00302028       0.00675192      -0.01723441      -0.01723441       0.02833837       0.00167057      -0.00769442      -0.01277138      -0.00769442       0.00167057      -0.01277138      -0.13492319      -0.13492319       0.71416836      -0.00258623      -0.00258623      -0.00273899      -0.01723441      -0.00813873       0.00648115      -0.00813873      -0.01723441       0.00648115      -0.00769442      -0.00769442      -0.00542642      -0.05716058      -0.05716058      -0.11246652      -0.05716058       0.05716058      -0.11246652       0.05716058      -0.05716058      -0.11246652       0.05716058       0.05716058      -0.11246652      -0.00302028      -0.00302028      -0.00446777      -0.00302028       0.00302028      -0.00446777       0.00302028      -0.00302028      -0.00446777       0.00302028       0.00302028      -0.00446777       0.00769442       0.00167057      -0.01277138       0.13492319      -0.13492319       0.71416836       0.01723441      -0.01723441       0.02833837      -0.00167057      -0.00769442      -0.01277138       0.00813873      -0.01723441       0.00648115       0.00769442      -0.00769442      -0.00542642       0.00258623      -0.00258623      -0.00273899       0.01723441      -0.00813873       0.00648115 </v>
[...]
      </set>
     </set>
    </set>
   </array>
  </eigenvalues>
  <separator name="orbital magnetization" >
   <v name="MAGDIPOLOUT">      0.00000000      0.00000000      0.00000000</v>
  </separator>
  <dos>
   <i name="efermi">      9.57110258 </i>
   <total>
    <array>
     <dimension dim="1">gridpoints</dimension>
     <dimension dim="2">spin</dimension>
     <field>energy</field>
     <field>total</field>
     <field>integrated</field>
     <set>
      <set comment="spin 1">
       <r>   -13.3888     0.0000     0.0000 </r>
       <r>   -13.2692     0.0000     0.0000 </r>
       <r>   -13.1497     0.0000     0.0000 </r>
       <r>   -13.0301     0.0000     0.0000 </r>
       <r>   -12.9106     0.0000     0.0000 </r>
       <r>   -12.7910     0.0000     0.0000 </r>
       <r>   -12.6715     0.0000     0.0000 </r>
       <r>   -12.5520     0.0000     0.0000 </r>
       <r>   -12.4324     0.0000     0.0000 </r>
       <r>   -12.3129     0.0000     0.0000 </r>
       <r>   -12.1933     0.0000     0.0000 </r>
       <r>   -12.0738     0.0000     0.0000 </r>
       <r>   -11.9542     0.0000     0.0000 </r>
       <r>   -11.8347     0.0022     0.0003 </r>
       <r>   -11.7151     0.2633     0.0317 </r>
       <r>   -11.5956     1.1255     0.1663 </r>
       <r>   -11.4761     1.6703     0.3660 </r>
       <r>   -11.3565     2.3216     0.6435 </r>
       <r>   -11.2370     2.4890     0.9410 </r>
       <r>   -11.1174     2.8427     1.2809 </r>
       <r>   -10.9979     3.3825     1.6852 </r>
       <r>   -10.8783     2.7475     2.0137 </r>
       <r>   -10.7588     4.2503     2.5218 </r>
       <r>   -10.6393     3.5573     2.9470 </r>
       <r>   -10.5197     4.2270     3.4523 </r>
       <r>   -10.4002     4.1337     3.9465 </r>
       <r>   -10.2806     5.0994     4.5561 </r>
       <r>   -10.1611     4.6745     5.1149 </r>
       <r>   -10.0415     3.6751     5.5542 </r>
       <r>    -9.9220     6.0448     6.2768 </r>
       <r>    -9.8024     5.7106     6.9595 </r>
       <r>    -9.6829     4.6921     7.5204 </r>
       <r>    -9.5634     5.4929     8.1771 </r>
       <r>    -9.4438     6.2124     8.9197 </r>
       <r>    -9.3243     6.4567     9.6916 </r>
       <r>    -9.2047     5.2741    10.3221 </r>
       <r>    -9.0852     7.2944    11.1941 </r>
       <r>    -8.9656     4.8895    11.7786 </r>
       <r>    -8.8461     7.0017    12.6156 </r>
       <r>    -8.7266     6.9982    13.4522 </r>
       <r>    -8.6070     8.7366    14.4966 </r>
       <r>    -8.4875     5.3516    15.1363 </r>
       <r>    -8.3679     6.2728    15.8862 </r>
       <r>    -8.2484     8.8036    16.9386 </r>
       <r>    -8.1288     7.4195    17.8256 </r>
       <r>    -8.0093     8.3186    18.8200 </r>
       <r>    -7.8897     6.8333    19.6369 </r>
       <r>    -7.7702     8.6958    20.6764 </r>
       <r>    -7.6507     7.6047    21.5855 </r>
       <r>    -7.5311     8.0217    22.5445 </r>
       <r>    -7.4116     9.0130    23.6219 </r>
       <r>    -7.2920     9.4747    24.7545 </r>
       <r>    -7.1725     9.6597    25.9093 </r>
       <r>    -7.0529     8.5388    26.9301 </r>
       <r>    -6.9334     8.0148    27.8882 </r>
       <r>    -6.8139     8.7990    28.9400 </r>
       <r>    -6.6943    12.1556    30.3932 </r>
       <r>    -6.5748    10.5198    31.6507 </r>
       <r>    -6.4552     9.7925    32.8214 </r>
       <r>    -6.3357    10.4912    34.0755 </r>
       <r>    -6.2161    12.4215    35.5604 </r>
       <r>    -6.0966    11.1869    36.8978 </r>
       <r>    -5.9770    13.4741    38.5085 </r>
       <r>    -5.8575    11.7785    39.9165 </r>
       <r>    -5.7380    11.3457    41.2729 </r>
       <r>    -5.6184    15.3093    43.1030 </r>
       <r>    -5.4989    10.5751    44.3672 </r>
       <r>    -5.3793     8.5990    45.3951 </r>
       <r>    -5.2598    10.8733    46.6950 </r>
       <r>    -5.1402    11.3420    48.0508 </r>
       <r>    -5.0207     8.3498    49.0490 </r>
       <r>    -4.9012    13.8186    50.7009 </r>
       <r>    -4.7816     7.4239    51.5884 </r>
       <r>    -4.6621    10.6598    52.8627 </r>
       <r>    -4.5425     8.2504    53.8490 </r>
       <r>    -4.4230     8.2824    54.8391 </r>
       <r>    -4.3034     7.8860    55.7818 </r>
       <r>    -4.1839     8.9268    56.8490 </r>
       <r>    -4.0644     5.8659    57.5502 </r>
       <r>    -3.9448     9.0248    58.6290 </r>
       <r>    -3.8253     7.4760    59.5228 </r>
       <r>    -3.7057     8.7452    60.5682 </r>
       <r>    -3.5862     8.0000    61.5245 </r>
       <r>    -3.4666     6.1294    62.2573 </r>
       <r>    -3.3471     5.2152    62.8807 </r>
       <r>    -3.2275     9.9624    64.0717 </r>
       <r>    -3.1080    10.4010    65.3150 </r>
       <r>    -2.9885     8.8547    66.3736 </r>
       <r>    -2.8689     8.9454    67.4429 </r>
       <r>    -2.7494     7.0588    68.2868 </r>
       <r>    -2.6298     9.8509    69.4644 </r>
       <r>    -2.5103     9.1028    70.5526 </r>
       <r>    -2.3907     9.2389    71.6570 </r>
       <r>    -2.2712    10.8532    72.9545 </r>
       <r>    -2.1517    17.1964    75.0102 </r>
       <r>    -2.0321    27.2538    78.2682 </r>
       <r>    -1.9126    25.7098    81.3416 </r>
       <r>    -1.7930    13.6639    82.9751 </r>
       <r>    -1.6735    14.0816    84.6584 </r>
       <r>    -1.5539    13.9759    86.3292 </r>
       <r>    -1.4344    11.5885    87.7145 </r>
       <r>    -1.3148    14.3698    89.4323 </r>
       <r>    -1.1953    20.6885    91.9055 </r>
       <r>    -1.0758     9.2458    93.0108 </r>
       <r>    -0.9562    11.4243    94.3765 </r>
       <r>    -0.8367     8.8152    95.4303 </r>
       <r>    -0.7171     7.6145    96.3406 </r>
       <r>    -0.5976     9.6463    97.4937 </r>
       <r>    -0.4780    10.7997    98.7847 </r>
       <r>    -0.3585     8.2797    99.7745 </r>
       <r>    -0.2390    11.3985   101.1372 </r>
       <r>    -0.1194    12.3266   102.6107 </r>
       <r>     0.0001     4.8731   103.1933 </r>
       <r>     0.1197     4.7251   103.7581 </r>
       <r>     0.2392    10.4155   105.0032 </r>
       <r>     0.3588    13.1355   106.5735 </r>
       <r>     0.4783    10.1748   107.7898 </r>
       <r>     0.5979    13.5480   109.4094 </r>
       <r>     0.7174    15.7338   111.2903 </r>
       <r>     0.8369    19.8863   113.6676 </r>
       <r>     0.9565    14.0407   115.3460 </r>
       <r>     1.0760    14.6080   117.0923 </r>
       <r>     1.1956    19.5868   119.4338 </r>
       <r>     1.3151    19.7976   121.8005 </r>
       <r>     1.4347    14.5085   123.5349 </r>
       <r>     1.5542    15.1459   125.3455 </r>
       <r>     1.6737    12.7985   126.8755 </r>
       <r>     1.7933    22.6739   129.5860 </r>
       <r>     1.9128    20.1842   131.9989 </r>
       <r>     2.0324    15.9511   133.9057 </r>
       <r>     2.1519    16.6608   135.8974 </r>
       <r>     2.2715    13.4046   137.4999 </r>
       <r>     2.3910    19.0549   139.7778 </r>
       <r>     2.5106    25.2145   142.7920 </r>
       <r>     2.6301    21.1540   145.3208 </r>
       <r>     2.7496    12.8225   146.8537 </r>
       <r>     2.8692    21.2953   149.3994 </r>
       <r>     2.9887    26.2325   152.5353 </r>
       <r>     3.1083    23.5441   155.3499 </r>
       <r>     3.2278    23.7558   158.1897 </r>
       <r>     3.3474    23.3547   160.9816 </r>
       <r>     3.4669    26.1767   164.1109 </r>
       <r>     3.5864    26.1106   167.2323 </r>
       <r>     3.7060    30.0334   170.8226 </r>
       <r>     3.8255    26.3941   173.9778 </r>
       <r>     3.9451    18.9223   176.2399 </r>
       <r>     4.0646    25.2260   179.2555 </r>
       <r>     4.1842    21.2991   181.8016 </r>
       <r>     4.3037    31.4393   185.5600 </r>
       <r>     4.4233    26.4619   188.7234 </r>
       <r>     4.5428    20.6464   191.1915 </r>
       <r>     4.6623    16.7594   193.1950 </r>
       <r>     4.7819    27.0366   196.4271 </r>
       <r>     4.9014    26.7718   199.6274 </r>
       <r>     5.0210    26.6567   202.8141 </r>
       <r>     5.1405    15.4208   204.6575 </r>
       <r>     5.2601    22.1121   207.3009 </r>
       <r>     5.3796    23.0228   210.0531 </r>
       <r>     5.4991    27.3870   213.3271 </r>
       <r>     5.6187    21.5313   215.9010 </r>
       <r>     5.7382    17.5334   217.9970 </r>
       <r>     5.8578    20.5451   220.4531 </r>
       <r>     5.9773    22.1678   223.1031 </r>
       <r>     6.0969    26.5002   226.2710 </r>
       <r>     6.2164    19.3852   228.5884 </r>
       <r>     6.3360    18.2520   230.7703 </r>
       <r>     6.4555    17.2603   232.8337 </r>
       <r>     6.5750    24.5016   235.7627 </r>
       <r>     6.6946    20.5082   238.2143 </r>
       <r>     6.8141     8.7511   239.2605 </r>
       <r>     6.9337    15.5173   241.1155 </r>
       <r>     7.0532    13.8105   242.7664 </r>
       <r>     7.1728    11.3585   244.1242 </r>
       <r>     7.2923    11.2739   245.4720 </r>
       <r>     7.4118     7.7462   246.3980 </r>
       <r>     7.5314    10.0985   247.6052 </r>
       <r>     7.6509     9.9193   248.7910 </r>
       <r>     7.7705     7.9205   249.7378 </r>
       <r>     7.8900     5.2935   250.3706 </r>
       <r>     8.0096     7.6120   251.2806 </r>
       <r>     8.1291     6.2777   252.0311 </r>
       <r>     8.2487     6.6328   252.8240 </r>
       <r>     8.3682     4.1806   253.3237 </r>
       <r>     8.4877     4.3341   253.8419 </r>
       <r>     8.6073     4.8253   254.4187 </r>
       <r>     8.7268     3.1854   254.7995 </r>
       <r>     8.8464     3.7206   255.2443 </r>
       <r>     8.9659     2.1011   255.4954 </r>
       <r>     9.0855     2.3351   255.7746 </r>
       <r>     9.2050     1.4307   255.9456 </r>
       <r>     9.3245     0.4349   255.9976 </r>
       <r>     9.4441     0.0200   256.0000 </r>
       <r>     9.5636     0.0000   256.0000 </r>
       <r>     9.6832     0.0000   256.0000 </r>
       <r>     9.8027     0.0000   256.0000 </r>
       <r>     9.9223     0.0000   256.0000 </r>
       <r>    10.0418     0.0000   256.0000 </r>
       <r>    10.1613     0.0000   256.0000 </r>
       <r>    10.2809     0.0000   256.0000 </r>
       <r>    10.4004     0.0000   256.0000 </r>
       <r>    10.5200     0.0000   256.0000 </r>
       <r>    10.6395     0.0000   256.0000 </r>
       <r>    10.7591     0.0000   256.0000 </r>
       <r>    10.8786     0.0000   256.0000 </r>
       <r>    10.9982     0.0000   256.0000 </r>
       <r>    11.1177     0.0000   256.0000 </r>
       <r>    11.2372     0.0000   256.0000 </r>
       <r>    11.3568     0.0000   256.0000 </r>
       <r>    11.4763     0.0000   256.0000 </r>
       <r>    11.5959     0.0000   256.0000 </r>
       <r>    11.7154     0.0000   256.0000 </r>
       <r>    11.8350     0.0000   256.0000 </r>
       <r>    11.9545     0.0000   256.0000 </r>
       <r>    12.0740     0.0000   256.0000 </r>
       <r>    12.1936     0.0000   256.0000 </r>
       <r>    12.3131     0.0000   256.0000 </r>
       <r>    12.4327     0.0000   256.0000 </r>
       <r>    12.5522     0.0000   256.0000 </r>
       <r>    12.6718     0.0000   256.0000 </r>
       <r>    12.7913     0.0000   256.0000 </r>
       <r>    12.9109     0.0000   256.0000 </r>
       <r>    13.0304     0.0000   256.0000 </r>
       <r>    13.1499     0.0000   256.0000 </r>
       <r>    13.2695     0.0743   256.0089 </r>
       <r>    13.3890     0.6640   256.0883 </r>
       <r>    13.5086     2.3957   256.3747 </r>
       <r>    13.6281     3.9360   256.8452 </r>
       <r>    13.7477     3.4479   257.2574 </r>
       <r>    13.8672     2.9473   257.6097 </r>
       <r>    13.9867     7.7028   258.5305 </r>
       <r>    14.1063     9.1236   259.6212 </r>
       <r>    14.2258     9.0542   260.7035 </r>
       <r>    14.3454     5.2776   261.3345 </r>
       <r>    14.4649     8.3862   262.3370 </r>
       <r>    14.5845    13.7413   263.9796 </r>
       <r>    14.7040    15.6695   265.8528 </r>
       <r>    14.8236    12.5678   267.3552 </r>
       <r>    14.9431    13.6385   268.9856 </r>
       <r>    15.0626    14.1637   270.6788 </r>
       <r>    15.1822    12.5445   272.1784 </r>
       <r>    15.3017    15.1236   273.9864 </r>
       <r>    15.4213    21.1219   276.5113 </r>
       <r>    15.5408    20.5523   278.9682 </r>
       <r>    15.6604    14.8995   280.7494 </r>
       <r>    15.7799    16.1993   282.6859 </r>
       <r>    15.8994    20.7078   285.1614 </r>
       <r>    16.0190    18.1534   287.3315 </r>
       <r>    16.1385    20.0735   289.7312 </r>
       <r>    16.2581    22.3861   292.4073 </r>
       <r>    16.3776    24.6476   295.3537 </r>
       <r>    16.4972    19.3438   297.6662 </r>
       <r>    16.6167    25.2330   300.6826 </r>
       <r>    16.7363    24.9271   303.6625 </r>
       <r>    16.8558    24.9274   306.6424 </r>
       <r>    16.9753    32.0896   310.4785 </r>
       <r>    17.0949    26.9809   313.7039 </r>
       <r>    17.2144    27.0356   316.9359 </r>
       <r>    17.3340    34.6432   321.0772 </r>
       <r>    17.4535    35.6369   325.3374 </r>
       <r>    17.5731    42.5285   330.4214 </r>
       <r>    17.6926    43.3863   335.6080 </r>
       <r>    17.8121    37.8959   340.1382 </r>
       <r>    17.9317    26.3765   343.2913 </r>
       <r>    18.0512    36.4544   347.6492 </r>
       <r>    18.1708    20.5284   350.1033 </r>
       <r>    18.2903    22.9509   352.8469 </r>
       <r>    18.4099    31.7880   356.6470 </r>
       <r>    18.5294    37.7191   361.1560 </r>
       <r>    18.6490    26.3300   364.3036 </r>
       <r>    18.7685    21.6815   366.8955 </r>
       <r>    18.8880    23.1109   369.6583 </r>
       <r>    19.0076    26.4193   372.8166 </r>
       <r>    19.1271    26.6986   376.0082 </r>
       <r>    19.2467    19.2595   378.3105 </r>
       <r>    19.3662     7.9304   379.2586 </r>
       <r>    19.4858    10.0196   380.4564 </r>
       <r>    19.6053     9.3305   381.5718 </r>
       <r>    19.7248     6.7661   382.3806 </r>
       <r>    19.8444     2.0494   382.6256 </r>
       <r>    19.9639     3.5699   383.0523 </r>
       <r>    20.0835     1.1540   383.1903 </r>
       <r>    20.2030     2.4699   383.4856 </r>
       <r>    20.3226     1.7394   383.6935 </r>
       <r>    20.4421     1.6087   383.8858 </r>
       <r>    20.5617     0.1709   383.9062 </r>
       <r>    20.6812     0.0111   383.9076 </r>
       <r>    20.8007     0.4642   383.9631 </r>
       <r>    20.9203     0.3017   383.9991 </r>
       <r>    21.0398     0.0073   384.0000 </r>
       <r>    21.1594     0.0000   384.0000 </r>
       <r>    21.2789     0.0000   384.0000 </r>
       <r>    21.3985     0.0000   384.0000 </r>
       <r>    21.5180     0.0000   384.0000 </r>
       <r>    21.6375     0.0000   384.0000 </r>
       <r>    21.7571     0.0000   384.0000 </r>
       <r>    21.8766     0.0000   384.0000 </r>
       <r>    21.9962     0.0000   384.0000 </r>
       <r>    22.1157     0.0000   384.0000 </r>
       <r>    22.2353     0.0000   384.0000 </r>
       <r>    22.3548     0.0000   384.0000 </r>
       <r>    22.4744     0.0000   384.0000 </r>
      </set>
     </set>
    </array>
   </total>
  </dos>
 </calculation>
 <structure name="finalpos" >
  <crystal>
   <varray name="basis" >
    <v>       7.21854000       0.00000000       0.00000000 </v>
    <v>       0.00000000       7.21854000       0.00000000 </v>
    <v>       0.00000000       0.00000000       7.21854000 </v>
   </varray>
   <i name="volume">    376.13877178 </i>
   <varray name="rec_basis" >
    <v>       0.13853217       0.00000000       0.00000000 </v>
    <v>       0.00000000       0.13853217       0.00000000 </v>
    <v>       0.00000000       0.00000000       0.13853217 </v>
   </varray>
  </crystal>
  <varray name="positions" >
   <v>       0.12500000       0.37500000       0.12500000 </v>
   <v>       0.62500000       0.37500000       0.12500000 </v>
   <v>       0.12500000       0.87500000       0.12500000 </v>
   <v>       0.62500000       0.87500000       0.12500000 </v>
   <v>       0.12500000       0.37500000       0.62500000 </v>
   <v>       0.62500000       0.37500000       0.62500000 </v>
   <v>       0.12500000       0.87500000       0.62500000 </v>
   <v>       0.62500000       0.87500000       0.62500000 </v>
   <v>       0.00000000       0.00000000       0.25000000 </v>
   <v>       0.50000000       0.00000000       0.25000000 </v>
   <v>       0.00000000       0.50000000       0.25000000 </v>
   <v>       0.50000000       0.50000000       0.25000000 </v>
   <v>       0.00000000       0.00000000       0.75000000 </v>
   <v>       0.50000000       0.00000000       0.75000000 </v>
   <v>       0.00000000       0.50000000       0.75000000 </v>
   <v>       0.50000000       0.50000000       0.75000000 </v>
   <v>       0.12500000       0.12500000       0.37500000 </v>
   <v>       0.62500000       0.12500000       0.37500000 </v>
   <v>       0.12500000       0.62500000       0.37500000 </v>
   <v>       0.62500000       0.62500000       0.37500000 </v>
   <v>       0.12500000       0.12500000       0.87500000 </v>
   <v>       0.62500000       0.12500000       0.87500000 </v>
   <v>       0.12500000       0.62500000       0.87500000 </v>
   <v>       0.62500000       0.62500000       0.87500000 </v>
   <v>       0.00000000       0.25000000       0.00000000 </v>
   <v>       0.50000000       0.25000000       0.00000000 </v>
   <v>       0.00000000       0.75000000       0.00000000 </v>
   <v>       0.50000000       0.75000000       0.00000000 </v>
   <v>       0.00000000       0.25000000       0.50000000 </v>
   <v>       0.50000000       0.25000000       0.50000000 </v>
   <v>       0.00000000       0.75000000       0.50000000 </v>
   <v>       0.50000000       0.75000000       0.50000000 </v>
   <v>       0.37500000       0.37500000       0.37500000 </v>
   <v>       0.87500000       0.37500000       0.37500000 </v>
   <v>       0.37500000       0.87500000       0.37500000 </v>
   <v>       0.87500000       0.87500000       0.37500000 </v>
   <v>       0.37500000       0.37500000       0.87500000 </v>
   <v>       0.87500000       0.37500000       0.87500000 </v>
   <v>       0.37500000       0.87500000       0.87500000 </v>
   <v>       0.87500000       0.87500000       0.87500000 </v>
   <v>       0.25000000       0.00000000       0.00000000 </v>
   <v>       0.75000000       0.00000000       0.00000000 </v>
   <v>       0.25000000       0.50000000       0.00000000 </v>
   <v>       0.75000000       0.50000000       0.00000000 </v>
   <v>       0.25000000       0.00000000       0.50000000 </v>
   <v>       0.75000000       0.00000000       0.50000000 </v>
   <v>       0.25000000       0.50000000       0.50000000 </v>
   <v>       0.75000000       0.50000000       0.50000000 </v>
   <v>       0.37500000       0.12500000       0.12500000 </v>
   <v>       0.87500000       0.12500000       0.12500000 </v>
   <v>       0.37500000       0.62500000       0.12500000 </v>
   <v>       0.87500000       0.62500000       0.12500000 </v>
   <v>       0.37500000       0.12500000       0.62500000 </v>
   <v>       0.87500000       0.12500000       0.62500000 </v>
   <v>       0.37500000       0.62500000       0.62500000 </v>
   <v>       0.87500000       0.62500000       0.62500000 </v>
   <v>       0.25000000       0.25000000       0.25000000 </v>
   <v>       0.75000000       0.25000000       0.25000000 </v>
   <v>       0.25000000       0.75000000       0.25000000 </v>
   <v>       0.75000000       0.75000000       0.25000000 </v>
   <v>       0.25000000       0.25000000       0.75000000 </v>
   <v>       0.75000000       0.25000000       0.75000000 </v>
   <v>       0.25000000       0.75000000       0.75000000 </v>
   <v>       0.75000000       0.75000000       0.75000000 </v>
  </varray>
 </structure>
</modeling>
