  64  64   0   0
  0.6491254E+01  0.7461673E-09  0.7461673E-09  0.7461673E-09  0.5000000E-15
  1.000000000000000E-004
  CAR 
 unknown system                          
     19.81159244    -13.36129037  301      8.20799448      1.00000000
    -13.361  0.0000E+00  0.0000E+00
    -13.251  0.0000E+00  0.0000E+00
    -13.140  0.0000E+00  0.0000E+00
    -13.030  0.0000E+00  0.0000E+00
    -12.919  0.0000E+00  0.0000E+00
    -12.808  0.0000E+00  0.0000E+00
    -12.698  0.0000E+00  0.0000E+00
    -12.587  0.0000E+00  0.0000E+00
    -12.477  0.0000E+00  0.0000E+00
    -12.366  0.0000E+00  0.0000E+00
    -12.256  0.0000E+00  0.0000E+00
    -12.145  0.2666E-12  0.2948E-13
    -12.034  0.8417E-06  0.9307E-07
    -11.924  0.4681E-02  0.5177E-03
    -11.813  0.2693E+00  0.3029E-01
    -11.703  0.1303E+01  0.1744E+00
    -11.592  0.1566E+01  0.3475E+00
    -11.481  0.2999E+01  0.6791E+00
    -11.371  0.1740E+01  0.8715E+00
    -11.260  0.3792E+01  0.1291E+01
    -11.150  0.3139E+01  0.1638E+01
    -11.039  0.4102E+01  0.2092E+01
    -10.929  0.2633E+01  0.2383E+01
    -10.818  0.4925E+01  0.2927E+01
    -10.707  0.4777E+01  0.3455E+01
    -10.597  0.5397E+01  0.4052E+01
    -10.486  0.2682E+01  0.4349E+01
    -10.376  0.5046E+01  0.4907E+01
    -10.265  0.6838E+01  0.5663E+01
    -10.155  0.6050E+01  0.6332E+01
    -10.044  0.4804E+01  0.6863E+01
     -9.933  0.4559E+01  0.7367E+01
     -9.823  0.7415E+01  0.8187E+01
     -9.712  0.5586E+01  0.8805E+01
     -9.602  0.5954E+01  0.9463E+01
     -9.491  0.7580E+01  0.1030E+02
     -9.381  0.7916E+01  0.1118E+02
     -9.270  0.6786E+01  0.1193E+02
     -9.159  0.5715E+01  0.1256E+02
     -9.049  0.4721E+01  0.1308E+02
     -8.938  0.9758E+01  0.1416E+02
     -8.828  0.8469E+01  0.1510E+02
     -8.717  0.9857E+01  0.1619E+02
     -8.607  0.6575E+01  0.1691E+02
     -8.496  0.7063E+01  0.1769E+02
     -8.385  0.8465E+01  0.1863E+02
     -8.275  0.7640E+01  0.1948E+02
     -8.164  0.8444E+01  0.2041E+02
     -8.054  0.1111E+02  0.2164E+02
     -7.943  0.1096E+02  0.2285E+02
     -7.832  0.5177E+01  0.2342E+02
     -7.722  0.1041E+02  0.2457E+02
     -7.611  0.1462E+02  0.2619E+02
     -7.501  0.8233E+01  0.2710E+02
     -7.390  0.6104E+01  0.2777E+02
     -7.280  0.1111E+02  0.2900E+02
     -7.169  0.1095E+02  0.3021E+02
     -7.058  0.1231E+02  0.3157E+02
     -6.948  0.1449E+02  0.3318E+02
     -6.837  0.1342E+02  0.3466E+02
     -6.727  0.1495E+02  0.3631E+02
     -6.616  0.1122E+02  0.3755E+02
     -6.506  0.8009E+01  0.3844E+02
     -6.395  0.1849E+02  0.4049E+02
     -6.284  0.1465E+02  0.4211E+02
     -6.174  0.8187E+01  0.4301E+02
     -6.063  0.1219E+02  0.4436E+02
     -5.953  0.1539E+02  0.4606E+02
     -5.842  0.1304E+02  0.4750E+02
     -5.732  0.9663E+01  0.4857E+02
     -5.621  0.1026E+02  0.4970E+02
     -5.510  0.1211E+02  0.5104E+02
     -5.400  0.1175E+02  0.5234E+02
     -5.289  0.3675E+01  0.5275E+02
     -5.179  0.1270E+02  0.5415E+02
     -5.068  0.8449E+01  0.5509E+02
     -4.957  0.5420E+01  0.5569E+02
     -4.847  0.1149E+02  0.5696E+02
     -4.736  0.1237E+02  0.5833E+02
     -4.626  0.1154E+02  0.5960E+02
     -4.515  0.6535E+01  0.6032E+02
     -4.405  0.3646E+01  0.6073E+02
     -4.294  0.5725E+01  0.6136E+02
     -4.183  0.3598E+01  0.6176E+02
     -4.073  0.2137E+01  0.6199E+02
     -3.962  0.6466E+01  0.6271E+02
     -3.852  0.1170E+02  0.6400E+02
     -3.741  0.8705E+01  0.6497E+02
     -3.631  0.8492E+01  0.6590E+02
     -3.520  0.5353E+01  0.6650E+02
     -3.409  0.9875E+01  0.6759E+02
     -3.299  0.1121E+02  0.6883E+02
     -3.188  0.1007E+02  0.6994E+02
     -3.078  0.5174E+01  0.7051E+02
     -2.967  0.1537E+02  0.7221E+02
     -2.857  0.1134E+02  0.7347E+02
     -2.746  0.2161E+02  0.7586E+02
     -2.635  0.4529E+02  0.8086E+02
     -2.525  0.2845E+02  0.8401E+02
     -2.414  0.1124E+02  0.8525E+02
     -2.304  0.8592E+01  0.8620E+02
     -2.193  0.1850E+02  0.8825E+02
     -2.083  0.9360E+01  0.8928E+02
     -1.972  0.9295E+01  0.9031E+02
     -1.861  0.1536E+02  0.9201E+02
     -1.751  0.1489E+02  0.9366E+02
     -1.640  0.1259E+02  0.9505E+02
     -1.530  0.1125E+02  0.9629E+02
     -1.419  0.1114E+02  0.9753E+02
     -1.308  0.1370E+02  0.9904E+02
     -1.198  0.1369E+02  0.1006E+03
     -1.087  0.2656E+01  0.1008E+03
     -0.977  0.5781E+01  0.1015E+03
     -0.866  0.6339E+01  0.1022E+03
     -0.756  0.1283E+02  0.1036E+03
     -0.645  0.9760E+01  0.1047E+03
     -0.534  0.6025E+01  0.1054E+03
     -0.424  0.6357E+01  0.1061E+03
     -0.313  0.9925E+01  0.1072E+03
     -0.203  0.1170E+02  0.1084E+03
     -0.092  0.1699E+02  0.1103E+03
      0.018  0.1069E+02  0.1115E+03
      0.129  0.9502E+01  0.1126E+03
      0.240  0.1853E+02  0.1146E+03
      0.350  0.1953E+02  0.1168E+03
      0.461  0.2005E+02  0.1190E+03
      0.571  0.2310E+02  0.1215E+03
      0.682  0.1620E+02  0.1233E+03
      0.792  0.8652E+01  0.1243E+03
      0.903  0.2814E+02  0.1274E+03
      1.014  0.2076E+02  0.1297E+03
      1.124  0.1093E+02  0.1309E+03
      1.235  0.2007E+02  0.1331E+03
      1.345  0.2732E+02  0.1361E+03
      1.456  0.1937E+02  0.1383E+03
      1.567  0.1216E+02  0.1396E+03
      1.677  0.1328E+02  0.1411E+03
      1.788  0.2117E+02  0.1434E+03
      1.898  0.2837E+02  0.1466E+03
      2.009  0.2213E+02  0.1490E+03
      2.119  0.2777E+02  0.1521E+03
      2.230  0.1801E+02  0.1541E+03
      2.341  0.2996E+02  0.1574E+03
      2.451  0.2382E+02  0.1600E+03
      2.562  0.2660E+02  0.1630E+03
      2.672  0.1659E+02  0.1648E+03
      2.783  0.3402E+02  0.1686E+03
      2.893  0.3469E+02  0.1724E+03
      3.004  0.3880E+02  0.1767E+03
      3.115  0.2113E+02  0.1790E+03
      3.225  0.1428E+02  0.1806E+03
      3.336  0.2674E+02  0.1836E+03
      3.446  0.3254E+02  0.1872E+03
      3.557  0.2144E+02  0.1895E+03
      3.667  0.3210E+02  0.1931E+03
      3.778  0.2594E+02  0.1960E+03
      3.889  0.2502E+02  0.1987E+03
      3.999  0.2076E+02  0.2010E+03
      4.110  0.2620E+02  0.2039E+03
      4.220  0.2730E+02  0.2069E+03
      4.331  0.2234E+02  0.2094E+03
      4.441  0.3068E+02  0.2128E+03
      4.552  0.1519E+02  0.2145E+03
      4.663  0.2333E+02  0.2171E+03
      4.773  0.2564E+02  0.2199E+03
      4.884  0.2712E+02  0.2229E+03
      4.994  0.2968E+02  0.2262E+03
      5.105  0.1839E+02  0.2282E+03
      5.216  0.1485E+02  0.2298E+03
      5.326  0.2051E+02  0.2321E+03
      5.437  0.2478E+02  0.2349E+03
      5.547  0.3326E+02  0.2385E+03
      5.658  0.9359E+01  0.2396E+03
      5.768  0.1202E+02  0.2409E+03
      5.879  0.1490E+02  0.2425E+03
      5.990  0.1230E+02  0.2439E+03
      6.100  0.1028E+02  0.2450E+03
      6.211  0.1542E+02  0.2467E+03
      6.321  0.1004E+02  0.2479E+03
      6.432  0.7074E+01  0.2486E+03
      6.542  0.8973E+01  0.2496E+03
      6.653  0.8701E+01  0.2506E+03
      6.764  0.6987E+01  0.2514E+03
      6.874  0.7048E+01  0.2521E+03
      6.985  0.4693E+01  0.2527E+03
      7.095  0.6231E+01  0.2534E+03
      7.206  0.7114E+01  0.2541E+03
      7.316  0.4042E+01  0.2546E+03
      7.427  0.1705E+01  0.2548E+03
      7.538  0.4091E+01  0.2552E+03
      7.648  0.3915E+01  0.2557E+03
      7.759  0.1748E+01  0.2559E+03
      7.869  0.1023E+01  0.2560E+03
      7.980  0.3131E+00  0.2560E+03
      8.091  0.5499E-02  0.2560E+03
      8.201  0.4577E-06  0.2560E+03
      8.312  0.5756E-13  0.2560E+03
      8.422  0.0000E+00  0.2560E+03
      8.533  0.0000E+00  0.2560E+03
      8.643  0.0000E+00  0.2560E+03
      8.754  0.0000E+00  0.2560E+03
      8.865  0.0000E+00  0.2560E+03
      8.975  0.0000E+00  0.2560E+03
      9.086  0.0000E+00  0.2560E+03
      9.196  0.0000E+00  0.2560E+03
      9.307  0.0000E+00  0.2560E+03
      9.417  0.0000E+00  0.2560E+03
      9.528  0.0000E+00  0.2560E+03
      9.639  0.0000E+00  0.2560E+03
      9.749  0.0000E+00  0.2560E+03
      9.860  0.0000E+00  0.2560E+03
      9.970  0.0000E+00  0.2560E+03
     10.081  0.0000E+00  0.2560E+03
     10.191  0.0000E+00  0.2560E+03
     10.302  0.0000E+00  0.2560E+03
     10.413  0.0000E+00  0.2560E+03
     10.523  0.0000E+00  0.2560E+03
     10.634  0.0000E+00  0.2560E+03
     10.744  0.0000E+00  0.2560E+03
     10.855  0.0000E+00  0.2560E+03
     10.965  0.0000E+00  0.2560E+03
     11.076  0.0000E+00  0.2560E+03
     11.187  0.0000E+00  0.2560E+03
     11.297  0.0000E+00  0.2560E+03
     11.408  0.4183E-15  0.2560E+03
     11.518  0.2469E-07  0.2560E+03
     11.629  0.2065E-02  0.2560E+03
     11.740  0.3943E+00  0.2560E+03
     11.850  0.1154E+01  0.2562E+03
     11.961  0.1156E+01  0.2563E+03
     12.071  0.5148E+01  0.2569E+03
     12.182  0.5069E+01  0.2574E+03
     12.292  0.7662E+01  0.2583E+03
     12.403  0.5192E+01  0.2589E+03
     12.514  0.4572E+01  0.2594E+03
     12.624  0.3021E+01  0.2597E+03
     12.735  0.1526E+02  0.2614E+03
     12.845  0.2020E+02  0.2636E+03
     12.956  0.1061E+02  0.2648E+03
     13.066  0.9406E+01  0.2658E+03
     13.177  0.1196E+02  0.2671E+03
     13.288  0.1671E+02  0.2690E+03
     13.398  0.1253E+02  0.2704E+03
     13.509  0.1476E+02  0.2720E+03
     13.619  0.2240E+02  0.2745E+03
     13.730  0.2057E+02  0.2768E+03
     13.840  0.2289E+02  0.2793E+03
     13.951  0.1421E+02  0.2809E+03
     14.062  0.2042E+02  0.2831E+03
     14.172  0.2233E+02  0.2856E+03
     14.283  0.2606E+02  0.2885E+03
     14.393  0.2092E+02  0.2908E+03
     14.504  0.1748E+02  0.2927E+03
     14.615  0.2509E+02  0.2955E+03
     14.725  0.2939E+02  0.2987E+03
     14.836  0.1720E+02  0.3006E+03
     14.946  0.2910E+02  0.3039E+03
     15.057  0.5020E+02  0.3094E+03
     15.167  0.4923E+02  0.3149E+03
     15.278  0.3956E+02  0.3192E+03
     15.389  0.3246E+02  0.3228E+03
     15.499  0.2960E+02  0.3261E+03
     15.610  0.2913E+02  0.3293E+03
     15.720  0.4343E+02  0.3341E+03
     15.831  0.3911E+02  0.3384E+03
     15.941  0.4770E+02  0.3437E+03
     16.052  0.3740E+02  0.3479E+03
     16.163  0.4049E+02  0.3523E+03
     16.273  0.2793E+02  0.3554E+03
     16.384  0.2926E+02  0.3587E+03
     16.494  0.1912E+02  0.3608E+03
     16.605  0.2326E+02  0.3633E+03
     16.715  0.3095E+02  0.3668E+03
     16.826  0.3904E+02  0.3711E+03
     16.937  0.2323E+02  0.3737E+03
     17.047  0.2052E+02  0.3759E+03
     17.158  0.1712E+02  0.3778E+03
     17.268  0.1925E+02  0.3799E+03
     17.379  0.9283E+01  0.3810E+03
     17.489  0.7727E+01  0.3818E+03
     17.600  0.7176E+01  0.3826E+03
     17.711  0.3801E+01  0.3830E+03
     17.821  0.8106E+00  0.3831E+03
     17.932  0.1719E+01  0.3833E+03
     18.042  0.8338E+00  0.3834E+03
     18.153  0.8015E+00  0.3835E+03
     18.264  0.2659E+01  0.3838E+03
     18.374  0.1824E+01  0.3840E+03
     18.485  0.7559E-01  0.3840E+03
     18.595  0.1244E-04  0.3840E+03
     18.706  0.3536E-11  0.3840E+03
     18.816  0.0000E+00  0.3840E+03
     18.927  0.0000E+00  0.3840E+03
     19.038  0.0000E+00  0.3840E+03
     19.148  0.0000E+00  0.3840E+03
     19.259  0.0000E+00  0.3840E+03
     19.369  0.0000E+00  0.3840E+03
     19.480  0.0000E+00  0.3840E+03
     19.590  0.0000E+00  0.3840E+03
     19.701  0.0000E+00  0.3840E+03
     19.812  0.0000E+00  0.3840E+03
