mesh: [    48,    48,    48 ]
nqpoint: 2600   
reciprocal_lattice:
- [   0.26803641,   0.00000000,   0.00000000 ] # a*
- [   0.00000000,   0.26803641,   0.00000000 ] # b*
- [   0.00000000,   0.00000000,   0.26803641 ] # c*
natom:   8      
lattice:
- [     3.730836396702151,     0.000000000000000,     0.000000000000000 ] # a
- [     0.000000000000000,     3.730836396702151,     0.000000000000000 ] # b
- [     0.000000000000000,     0.000000000000000,     3.730836396702151 ] # c
points:
- symbol: C  # 1
  coordinates: [  0.250000000000000,  0.750000000000000,  0.250000000000000 ]
  mass: 12.010700
- symbol: C  # 2
  coordinates: [  0.000000000000000,  0.000000000000000,  0.500000000000000 ]
  mass: 12.010700
- symbol: C  # 3
  coordinates: [  0.250000000000000,  0.250000000000000,  0.750000000000000 ]
  mass: 12.010700
- symbol: C  # 4
  coordinates: [  0.000000000000000,  0.500000000000000,  0.000000000000000 ]
  mass: 12.010700
- symbol: C  # 5
  coordinates: [  0.750000000000000,  0.750000000000000,  0.750000000000000 ]
  mass: 12.010700
- symbol: C  # 6
  coordinates: [  0.500000000000000,  0.000000000000000,  0.000000000000000 ]
  mass: 12.010700
- symbol: C  # 7
  coordinates: [  0.750000000000000,  0.250000000000000,  0.250000000000000 ]
  mass: 12.010700
- symbol: C  # 8
  coordinates: [  0.500000000000000,  0.500000000000000,  0.500000000000000 ]
  mass: 12.010700

phonon:
- q-position: [    0.0104167,    0.0104167,    0.0104167 ]
  distance_from_gamma:  0.004835965
  weight: 8    
  band:
  - # 1
    frequency:     0.5438409384
  - # 2
    frequency:     0.5438409384
  - # 3
    frequency:     0.7621425124
  - # 4
    frequency:    22.4826257643
  - # 5
    frequency:    22.4826257643
  - # 6
    frequency:    22.4826257643
  - # 7
    frequency:    22.4920587329
  - # 8
    frequency:    22.4920587329
  - # 9
    frequency:    22.4920587329
  - # 10
    frequency:    25.5647731322
  - # 11
    frequency:    25.5647731322
  - # 12
    frequency:    25.5647731322
  - # 13
    frequency:    25.5670433034
  - # 14
    frequency:    25.5670433034
  - # 15
    frequency:    25.5670433034
  - # 16
    frequency:    31.4305302739
  - # 17
    frequency:    31.4305302739
  - # 18
    frequency:    31.4305302739
  - # 19
    frequency:    31.7219587682
  - # 20
    frequency:    31.7219587682
  - # 21
    frequency:    31.7219587682
  - # 22
    frequency:    33.8894869271
  - # 23
    frequency:    33.8894869271
  - # 24
    frequency:    33.8944132402

- q-position: [    0.0312500,    0.0104167,    0.0104167 ]
  distance_from_gamma:  0.009260169
  weight: 24   
  band:
  - # 1
    frequency:     1.0275359051
  - # 2
    frequency:     1.0347840861
  - # 3
    frequency:     1.4729294053
  - # 4
    frequency:    22.4099052475
  - # 5
    frequency:    22.4191966325
  - # 6
    frequency:    22.4870610385
  - # 7
    frequency:    22.4870610385
  - # 8
    frequency:    22.5153201808
  - # 9
    frequency:    22.5153201808
  - # 10
    frequency:    25.5627894110
  - # 11
    frequency:    25.5627894110
  - # 12
    frequency:    25.5696363460
  - # 13
    frequency:    25.5696363460
  - # 14
    frequency:    25.6277008040
  - # 15
    frequency:    25.6298663911
  - # 16
    frequency:    31.1230488935
  - # 17
    frequency:    31.4162610768
  - # 18
    frequency:    31.4162610768
  - # 19
    frequency:    31.7076968960
  - # 20
    frequency:    31.7076968960
  - # 21
    frequency:    31.9973085856
  - # 22
    frequency:    33.8782129596
  - # 23
    frequency:    33.8786849666
  - # 24
    frequency:    33.8987124473

- q-position: [    0.0520833,    0.0104167,    0.0104167 ]
  distance_from_gamma:  0.014507896
  weight: 24   
  band:
  - # 1
    frequency:     1.6044134019
  - # 2
    frequency:     1.6104287556
  - # 3
    frequency:     2.3165789310
  - # 4
    frequency:    22.2721081389
  - # 5
    frequency:    22.2811710224
  - # 6
    frequency:    22.5052712641
  - # 7
    frequency:    22.5052712641
  - # 8
    frequency:    22.5522426218
  - # 9
    frequency:    22.5522426218
  - # 10
    frequency:    25.5610621921
  - # 11
    frequency:    25.5610621921
  - # 12
    frequency:    25.5726054427
  - # 13
    frequency:    25.5726054427
  - # 14
    frequency:    25.7458217650
  - # 15
    frequency:    25.7478372830
  - # 16
    frequency:    30.7992490008
  - # 17
    frequency:    31.3878471972
  - # 18
    frequency:    31.3878471972
  - # 19
    frequency:    31.6792831312
  - # 20
    frequency:    31.6792831312
  - # 21
    frequency:    32.2568785864
  - # 22
    frequency:    33.8556858621
  - # 23
    frequency:    33.8562473203
  - # 24
    frequency:    33.9081051267

- q-position: [    0.0729167,    0.0104167,    0.0104167 ]
  distance_from_gamma:  0.019939196
  weight: 24   
  band:
  - # 1
    frequency:     2.2016031934
  - # 2
    frequency:     2.2067385602
  - # 3
    frequency:     3.1860421472
  - # 4
    frequency:    22.0807625251
  - # 5
    frequency:    22.0895761897
  - # 6
    frequency:    22.5370310867
  - # 7
    frequency:    22.5370310867
  - # 8
    frequency:    22.6025288065
  - # 9
    frequency:    22.6025288065
  - # 10
    frequency:    25.5595768679
  - # 11
    frequency:    25.5595768679
  - # 12
    frequency:    25.5760117001
  - # 13
    frequency:    25.5760117001
  - # 14
    frequency:    25.9074693502
  - # 15
    frequency:    25.9093656738
  - # 16
    frequency:    30.4590160887
  - # 17
    frequency:    31.3455386003
  - # 18
    frequency:    31.3455386003
  - # 19
    frequency:    31.6369380765
  - # 20
    frequency:    31.6369380765
  - # 21
    frequency:    32.5008512491
  - # 22
    frequency:    33.8219473019
  - # 23
    frequency:    33.8225466882
  - # 24
    frequency:    33.9221402266

- q-position: [    0.0937500,    0.0104167,    0.0104167 ]
  distance_from_gamma:  0.025436749
  weight: 24   
  band:
  - # 1
    frequency:     2.8051931749
  - # 2
    frequency:     2.8098671182
  - # 3
    frequency:     4.0624902513
  - # 4
    frequency:    21.8472684213
  - # 5
    frequency:    21.8558563859
  - # 6
    frequency:    22.5819795719
  - # 7
    frequency:    22.5819795719
  - # 8
    frequency:    22.6657529257
  - # 9
    frequency:    22.6657529257
  - # 10
    frequency:    25.5583324125
  - # 11
    frequency:    25.5583324125
  - # 12
    frequency:    25.5799259964
  - # 13
    frequency:    25.5799259964
  - # 14
    frequency:    26.1010879525
  - # 15
    frequency:    26.1029594529
  - # 16
    frequency:    30.1022436999
  - # 17
    frequency:    31.2897126541
  - # 18
    frequency:    31.2897126541
  - # 19
    frequency:    31.5809942993
  - # 20
    frequency:    31.5809942993
  - # 21
    frequency:    32.7294395364
  - # 22
    frequency:    33.7770597604
  - # 23
    frequency:    33.7776876398
  - # 24
    frequency:    33.9405970587

- q-position: [    0.1145833,    0.0104167,    0.0104167 ]
  distance_from_gamma:  0.030965288
  weight: 24   
  band:
  - # 1
    frequency:     3.4107206925
  - # 2
    frequency:     3.4151817397
  - # 3
    frequency:     4.9398649534
  - # 4
    frequency:    21.5808790573
  - # 5
    frequency:    21.5892830922
  - # 6
    frequency:    22.6396167779
  - # 7
    frequency:    22.6396167779
  - # 8
    frequency:    22.7413600274
  - # 9
    frequency:    22.7413600274
  - # 10
    frequency:    25.5573425994
  - # 11
    frequency:    25.5573425994
  - # 12
    frequency:    25.5844279654
  - # 13
    frequency:    25.5844279654
  - # 14
    frequency:    26.3172492885
  - # 15
    frequency:    26.3192448639
  - # 16
    frequency:    29.7288551187
  - # 17
    frequency:    31.2208772699
  - # 18
    frequency:    31.2208772699
  - # 19
    frequency:    31.5118984816
  - # 20
    frequency:    31.5118984816
  - # 21
    frequency:    32.9428737359
  - # 22
    frequency:    33.7211065051
  - # 23
    frequency:    33.7217621435
  - # 24
    frequency:    33.9632314233

- q-position: [    0.1354167,    0.0104167,    0.0104167 ]
  distance_from_gamma:  0.036510738
  weight: 24   
  band:
  - # 1
    frequency:     4.0161770754
  - # 2
    frequency:     4.0205735306
  - # 3
    frequency:     5.8153070254
  - # 4
    frequency:    21.2883939876
  - # 5
    frequency:    21.2966575614
  - # 6
    frequency:    22.7092989524
  - # 7
    frequency:    22.7092989524
  - # 8
    frequency:    22.8286644932
  - # 9
    frequency:    22.8286644932
  - # 10
    frequency:    25.5566371988
  - # 11
    frequency:    25.5566371988
  - # 12
    frequency:    25.5896051724
  - # 13
    frequency:    25.5896051724
  - # 14
    frequency:    26.5489317649
  - # 15
    frequency:    26.5512752666
  - # 16
    frequency:    29.3388248219
  - # 17
    frequency:    31.1396754876
  - # 18
    frequency:    31.1396754876
  - # 19
    frequency:    31.4302145541
  - # 20
    frequency:    31.4302145541
  - # 21
    frequency:    33.1414007803
  - # 22
    frequency:    33.6541915445
  - # 23
    frequency:    33.6548767080
  - # 24
    frequency:    33.9897506202

- q-position: [    0.1562500,    0.0104167,    0.0104167 ]
  distance_from_gamma:  0.042066414
  weight: 24   
  band:
  - # 1
    frequency:     4.6204098519
  - # 2
    frequency:     4.6248342403
  - # 3
    frequency:     6.6870644114
  - # 4
    frequency:    20.9745824329
  - # 5
    frequency:    20.9827431715
  - # 6
    frequency:    22.7902320158
  - # 7
    frequency:    22.7902320158
  - # 8
    frequency:    22.9268471346
  - # 9
    frequency:    22.9268471346
  - # 10
    frequency:    25.5562635523
  - # 11
    frequency:    25.5562635523
  - # 12
    frequency:    25.5955521045
  - # 13
    frequency:    25.5955521045
  - # 14
    frequency:    26.7910312250
  - # 15
    frequency:    26.7941100499
  - # 16
    frequency:    28.9322383583
  - # 17
    frequency:    31.0468918602
  - # 18
    frequency:    31.0468918602
  - # 19
    frequency:    31.3366280556
  - # 20
    frequency:    31.3366280556
  - # 21
    frequency:    33.3252845017
  - # 22
    frequency:    33.5764395613
  - # 23
    frequency:    33.5771567994
  - # 24
    frequency:    34.0198116304

- q-position: [    0.1770833,    0.0104167,    0.0104167 ]
  distance_from_gamma:  0.047628736
  weight: 24   
  band:
  - # 1
    frequency:     5.2226268074
  - # 2
    frequency:     5.2271390841
  - # 3
    frequency:     7.5538567341
  - # 4
    frequency:    20.6427305451
  - # 5
    frequency:    20.6508179211
  - # 6
    frequency:    22.8814629160
  - # 7
    frequency:    22.8814629160
  - # 8
    frequency:    23.0349504495
  - # 9
    frequency:    23.0349504495
  - # 10
    frequency:    25.5562887876
  - # 11
    frequency:    25.5562887876
  - # 12
    frequency:    25.6023686452
  - # 13
    frequency:    25.6023686452
  - # 14
    frequency:    27.0395816473
  - # 15
    frequency:    27.0442699509
  - # 16
    frequency:    28.5095223900
  - # 17
    frequency:    30.9434610887
  - # 18
    frequency:    30.9434610887
  - # 19
    frequency:    31.2319520409
  - # 20
    frequency:    31.2319520409
  - # 21
    frequency:    33.4879958149
  - # 22
    frequency:    33.4887478492
  - # 23
    frequency:    33.4948061095
  - # 24
    frequency:    34.0530231023

- q-position: [    0.1979167,    0.0104167,    0.0104167 ]
  distance_from_gamma:  0.053195620
  weight: 24   
  band:
  - # 1
    frequency:     5.8222081718
  - # 2
    frequency:     5.8268481535
  - # 3
    frequency:     8.4146381753
  - # 4
    frequency:    20.2950970950
  - # 5
    frequency:    20.3031325086
  - # 6
    frequency:    22.9818685301
  - # 7
    frequency:    22.9818685301
  - # 8
    frequency:    23.1518715111
  - # 9
    frequency:    23.1518715111
  - # 10
    frequency:    25.5568029637
  - # 11
    frequency:    25.5568029637
  - # 12
    frequency:    25.6101574860
  - # 13
    frequency:    25.6101574860
  - # 14
    frequency:    27.2898203799
  - # 15
    frequency:    27.2992842244
  - # 16
    frequency:    28.0729249254
  - # 17
    frequency:    30.8304794481
  - # 18
    frequency:    30.8304794481
  - # 19
    frequency:    31.1171349423
  - # 20
    frequency:    31.1171349423
  - # 21
    frequency:    33.3890260056
  - # 22
    frequency:    33.3898154736
  - # 23
    frequency:    33.6502647614
  - # 24
    frequency:    34.0889484566

- q-position: [    0.2187500,    0.0104167,    0.0104167 ]
  distance_from_gamma:  0.058765769
  weight: 24   
  band:
  - # 1
    frequency:     6.4186249492
  - # 2
    frequency:     6.4234193274
  - # 3
    frequency:     9.2684957880
  - # 4
    frequency:    19.9332441256
  - # 5
    frequency:    19.9412418675
  - # 6
    frequency:    23.0901420624
  - # 7
    frequency:    23.0901420624
  - # 8
    frequency:    23.2763518988
  - # 9
    frequency:    23.2763518988
  - # 10
    frequency:    25.5579234343
  - # 11
    frequency:    25.5579234343
  - # 12
    frequency:    25.6190195900
  - # 13
    frequency:    25.6190195900
  - # 14
    frequency:    27.4892497763
  - # 15
    frequency:    27.5573630556
  - # 16
    frequency:    27.6731259635
  - # 17
    frequency:    30.7092196006
  - # 18
    frequency:    30.7092196006
  - # 19
    frequency:    30.9932708754
  - # 20
    frequency:    30.9932708754
  - # 21
    frequency:    33.2797160916
  - # 22
    frequency:    33.2805454297
  - # 23
    frequency:    33.7919781763
  - # 24
    frequency:    34.1271095181

- q-position: [    0.2395833,    0.0104167,    0.0104167 ]
  distance_from_gamma:  0.064338336
  weight: 24   
  band:
  - # 1
    frequency:     7.0113996756
  - # 2
    frequency:     7.0163661818
  - # 3
    frequency:    10.1146013810
  - # 4
    frequency:    19.5582646639
  - # 5
    frequency:    19.5662330817
  - # 6
    frequency:    23.2047774580
  - # 7
    frequency:    23.2047774580
  - # 8
    frequency:    23.4069640632
  - # 9
    frequency:    23.4069640632
  - # 10
    frequency:    25.5598006500
  - # 11
    frequency:    25.5598006500
  - # 12
    frequency:    25.6290463200
  - # 13
    frequency:    25.6290463200
  - # 14
    frequency:    27.1173034572
  - # 15
    frequency:    27.8171730616
  - # 16
    frequency:    27.8293473412
  - # 17
    frequency:    30.5811493690
  - # 18
    frequency:    30.5811493690
  - # 19
    frequency:    30.8616129513
  - # 20
    frequency:    30.8616129513
  - # 21
    frequency:    33.1602720474
  - # 22
    frequency:    33.1611434409
  - # 23
    frequency:    33.9202832591
  - # 24
    frequency:    34.1669904689

- q-position: [    0.2604167,    0.0104167,    0.0104167 ]
  distance_from_gamma:  0.069912741
  weight: 24   
  band:
  - # 1
    frequency:     7.6000861624
  - # 2
    frequency:     7.6052361587
  - # 3
    frequency:    10.9521870946
  - # 4
    frequency:    19.1709368979
  - # 5
    frequency:    19.1788795014
  - # 6
    frequency:    23.3240533880
  - # 7
    frequency:    23.3240533880
  - # 8
    frequency:    23.5420935961
  - # 9
    frequency:    23.5420935961
  - # 10
    frequency:    25.5626253841
  - # 11
    frequency:    25.5626253841
  - # 12
    frequency:    25.6403061799
  - # 13
    frequency:    25.6403061799
  - # 14
    frequency:    26.6305051781
  - # 15
    frequency:    28.0776864108
  - # 16
    frequency:    28.0840439163
  - # 17
    frequency:    30.4479548429
  - # 18
    frequency:    30.4479548429
  - # 19
    frequency:    30.7235901792
  - # 20
    frequency:    30.7235901792
  - # 21
    frequency:    33.0309195540
  - # 22
    frequency:    33.0318349250
  - # 23
    frequency:    34.0355367109
  - # 24
    frequency:    34.2080420158

- q-position: [    0.2812500,    0.0104167,    0.0104167 ]
  distance_from_gamma:  0.075488579
  weight: 24   
  band:
  - # 1
    frequency:     8.1842585361
  - # 2
    frequency:     8.1895986920
  - # 3
    frequency:    11.7805323792
  - # 4
    frequency:    18.7718284896
  - # 5
    frequency:    18.7797449112
  - # 6
    frequency:    23.4460200133
  - # 7
    frequency:    23.4460200133
  - # 8
    frequency:    23.6799172162
  - # 9
    frequency:    23.6799172162
  - # 10
    frequency:    25.5666368039
  - # 11
    frequency:    25.5666368039
  - # 12
    frequency:    25.6528233469
  - # 13
    frequency:    25.6528233469
  - # 14
    frequency:    26.1227208273
  - # 15
    frequency:    28.3380798283
  - # 16
    frequency:    28.3425516345
  - # 17
    frequency:    30.3115676481
  - # 18
    frequency:    30.3115676481
  - # 19
    frequency:    30.5808284674
  - # 20
    frequency:    30.5808284674
  - # 21
    frequency:    32.8919036109
  - # 22
    frequency:    32.8928646325
  - # 23
    frequency:    34.1381156019
  - # 24
    frequency:    34.2496856911

- q-position: [    0.3020833,    0.0104167,    0.0104167 ]
  distance_from_gamma:  0.081065553
  weight: 24   
  band:
  - # 1
    frequency:     8.7635051845
  - # 2
    frequency:     8.7690386019
  - # 3
    frequency:    12.5989568293
  - # 4
    frequency:    18.3613676139
  - # 5
    frequency:    18.3692544148
  - # 6
    frequency:    23.5684940762
  - # 7
    frequency:    23.5684940762
  - # 8
    frequency:    23.8183772291
  - # 9
    frequency:    23.8183772291
  - # 10
    frequency:    25.5721295911
  - # 11
    frequency:    25.5721295911
  - # 12
    frequency:    25.5969710063
  - # 13
    frequency:    25.6665446045
  - # 14
    frequency:    25.6665446045
  - # 15
    frequency:    28.5976668394
  - # 16
    frequency:    28.6012083019
  - # 17
    frequency:    30.1741950375
  - # 18
    frequency:    30.1741950375
  - # 19
    frequency:    30.4351759427
  - # 20
    frequency:    30.4351759427
  - # 21
    frequency:    32.7434880575
  - # 22
    frequency:    32.7444961895
  - # 23
    frequency:    34.2284178809
  - # 24
    frequency:    34.2913182197

- q-position: [    0.3229167,    0.0104167,    0.0104167 ]
  distance_from_gamma:  0.086643444
  weight: 24   
  band:
  - # 1
    frequency:     9.3374254645
  - # 2
    frequency:     9.3431524561
  - # 3
    frequency:    13.4068161744
  - # 4
    frequency:    17.9398917766
  - # 5
    frequency:    17.9477431143
  - # 6
    frequency:    23.6890705767
  - # 7
    frequency:    23.6890705767
  - # 8
    frequency:    23.9551554736
  - # 9
    frequency:    23.9551554736
  - # 10
    frequency:    25.0539018052
  - # 11
    frequency:    25.5794559155
  - # 12
    frequency:    25.5794559155
  - # 13
    frequency:    25.6812916599
  - # 14
    frequency:    25.6812916599
  - # 15
    frequency:    28.8558521465
  - # 16
    frequency:    28.8588383014
  - # 17
    frequency:    30.0383492290
  - # 18
    frequency:    30.0383492290
  - # 19
    frequency:    30.2887321518
  - # 20
    frequency:    30.2887321518
  - # 21
    frequency:    32.5859549974
  - # 22
    frequency:    32.5870115410
  - # 23
    frequency:    34.3068628000
  - # 24
    frequency:    34.3323158888

- q-position: [    0.3437500,    0.0104167,    0.0104167 ]
  distance_from_gamma:  0.092222085
  weight: 24   
  band:
  - # 1
    frequency:     9.9056280561
  - # 2
    frequency:     9.9115467002
  - # 3
    frequency:    14.2035000265
  - # 4
    frequency:    17.5076816520
  - # 5
    frequency:    17.5154898312
  - # 6
    frequency:    23.8051613121
  - # 7
    frequency:    23.8051613121
  - # 8
    frequency:    24.0876544135
  - # 9
    frequency:    24.0876544135
  - # 10
    frequency:    24.4937910695
  - # 11
    frequency:    25.5890138171
  - # 12
    frequency:    25.5890138171
  - # 13
    frequency:    25.6966985818
  - # 14
    frequency:    25.6966985818
  - # 15
    frequency:    29.1121008528
  - # 16
    frequency:    29.1147166552
  - # 17
    frequency:    29.9068685301
  - # 18
    frequency:    29.9068685301
  - # 19
    frequency:    30.1438794511
  - # 20
    frequency:    30.1438794511
  - # 21
    frequency:    32.4196041150
  - # 22
    frequency:    32.4207102861
  - # 23
    frequency:    34.3720388656
  - # 24
    frequency:    34.3738912282

- q-position: [    0.3645833,    0.0104167,    0.0104167 ]
  distance_from_gamma:  0.097801349
  weight: 24   
  band:
  - # 1
    frequency:    10.4677303466
  - # 2
    frequency:    10.4738368929
  - # 3
    frequency:    14.9884306247
  - # 4
    frequency:    17.0649846841
  - # 5
    frequency:    17.0727406127
  - # 6
    frequency:    23.9140698160
  - # 7
    frequency:    23.9140698160
  - # 8
    frequency:    23.9168300608
  - # 9
    frequency:    24.2130010810
  - # 10
    frequency:    24.2130010810
  - # 11
    frequency:    25.6012072440
  - # 12
    frequency:    25.6012072440
  - # 13
    frequency:    25.7121413580
  - # 14
    frequency:    25.7121413580
  - # 15
    frequency:    29.3659177474
  - # 16
    frequency:    29.3682677327
  - # 17
    frequency:    29.7829166560
  - # 18
    frequency:    29.7829166560
  - # 19
    frequency:    30.0033128002
  - # 20
    frequency:    30.0033128002
  - # 21
    frequency:    32.2447518794
  - # 22
    frequency:    32.2459089023
  - # 23
    frequency:    34.4098354100
  - # 24
    frequency:    34.4299658315

- q-position: [    0.3854167,    0.0104167,    0.0104167 ]
  distance_from_gamma:  0.103381133
  weight: 24   
  band:
  - # 1
    frequency:    11.0233584808
  - # 2
    frequency:    11.0296476564
  - # 3
    frequency:    15.7610621399
  - # 4
    frequency:    16.6120315846
  - # 5
    frequency:    16.6197251523
  - # 6
    frequency:    23.3231935928
  - # 7
    frequency:    24.0131060617
  - # 8
    frequency:    24.0131060617
  - # 9
    frequency:    24.3280999464
  - # 10
    frequency:    24.3280999464
  - # 11
    frequency:    25.6163566729
  - # 12
    frequency:    25.6163566729
  - # 13
    frequency:    25.7266801298
  - # 14
    frequency:    25.7266801298
  - # 15
    frequency:    29.6168334899
  - # 16
    frequency:    29.6189823480
  - # 17
    frequency:    29.6699380377
  - # 18
    frequency:    29.6699380377
  - # 19
    frequency:    29.8700613731
  - # 20
    frequency:    29.8700613731
  - # 21
    frequency:    32.0617306343
  - # 22
    frequency:    32.0629398549
  - # 23
    frequency:    34.4450459377
  - # 24
    frequency:    34.4755710955

- q-position: [    0.4062500,    0.0104167,    0.0104167 ]
  distance_from_gamma:  0.108961360
  weight: 24   
  band:
  - # 1
    frequency:    11.5721478535
  - # 2
    frequency:    11.5786130993
  - # 3
    frequency:    16.1490478259
  - # 4
    frequency:    16.1566682200
  - # 5
    frequency:    16.5208802823
  - # 6
    frequency:    22.7130637957
  - # 7
    frequency:    24.0997314949
  - # 8
    frequency:    24.0997314949
  - # 9
    frequency:    24.4297661694
  - # 10
    frequency:    24.4297661694
  - # 11
    frequency:    25.6345406302
  - # 12
    frequency:    25.6345406302
  - # 13
    frequency:    25.7390531923
  - # 14
    frequency:    25.7390531923
  - # 15
    frequency:    29.5715363761
  - # 16
    frequency:    29.5715363761
  - # 17
    frequency:    29.7474934431
  - # 18
    frequency:    29.7474934431
  - # 19
    frequency:    29.8643955702
  - # 20
    frequency:    29.8663859612
  - # 21
    frequency:    31.8708875713
  - # 22
    frequency:    31.8721505951
  - # 23
    frequency:    34.4770068939
  - # 24
    frequency:    34.5112131676

- q-position: [    0.4270833,    0.0104167,    0.0104167 ]
  distance_from_gamma:  0.114541963
  weight: 24   
  band:
  - # 1
    frequency:    12.1137438870
  - # 2
    frequency:    12.1203775479
  - # 3
    frequency:    15.6762615546
  - # 4
    frequency:    15.6837975257
  - # 5
    frequency:    17.2674020549
  - # 6
    frequency:    22.0866400763
  - # 7
    frequency:    24.1717089452
  - # 8
    frequency:    24.1717089452
  - # 9
    frequency:    24.5149545786
  - # 10
    frequency:    24.5149545786
  - # 11
    frequency:    25.6553721701
  - # 12
    frequency:    25.6553721701
  - # 13
    frequency:    25.7477771670
  - # 14
    frequency:    25.7477771670
  - # 15
    frequency:    29.4912310295
  - # 16
    frequency:    29.4912310295
  - # 17
    frequency:    29.6393017503
  - # 18
    frequency:    29.6393017503
  - # 19
    frequency:    30.1081626001
  - # 20
    frequency:    30.1100239649
  - # 21
    frequency:    31.6725835983
  - # 22
    frequency:    31.6739024559
  - # 23
    frequency:    34.5050544044
  - # 24
    frequency:    34.5374194962

- q-position: [    0.4479167,    0.0104167,    0.0104167 ]
  distance_from_gamma:  0.120122890
  weight: 24   
  band:
  - # 1
    frequency:    12.6478029788
  - # 2
    frequency:    12.6545964615
  - # 3
    frequency:    15.1939089155
  - # 4
    frequency:    15.2013490021
  - # 5
    frequency:    18.0001755519
  - # 6
    frequency:    21.4441440562
  - # 7
    frequency:    24.2272221846
  - # 8
    frequency:    24.2272221846
  - # 9
    frequency:    24.5810470650
  - # 10
    frequency:    24.5810470650
  - # 11
    frequency:    25.6777660696
  - # 12
    frequency:    25.6777660696
  - # 13
    frequency:    25.7514075496
  - # 14
    frequency:    25.7514075496
  - # 15
    frequency:    29.4320172328
  - # 16
    frequency:    29.4320172328
  - # 17
    frequency:    29.5495060754
  - # 18
    frequency:    29.5495060754
  - # 19
    frequency:    30.3477009416
  - # 20
    frequency:    30.3494542642
  - # 21
    frequency:    31.4671921123
  - # 22
    frequency:    31.4685694599
  - # 23
    frequency:    34.5285276755
  - # 24
    frequency:    34.5547382462

- q-position: [    0.4687500,    0.0104167,    0.0104167 ]
  distance_from_gamma:  0.125704098
  weight: 24   
  band:
  - # 1
    frequency:    13.1739935182
  - # 2
    frequency:    13.1809374295
  - # 3
    frequency:    14.7022374819
  - # 4
    frequency:    14.7095702022
  - # 5
    frequency:    18.7187797375
  - # 6
    frequency:    20.7858223905
  - # 7
    frequency:    24.2649368444
  - # 8
    frequency:    24.2649368444
  - # 9
    frequency:    24.6260927373
  - # 10
    frequency:    24.6260927373
  - # 11
    frequency:    25.6997594188
  - # 12
    frequency:    25.6997594188
  - # 13
    frequency:    25.7490259759
  - # 14
    frequency:    25.7490259759
  - # 15
    frequency:    29.3955261249
  - # 16
    frequency:    29.3955261249
  - # 17
    frequency:    29.4826820997
  - # 18
    frequency:    29.4826820997
  - # 19
    frequency:    30.5825829688
  - # 20
    frequency:    30.5842435406
  - # 21
    frequency:    31.2550977029
  - # 22
    frequency:    31.2565370694
  - # 23
    frequency:    34.5467721242
  - # 24
    frequency:    34.5637374724

- q-position: [    0.4895833,    0.0104167,    0.0104167 ]
  distance_from_gamma:  0.131285552
  weight: 24   
  band:
  - # 1
    frequency:    13.6919968802
  - # 2
    frequency:    13.6990811536
  - # 3
    frequency:    14.2015082949
  - # 4
    frequency:    14.2087223132
  - # 5
    frequency:    19.4228241603
  - # 6
    frequency:    20.1119485678
  - # 7
    frequency:    24.2839992748
  - # 8
    frequency:    24.2839992748
  - # 9
    frequency:    24.6488874490
  - # 10
    frequency:    24.6488874490
  - # 11
    frequency:    25.7176974362
  - # 12
    frequency:    25.7176974362
  - # 13
    frequency:    25.7416795282
  - # 14
    frequency:    25.7416795282
  - # 15
    frequency:    29.3801760741
  - # 16
    frequency:    29.3801760741
  - # 17
    frequency:    29.4451048260
  - # 18
    frequency:    29.4451048260
  - # 19
    frequency:    30.8123864687
  - # 20
    frequency:    30.8139655923
  - # 21
    frequency:    31.0366948218
  - # 22
    frequency:    31.0382009186
  - # 23
    frequency:    34.5591422199
  - # 24
    frequency:    34.5650040314

- q-position: [    0.0312500,    0.0312500,    0.0104167 ]
  distance_from_gamma:  0.012170246
  weight: 24   
  band:
  - # 1
    frequency:     1.3495317987
  - # 2
    frequency:     1.3775898469
  - # 3
    frequency:     1.9221228568
  - # 4
    frequency:    22.4143240301
  - # 5
    frequency:    22.4143240301
  - # 6
    frequency:    22.4422307236
  - # 7
    frequency:    22.4422307236
  - # 8
    frequency:    22.4726037839
  - # 9
    frequency:    22.5572014626
  - # 10
    frequency:    25.5562622821
  - # 11
    frequency:    25.5767450453
  - # 12
    frequency:    25.6257768869
  - # 13
    frequency:    25.6257768869
  - # 14
    frequency:    25.6325079684
  - # 15
    frequency:    25.6325079684
  - # 16
    frequency:    31.1096867387
  - # 17
    frequency:    31.1096867387
  - # 18
    frequency:    31.3997839212
  - # 19
    frequency:    31.6957907542
  - # 20
    frequency:    31.9824048801
  - # 21
    frequency:    31.9824048801
  - # 22
    frequency:    33.8671681593
  - # 23
    frequency:    33.8698543015
  - # 24
    frequency:    33.9008471279

- q-position: [    0.0520833,    0.0312500,    0.0104167 ]
  distance_from_gamma:  0.016517967
  weight: 48   
  band:
  - # 1
    frequency:     1.8281002049
  - # 2
    frequency:     1.8592331543
  - # 3
    frequency:     2.6153859279
  - # 4
    frequency:    22.2765087241
  - # 5
    frequency:    22.3038510773
  - # 6
    frequency:    22.4322713468
  - # 7
    frequency:    22.4719436232
  - # 8
    frequency:    22.4789322791
  - # 9
    frequency:    22.6124508211
  - # 10
    frequency:    25.5499751378
  - # 11
    frequency:    25.5842194134
  - # 12
    frequency:    25.6238430199
  - # 13
    frequency:    25.6358901127
  - # 14
    frequency:    25.7439468298
  - # 15
    frequency:    25.7505142032
  - # 16
    frequency:    30.7868185781
  - # 17
    frequency:    31.0830979741
  - # 18
    frequency:    31.3670863975
  - # 19
    frequency:    31.6719556801
  - # 20
    frequency:    31.9527014082
  - # 21
    frequency:    32.2415908105
  - # 22
    frequency:    33.8448257644
  - # 23
    frequency:    33.8487906629
  - # 24
    frequency:    33.9087528662

- q-position: [    0.0729167,    0.0312500,    0.0104167 ]
  distance_from_gamma:  0.021446112
  weight: 48   
  band: