       N       E                     dE             d eps       ncg     rms          rms(c)
DAV:   1     0.495991916469E+03    0.49599E+03   -0.11145E+05  7680   0.105E+03
DAV:   2    -0.543144881215E+03   -0.10391E+04   -0.98817E+03 10368   0.223E+02
DAV:   3    -0.586612764179E+03   -0.43468E+02   -0.43179E+02 10240   0.428E+01
DAV:   4    -0.587187192950E+03   -0.57443E+00   -0.57332E+00 10368   0.530E+00
DAV:   5    -0.587199407003E+03   -0.12214E-01   -0.12209E-01  9600   0.749E-01    0.228E+01
DAV:   6    -0.577544755553E+03    0.96547E+01   -0.66024E+00  9152   0.495E+00    0.128E+01
DAV:   7    -0.574274323680E+03    0.32704E+01   -0.78908E+00  9120   0.558E+00    0.182E+00
DAV:   8    -0.574320431370E+03   -0.46108E-01   -0.18635E-01  9728   0.844E-01    0.196E-01
DAV:   9    -0.574322660950E+03   -0.22296E-02   -0.37224E-03  9984   0.141E-01    0.737E-02
DAV:  10    -0.574323125109E+03   -0.46416E-03   -0.47699E-04  9504   0.552E-02    0.755E-03
DAV:  11    -0.574323126780E+03   -0.16714E-05   -0.11618E-05 10112   0.732E-03    0.194E-03
DAV:  12    -0.574323127449E+03   -0.66861E-06   -0.67537E-07  9888   0.189E-03    0.341E-04
DAV:  13    -0.574323127567E+03   -0.11793E-06   -0.14261E-08  7776   0.266E-04    0.275E-04
DAV:  14    -0.574323127561E+03    0.56498E-08   -0.20002E-09  6880   0.103E-04
   1 F= -.57432313E+03 E0= -.57432313E+03  d E =-.271398E-15
 Linear response reoptimize wavefunctions
DAV:   1    -0.574323127561E+03    0.36289E-09   -0.50707E-10  6240   0.500E-05
DAV:   2    -0.574323127561E+03    0.73669E-10   -0.13146E-10  5856   0.261E-05
 Linear response DOF=           1
 Linear response progress:
  Degree of freedom:   1/  1
       N       E                     dE             d eps       ncg     rms          rms(c)
RMM:   1    -0.136821225989E+00   -0.13682E+00    0.12517E-02 54962   0.693E-01
RMM:   2    -0.119190498131E+00    0.17631E-01   -0.70288E-03 34132   0.177E-01    0.147E-01
RMM:   3    -0.119167037547E+00    0.23461E-04   -0.58252E-04 35781   0.403E-02    0.778E-02
RMM:   4    -0.119346768810E+00   -0.17973E-03   -0.14819E-04 36093   0.212E-02    0.247E-02
RMM:   5    -0.119400134166E+00   -0.53365E-04   -0.10942E-05 36366   0.633E-03    0.590E-03
RMM:   6    -0.119381069624E+00    0.19065E-04   -0.94170E-07 37144   0.182E-03    0.125E-03
RMM:   7    -0.119372680011E+00    0.83896E-05   -0.16203E-07 37653   0.626E-04    0.347E-04
RMM:   8    -0.119372297320E+00    0.38269E-06    0.15671E-07 39435   0.290E-04    0.899E-05
RMM:   9    -0.119372080962E+00    0.21636E-06   -0.14788E-07 41564   0.211E-04    0.389E-05
RMM:  10    -0.119372209775E+00   -0.12881E-06   -0.25568E-07 42566   0.201E-04    0.126E-05
RMM:  11    -0.119372205170E+00    0.46048E-08   -0.13164E-07 42960   0.198E-04    0.517E-06
 Linear response finished
