 vasp.5.4.4.18Apr17-6-g9f103f2a35 (build Mar 12 2022 03:36:41) complex          
  
 executed on IFC19.0.3.199_CrayMP date 2022.12.02  02:55:49
 running on   32 total cores
 distrk:  each k-point on   32 cores,    1 groups
 distr:  one band on NCORES_PER_BAND=   1 cores,   32 groups


--------------------------------------------------------------------------------------------------------


 INCAR:
 POTCAR:   PAW_PBE C 08Apr2002                    

 ----------------------------------------------------------------------------- 
|                                                                             |
|           W    W    AA    RRRRR   N    N  II  N    N   GGGG   !!!           |
|           W    W   A  A   R    R  NN   N  II  NN   N  G    G  !!!           |
|           W    W  A    A  R    R  N N  N  II  N N  N  G       !!!           |
|           W WW W  AAAAAA  RRRRR   N  N N  II  N  N N  G  GGG   !            |
|           WW  WW  A    A  R   R   N   NN  II  N   NN  G    G                |
|           W    W  A    A  R    R  N    N  II  N    N   GGGG   !!!           |
|                                                                             |
|      For optimal performance we recommend to set                            |
|        NCORE= 4 - approx SQRT( number of cores)                             |
|      NCORE specifies how many cores store one orbital (NPAR=cpu/NCORE).     |
|      This setting can  greatly improve the performance of VASP for DFT.     |
|      The default,   NCORE=1            might be grossly inefficient         |
|      on modern multi-core architectures or massively parallel machines.     |
|      Do your own testing !!!!                                               |
|      Unfortunately you need to use the default for GW and RPA calculations. |
|      (for HF NCORE is supported but not extensively tested yet)             |
|                                                                             |
 ----------------------------------------------------------------------------- 

 POTCAR:   PAW_PBE C 08Apr2002                    
   VRHFIN =C: s2p2                                                              
   LEXCH  = PE                                                                  
   EATOM  =   147.1560 eV,   10.8157 Ry                                         
                                                                                
   TITEL  = PAW_PBE C 08Apr2002                                                 
   LULTRA =        F    use ultrasoft PP ?                                      
   IUNSCR =        0    unscreen: 0-lin 1-nonlin 2-no                           
   RPACOR =     .000    partial core radius                                     
   POMASS =   12.011; ZVAL   =    4.000    mass and valenz                      
   RCORE  =    1.500    outmost cutoff radius                                   
   RWIGS  =    1.630; RWIGS  =     .863    wigner-seitz radius (au A)           
   ENMAX  =  400.000; ENMIN  =  300.000 eV                                      
   ICORE  =        2    local potential                                         
   LCOR   =        T    correct aug charges                                     
   LPAW   =        T    paw PP                                                  
   EAUG   =  644.873                                                            
   DEXC   =     .000                                                            
   RMAX   =    2.266    core radius for proj-oper                               
   RAUG   =    1.300    factor for augmentation sphere                          
   RDEP   =    1.501    radius for radial grids                                 
   RDEPT  =    1.300    core radius for aug-charge                              
   QCUT   =   -5.516; QGAM   =   11.032    optimization parameters              
                                                                                
   Description                                                                  
     l     E      TYP  RCUT    TYP  RCUT                                        
     0   .000     23  1.200                                                     
     0   .000     23  1.200                                                     
     1   .000     23  1.500                                                     
     1  2.500     23  1.500                                                     
     2   .000      7  1.500                                                     
  local pseudopotential read in
  atomic valenz-charges read in
  non local Contribution for L=           0  read in
    real space projection operators read in
  non local Contribution for L=           0  read in
    real space projection operators read in
  non local Contribution for L=           1  read in
    real space projection operators read in
  non local Contribution for L=           1  read in
    real space projection operators read in
    PAW grid and wavefunctions read in
 
   number of l-projection  operators is LMAX  =           4
   number of lm-projection operators is LMMAX =           8
 

 ----------------------------------------------------------------------------- 
|                                                                             |
|  ADVICE TO THIS USER RUNNING 'VASP/VAMP'   (HEAR YOUR MASTER'S VOICE ...):  |
|                                                                             |
|      You have a (more or less) 'large supercell' and for larger cells       |
|      it might be more efficient to use real space projection operators      |
|      So try LREAL= Auto  in the INCAR   file.                               |
|      Mind: If you want to do a very accurate calculations keep the          |
|      reciprocal projection scheme          (i.e. LREAL=.FALSE.)             |
|                                                                             |
 ----------------------------------------------------------------------------- 

 PAW_PBE C 08Apr2002                    :
 energy of atom  1       EATOM= -147.1560
 kinetic energy error for atom=    0.0288 (will be added to EATOM!!)
 
 
 POSCAR: generated by phonopy                    
  positions in direct lattice
  No initial velocities read in
 exchange correlation table for  LEXCH =        8
   RHO(1)=    0.500       N(1)  =     2000
   RHO(2)=  100.500       N(2)  =     4000
 


--------------------------------------------------------------------------------------------------------


 ion  position               nearest neighbor table
   1  0.125  0.375  0.125-  11 1.62  25 1.62  43 1.62  57 1.62
   2  0.625  0.375  0.125-  12 1.62  26 1.62  44 1.62  58 1.62
   3  0.125  0.875  0.125-   9 1.62  27 1.62  41 1.62  59 1.62
   4  0.625  0.875  0.125-  10 1.62  28 1.62  42 1.62  60 1.62
   5  0.125  0.375  0.625-  15 1.62  29 1.62  47 1.62  61 1.62
   6  0.625  0.375  0.625-  16 1.62  30 1.62  48 1.62  62 1.62
   7  0.125  0.875  0.625-  13 1.62  31 1.62  45 1.62  63 1.62
   8  0.625  0.875  0.625-  14 1.62  32 1.62  46 1.62  64 1.62
   9  0.000  0.000  0.250-   3 1.62  17 1.62  36 1.62  50 1.62
  10  0.500  0.000  0.250-   4 1.62  18 1.62  35 1.62  49 1.62
  11  0.000  0.500  0.250-   1 1.62  19 1.62  34 1.62  52 1.62
  12  0.500  0.500  0.250-   2 1.62  20 1.62  33 1.62  51 1.62
  13  0.000  0.000  0.750-   7 1.62  21 1.62  40 1.62  54 1.62
  14  0.500  0.000  0.750-   8 1.62  22 1.62  39 1.62  53 1.62
  15  0.000  0.500  0.750-   5 1.62  23 1.62  38 1.62  56 1.62
  16  0.500  0.500  0.750-   6 1.62  24 1.62  37 1.62  55 1.62
  17  0.125  0.125  0.375-   9 1.62  29 1.62  45 1.62  57 1.62
  18  0.625  0.125  0.375-  10 1.62  30 1.62  46 1.62  58 1.62
  19  0.125  0.625  0.375-  11 1.62  31 1.62  47 1.62  59 1.62
  20  0.625  0.625  0.375-  12 1.62  32 1.62  48 1.62  60 1.62
  21  0.125  0.125  0.875-  13 1.62  25 1.62  41 1.62  61 1.62
  22  0.625  0.125  0.875-  14 1.62  26 1.62  42 1.62  62 1.62
  23  0.125  0.625  0.875-  15 1.62  27 1.62  43 1.62  63 1.62
  24  0.625  0.625  0.875-  16 1.62  28 1.62  44 1.62  64 1.62
  25  0.000  0.250  0.000-   1 1.62  21 1.62  38 1.62  50 1.62
  26  0.500  0.250  0.000-   2 1.62  22 1.62  37 1.62  49 1.62
  27  0.000  0.750  0.000-   3 1.62  23 1.62  40 1.62  52 1.62
  28  0.500  0.750  0.000-   4 1.62  24 1.62  39 1.62  51 1.62
  29  0.000  0.250  0.500-   5 1.62  17 1.62  34 1.62  54 1.62
  30  0.500  0.250  0.500-   6 1.62  18 1.62  33 1.62  53 1.62
  31  0.000  0.750  0.500-   7 1.62  19 1.62  36 1.62  56 1.62
  32  0.500  0.750  0.500-   8 1.62  20 1.62  35 1.62  55 1.62
  33  0.375  0.375  0.375-  12 1.62  30 1.62  47 1.62  57 1.62
  34  0.875  0.375  0.375-  11 1.62  29 1.62  48 1.62  58 1.62
  35  0.375  0.875  0.375-  10 1.62  32 1.62  45 1.62  59 1.62
  36  0.875  0.875  0.375-   9 1.62  31 1.62  46 1.62  60 1.62
  37  0.375  0.375  0.875-  16 1.62  26 1.62  43 1.62  61 1.62
  38  0.875  0.375  0.875-  15 1.62  25 1.62  44 1.62  62 1.62
  39  0.375  0.875  0.875-  14 1.62  28 1.62  41 1.62  63 1.62
  40  0.875  0.875  0.875-  13 1.62  27 1.62  42 1.62  64 1.62
  41  0.250  0.000  0.000-   3 1.62  21 1.62  39 1.62  49 1.62
  42  0.750  0.000  0.000-   4 1.62  22 1.62  40 1.62  50 1.62
  43  0.250  0.500  0.000-   1 1.62  23 1.62  37 1.62  51 1.62
  44  0.750  0.500  0.000-   2 1.62  24 1.62  38 1.62  52 1.62
  45  0.250  0.000  0.500-   7 1.62  17 1.62  35 1.62  53 1.62
  46  0.750  0.000  0.500-   8 1.62  18 1.62  36 1.62  54 1.62
  47  0.250  0.500  0.500-   5 1.62  19 1.62  33 1.62  55 1.62
  48  0.750  0.500  0.500-   6 1.62  20 1.62  34 1.62  56 1.62
  49  0.375  0.125  0.125-  10 1.62  26 1.62  41 1.62  57 1.62
  50  0.875  0.125  0.125-   9 1.62  25 1.62  42 1.62  58 1.62
  51  0.375  0.625  0.125-  12 1.62  28 1.62  43 1.62  59 1.62
  52  0.875  0.625  0.125-  11 1.62  27 1.62  44 1.62  60 1.62
  53  0.375  0.125  0.625-  14 1.62  30 1.62  45 1.62  61 1.62
  54  0.875  0.125  0.625-  13 1.62  29 1.62  46 1.62  62 1.62
  55  0.375  0.625  0.625-  16 1.62  32 1.62  47 1.62  63 1.62
  56  0.875  0.625  0.625-  15 1.62  31 1.62  48 1.62  64 1.62
  57  0.250  0.250  0.250-   1 1.62  17 1.62  33 1.62  49 1.62
  58  0.750  0.250  0.250-   2 1.62  18 1.62  34 1.62  50 1.62
  59  0.250  0.750  0.250-   3 1.62  19 1.62  35 1.62  51 1.62
  60  0.750  0.750  0.250-   4 1.62  20 1.62  36 1.62  52 1.62
  61  0.250  0.250  0.750-   5 1.62  21 1.62  37 1.62  53 1.62
  62  0.750  0.250  0.750-   6 1.62  22 1.62  38 1.62  54 1.62
  63  0.250  0.750  0.750-   7 1.62  23 1.62  39 1.62  55 1.62
  64  0.750  0.750  0.750-   8 1.62  24 1.62  40 1.62  56 1.62
 
  LATTYP: Found a simple cubic cell.
 ALAT       =     7.4616727934
  
  Lattice vectors:
  
 A1 = (   7.4616727934,   0.0000000000,   0.0000000000)
 A2 = (   0.0000000000,   7.4616727934,   0.0000000000)
 A3 = (   0.0000000000,   0.0000000000,   7.4616727934)


Analysis of symmetry for initial positions (statically):
=====================================================================
 Subroutine PRICEL returns following result:
 
  LATTYP: Found a face centered cubic cell.
 ALAT       =     3.7308363967
  
  Lattice vectors:
  
 A1 = (   1.8654181984,   1.8654181984,  -0.0000000000)
 A2 = (   1.8654181984,   0.0000000000,  -1.8654181984)
 A3 = (   0.0000000000,   1.8654181984,  -1.8654181984)
 
  32 primitive cells build up your supercell.
 

 Routine SETGRP: Setting up the symmetry group for a 
 simple cubic supercell.


 Subroutine GETGRP returns: Found 48 space group operations
 (whereof 24 operations were pure point group operations)
 out of a pool of 48 trial point group operations.


The static configuration has the point symmetry T_d .
 The point group associated with its full space group is O_h .


Analysis of symmetry for dynamics (positions and initial velocities):
=====================================================================
 Subroutine PRICEL returns following result:
 
  LATTYP: Found a face centered cubic cell.
 ALAT       =     3.7308363967
  
  Lattice vectors:
  
 A1 = (   1.8654181984,   1.8654181984,  -0.0000000000)
 A2 = (   1.8654181984,   0.0000000000,  -1.8654181984)
 A3 = (   0.0000000000,   1.8654181984,  -1.8654181984)
 
  32 primitive cells build up your supercell.
 

 Routine SETGRP: Setting up the symmetry group for a 
 simple cubic supercell.


 Subroutine GETGRP returns: Found 48 space group operations
 (whereof 24 operations were pure point group operations)
 out of a pool of 48 trial point group operations.


The dynamic configuration has the point symmetry T_d .
 The point group associated with its full space group is O_h .


 Subroutine INISYM returns: Found 48 space group operations
 (whereof 24 operations are pure point group operations),
 and found    32 'primitive' translations

 
 
 KPOINTS: kpt_density=3000                        

Automatic generation of k-mesh.
Space group operators:
 irot       det(A)        alpha          n_x          n_y          n_z        tau_x        tau_y        tau_z
    1     1.000000     0.000000     1.000000     0.000000     0.000000     0.000000     0.000000     0.000000
    2     1.000000   120.000000    -0.577350    -0.577350    -0.577350     0.000000     0.000000     0.000000
    3     1.000000   120.000000     0.577350     0.577350     0.577350     0.000000     0.000000     0.000000
    4    -1.000000    90.000000     0.000000     0.000000    -1.000000     0.000000     0.000000     0.000000
    5    -1.000000   180.000000     0.000000     0.707107     0.707107     0.000000     0.000000     0.000000
    6    -1.000000    90.000000     0.000000     1.000000     0.000000     0.000000     0.000000     0.000000
    7     1.000000   180.000000     0.000000     0.000000     1.000000     0.000000     0.000000     0.000000
    8     1.000000   120.000000    -0.577350     0.577350     0.577350     0.000000     0.000000     0.000000
    9     1.000000   120.000000    -0.577350     0.577350    -0.577350     0.000000     0.000000     0.000000
   10    -1.000000    90.000000     0.000000     0.000000     1.000000     0.000000     0.000000     0.000000
   11    -1.000000    90.000000    -1.000000     0.000000     0.000000     0.000000     0.000000     0.000000
   12    -1.000000   180.000000     0.707107     0.000000     0.707107     0.000000     0.000000     0.000000
   13     1.000000   120.000000     0.577350    -0.577350     0.577350     0.000000     0.000000     0.000000
   14     1.000000   120.000000    -0.577350    -0.577350     0.577350     0.000000     0.000000     0.000000
   15     1.000000   180.000000     1.000000     0.000000     0.000000     0.000000     0.000000     0.000000
   16    -1.000000    90.000000     0.000000    -1.000000     0.000000     0.000000     0.000000     0.000000
   17    -1.000000   180.000000     0.707107     0.707107     0.000000     0.000000     0.000000     0.000000
   18    -1.000000    90.000000     1.000000     0.000000     0.000000     0.000000     0.000000     0.000000
   19     1.000000   120.000000     0.577350    -0.577350    -0.577350     0.000000     0.000000     0.000000
   20     1.000000   180.000000     0.000000     1.000000     0.000000     0.000000     0.000000     0.000000
   21     1.000000   120.000000     0.577350     0.577350    -0.577350     0.000000     0.000000     0.000000
   22    -1.000000   180.000000     0.000000    -0.707107     0.707107     0.000000     0.000000     0.000000
   23    -1.000000   180.000000     0.707107    -0.707107     0.000000     0.000000     0.000000     0.000000
   24    -1.000000   180.000000     0.707107     0.000000    -0.707107     0.000000     0.000000     0.000000
   25    -1.000000     0.000000     1.000000     0.000000     0.000000     0.375000     0.375000    -0.375000
   26    -1.000000   120.000000    -0.577350    -0.577350    -0.577350     0.375000     0.375000    -0.375000
   27    -1.000000   120.000000     0.577350     0.577350     0.577350     0.375000     0.375000    -0.375000
   28     1.000000    90.000000     0.000000     0.000000    -1.000000     0.375000     0.375000    -0.375000
   29     1.000000   180.000000     0.000000     0.707107     0.707107     0.375000     0.375000    -0.375000
   30     1.000000    90.000000     0.000000     1.000000     0.000000     0.375000     0.375000    -0.375000
   31    -1.000000   180.000000     0.000000     0.000000     1.000000     0.375000     0.375000    -0.375000
   32    -1.000000   120.000000    -0.577350     0.577350     0.577350     0.375000     0.375000    -0.375000
   33    -1.000000   120.000000    -0.577350     0.577350    -0.577350     0.375000     0.375000    -0.375000
   34     1.000000    90.000000     0.000000     0.000000     1.000000     0.375000     0.375000    -0.375000
   35     1.000000    90.000000    -1.000000     0.000000     0.000000     0.375000     0.375000    -0.375000
   36     1.000000   180.000000     0.707107     0.000000     0.707107     0.375000     0.375000    -0.375000
   37    -1.000000   120.000000     0.577350    -0.577350     0.577350     0.375000     0.375000    -0.375000
   38    -1.000000   120.000000    -0.577350    -0.577350     0.577350     0.375000     0.375000    -0.375000
   39    -1.000000   180.000000     1.000000     0.000000     0.000000     0.375000     0.375000    -0.375000
   40     1.000000    90.000000     0.000000    -1.000000     0.000000     0.375000     0.375000    -0.375000
   41     1.000000   180.000000     0.707107     0.707107     0.000000     0.375000     0.375000    -0.375000
   42     1.000000    90.000000     1.000000     0.000000     0.000000     0.375000     0.375000    -0.375000
   43    -1.000000   120.000000     0.577350    -0.577350    -0.577350     0.375000     0.375000    -0.375000
   44    -1.000000   180.000000     0.000000     1.000000     0.000000     0.375000     0.375000    -0.375000
   45    -1.000000   120.000000     0.577350     0.577350    -0.577350     0.375000     0.375000    -0.375000
   46     1.000000   180.000000     0.000000    -0.707107     0.707107     0.375000     0.375000    -0.375000
   47     1.000000   180.000000     0.707107    -0.707107     0.000000     0.375000     0.375000    -0.375000
   48     1.000000   180.000000     0.707107     0.000000    -0.707107     0.375000     0.375000    -0.375000
 
 Subroutine IBZKPT returns following result:
 ===========================================
 
 Found     20 irreducible k-points:
 
 Following reciprocal coordinates:
            Coordinates               Weight
  0.000000  0.000000  0.000000      1.000000
  0.166667  0.000000  0.000000      6.000000
  0.333333  0.000000  0.000000      6.000000
  0.500000  0.000000  0.000000      3.000000
  0.166667  0.166667  0.000000     12.000000
  0.333333  0.166667  0.000000     24.000000
  0.500000  0.166667  0.000000     12.000000
  0.333333  0.333333  0.000000     12.000000
  0.500000  0.333333  0.000000     12.000000
  0.500000  0.500000  0.000000      3.000000
  0.166667  0.166667  0.166667      8.000000
  0.333333  0.166667  0.166667     24.000000
  0.500000  0.166667  0.166667     12.000000
  0.333333  0.333333  0.166667     24.000000
  0.500000  0.333333  0.166667     24.000000
  0.500000  0.500000  0.166667      6.000000
  0.333333  0.333333  0.333333      8.000000
  0.500000  0.333333  0.333333     12.000000
  0.500000  0.500000  0.333333      6.000000
  0.500000  0.500000  0.500000      1.000000
 
 Following cartesian coordinates:
            Coordinates               Weight
  0.000000  0.000000  0.000000      1.000000
  0.022336  0.000000  0.000000      6.000000
  0.044673  0.000000  0.000000      6.000000
  0.067009  0.000000  0.000000      3.000000
  0.022336  0.022336  0.000000     12.000000
  0.044673  0.022336  0.000000     24.000000
  0.067009  0.022336  0.000000     12.000000
  0.044673  0.044673  0.000000     12.000000
  0.067009  0.044673  0.000000     12.000000
  0.067009  0.067009  0.000000      3.000000
  0.022336  0.022336  0.022336      8.000000
  0.044673  0.022336  0.022336     24.000000
  0.067009  0.022336  0.022336     12.000000
  0.044673  0.044673  0.022336     24.000000
  0.067009  0.044673  0.022336     24.000000
  0.067009  0.067009  0.022336      6.000000
  0.044673  0.044673  0.044673      8.000000
  0.067009  0.044673  0.044673     12.000000
  0.067009  0.067009  0.044673      6.000000
  0.067009  0.067009  0.067009      1.000000
 
 
 Subroutine IBZKPT_HF returns following result:
 ==============================================
 
 Found    216 k-points in 1st BZ
 the following    216 k-points will be used (e.g. in the exchange kernel)
 Following reciprocal coordinates:   # in IRBZ
  0.000000  0.000000  0.000000    0.00462963   1 t-inv F
  0.166667  0.000000  0.000000    0.00462963   2 t-inv F
  0.333333  0.000000  0.000000    0.00462963   3 t-inv F
  0.500000  0.000000  0.000000    0.00462963   4 t-inv F
  0.166667  0.166667  0.000000    0.00462963   5 t-inv F
  0.333333  0.166667  0.000000    0.00462963   6 t-inv F
  0.500000  0.166667  0.000000    0.00462963   7 t-inv F
  0.333333  0.333333  0.000000    0.00462963   8 t-inv F
  0.500000  0.333333  0.000000    0.00462963   9 t-inv F
  0.500000  0.500000  0.000000    0.00462963  10 t-inv F
  0.166667  0.166667  0.166667    0.00462963  11 t-inv F
  0.333333  0.166667  0.166667    0.00462963  12 t-inv F
  0.500000  0.166667  0.166667    0.00462963  13 t-inv F
  0.333333  0.333333  0.166667    0.00462963  14 t-inv F
  0.500000  0.333333  0.166667    0.00462963  15 t-inv F
  0.500000  0.500000  0.166667    0.00462963  16 t-inv F
  0.333333  0.333333  0.333333    0.00462963  17 t-inv F
  0.500000  0.333333  0.333333    0.00462963  18 t-inv F
  0.500000  0.500000  0.333333    0.00462963  19 t-inv F
  0.500000  0.500000  0.500000    0.00462963  20 t-inv F
  0.000000  0.166667  0.000000    0.00462963   2 t-inv F
  0.000000  0.000000  0.166667    0.00462963   2 t-inv F
  0.000000 -0.166667  0.000000    0.00462963   2 t-inv F
  0.000000  0.000000 -0.166667    0.00462963   2 t-inv F
 -0.166667  0.000000  0.000000    0.00462963   2 t-inv F
  0.000000  0.333333  0.000000    0.00462963   3 t-inv F
  0.000000  0.000000  0.333333    0.00462963   3 t-inv F
  0.000000 -0.333333  0.000000    0.00462963   3 t-inv F
  0.000000  0.000000 -0.333333    0.00462963   3 t-inv F
 -0.333333  0.000000  0.000000    0.00462963   3 t-inv F
  0.000000  0.500000  0.000000    0.00462963   4 t-inv F
  0.000000  0.000000  0.500000    0.00462963   4 t-inv F
  0.000000  0.166667  0.166667    0.00462963   5 t-inv F
  0.166667  0.000000  0.166667    0.00462963   5 t-inv F
  0.166667 -0.166667  0.000000    0.00462963   5 t-inv F
  0.166667  0.000000 -0.166667    0.00462963   5 t-inv F
  0.000000 -0.166667 -0.166667    0.00462963   5 t-inv F
 -0.166667 -0.166667  0.000000    0.00462963   5 t-inv F
  0.000000 -0.166667  0.166667    0.00462963   5 t-inv F
 -0.166667  0.000000  0.166667    0.00462963   5 t-inv F
 -0.166667  0.166667  0.000000    0.00462963   5 t-inv F
 -0.166667  0.000000 -0.166667    0.00462963   5 t-inv F
  0.000000  0.166667 -0.166667    0.00462963   5 t-inv F
  0.000000  0.333333  0.166667    0.00462963   6 t-inv F
  0.166667  0.000000  0.333333    0.00462963   6 t-inv F
  0.166667 -0.333333  0.000000    0.00462963   6 t-inv F
  0.333333  0.000000 -0.166667    0.00462963   6 t-inv F
  0.000000 -0.166667 -0.333333    0.00462963   6 t-inv F
 -0.333333 -0.166667  0.000000    0.00462963   6 t-inv F
  0.000000 -0.333333  0.166667    0.00462963   6 t-inv F
 -0.166667  0.000000  0.333333    0.00462963   6 t-inv F
 -0.166667  0.333333  0.000000    0.00462963   6 t-inv F
 -0.333333  0.000000 -0.166667    0.00462963   6 t-inv F
  0.000000  0.166667 -0.333333    0.00462963   6 t-inv F
  0.000000 -0.333333 -0.166667    0.00462963   6 t-inv F
  0.166667  0.000000 -0.333333    0.00462963   6 t-inv F
  0.333333 -0.166667  0.000000    0.00462963   6 t-inv F
  0.000000 -0.166667  0.333333    0.00462963   6 t-inv F
 -0.166667 -0.333333  0.000000    0.00462963   6 t-inv F
 -0.333333  0.000000  0.166667    0.00462963   6 t-inv F
 -0.166667  0.000000 -0.333333    0.00462963   6 t-inv F
 -0.333333  0.166667  0.000000    0.00462963   6 t-inv F
  0.000000  0.333333 -0.166667    0.00462963   6 t-inv F
  0.333333  0.000000  0.166667    0.00462963   6 t-inv F
  0.166667  0.333333  0.000000    0.00462963   6 t-inv F
  0.000000  0.166667  0.333333    0.00462963   6 t-inv F
  0.000000  0.500000  0.166667    0.00462963   7 t-inv F
  0.166667  0.000000  0.500000    0.00462963   7 t-inv F
  0.166667 -0.500000  0.000000    0.00462963   7 t-inv F
  0.500000  0.000000 -0.166667    0.00462963   7 t-inv F
  0.000000 -0.166667 -0.500000    0.00462963   7 t-inv F
 -0.500000 -0.166667  0.000000    0.00462963   7 t-inv F
 -0.166667  0.000000  0.500000    0.00462963   7 t-inv F
 -0.166667  0.500000  0.000000    0.00462963   7 t-inv F
  0.000000  0.166667 -0.500000    0.00462963   7 t-inv F
  0.000000 -0.500000 -0.166667    0.00462963   7 t-inv F
 -0.500000  0.000000  0.166667    0.00462963   7 t-inv F
  0.000000  0.333333  0.333333    0.00462963   8 t-inv F
  0.333333  0.000000  0.333333    0.00462963   8 t-inv F
  0.333333 -0.333333  0.000000    0.00462963   8 t-inv F
  0.333333  0.000000 -0.333333    0.00462963   8 t-inv F
  0.000000 -0.333333 -0.333333    0.00462963   8 t-inv F
 -0.333333 -0.333333  0.000000    0.00462963   8 t-inv F
  0.000000 -0.333333  0.333333    0.00462963   8 t-inv F
 -0.333333  0.000000  0.333333    0.00462963   8 t-inv F
 -0.333333  0.333333  0.000000    0.00462963   8 t-inv F
 -0.333333  0.000000 -0.333333    0.00462963   8 t-inv F
  0.000000  0.333333 -0.333333    0.00462963   8 t-inv F
  0.000000  0.500000  0.333333    0.00462963   9 t-inv F
  0.333333  0.000000  0.500000    0.00462963   9 t-inv F
  0.333333 -0.500000  0.000000    0.00462963   9 t-inv F
  0.500000  0.000000 -0.333333    0.00462963   9 t-inv F
  0.000000 -0.333333 -0.500000    0.00462963   9 t-inv F
 -0.500000 -0.333333  0.000000    0.00462963   9 t-inv F
 -0.333333  0.000000  0.500000    0.00462963   9 t-inv F
 -0.333333  0.500000  0.000000    0.00462963   9 t-inv F
  0.000000  0.333333 -0.500000    0.00462963   9 t-inv F
  0.000000 -0.500000 -0.333333    0.00462963   9 t-inv F
 -0.500000  0.000000  0.333333    0.00462963   9 t-inv F
  0.000000  0.500000  0.500000    0.00462963  10 t-inv F
  0.500000  0.000000  0.500000    0.00462963  10 t-inv F
  0.166667 -0.166667 -0.166667    0.00462963  11 t-inv F
 -0.166667 -0.166667  0.166667    0.00462963  11 t-inv F
 -0.166667  0.166667 -0.166667    0.00462963  11 t-inv F
 -0.166667 -0.166667 -0.166667    0.00462963  11 t-inv F
 -0.166667  0.166667  0.166667    0.00462963  11 t-inv F
  0.166667  0.166667 -0.166667    0.00462963  11 t-inv F
  0.166667 -0.166667  0.166667    0.00462963  11 t-inv F
  0.166667  0.333333  0.166667    0.00462963  12 t-inv F
  0.166667  0.166667  0.333333    0.00462963  12 t-inv F
  0.166667 -0.333333 -0.166667    0.00462963  12 t-inv F
  0.333333 -0.166667 -0.166667    0.00462963  12 t-inv F
  0.166667 -0.166667 -0.333333    0.00462963  12 t-inv F
 -0.333333 -0.166667  0.166667    0.00462963  12 t-inv F
 -0.166667 -0.333333  0.166667    0.00462963  12 t-inv F
 -0.166667 -0.166667  0.333333    0.00462963  12 t-inv F
 -0.166667  0.333333 -0.166667    0.00462963  12 t-inv F
 -0.333333  0.166667 -0.166667    0.00462963  12 t-inv F
 -0.166667  0.166667 -0.333333    0.00462963  12 t-inv F
 -0.333333 -0.166667 -0.166667    0.00462963  12 t-inv F
 -0.166667 -0.333333 -0.166667    0.00462963  12 t-inv F
 -0.166667 -0.166667 -0.333333    0.00462963  12 t-inv F
 -0.166667  0.333333  0.166667    0.00462963  12 t-inv F
 -0.333333  0.166667  0.166667    0.00462963  12 t-inv F
 -0.166667  0.166667  0.333333    0.00462963  12 t-inv F
  0.333333  0.166667 -0.166667    0.00462963  12 t-inv F
  0.166667  0.333333 -0.166667    0.00462963  12 t-inv F
  0.166667  0.166667 -0.333333    0.00462963  12 t-inv F
  0.166667 -0.333333  0.166667    0.00462963  12 t-inv F
  0.333333 -0.166667  0.166667    0.00462963  12 t-inv F
  0.166667 -0.166667  0.333333    0.00462963  12 t-inv F
  0.166667  0.500000  0.166667    0.00462963  13 t-inv F
  0.166667  0.166667  0.500000    0.00462963  13 t-inv F
  0.166667 -0.500000 -0.166667    0.00462963  13 t-inv F
  0.500000 -0.166667 -0.166667    0.00462963  13 t-inv F
  0.166667 -0.166667 -0.500000    0.00462963  13 t-inv F
 -0.500000 -0.166667  0.166667    0.00462963  13 t-inv F
 -0.166667 -0.500000  0.166667    0.00462963  13 t-inv F
 -0.166667 -0.166667  0.500000    0.00462963  13 t-inv F
 -0.166667  0.500000 -0.166667    0.00462963  13 t-inv F
 -0.500000  0.166667 -0.166667    0.00462963  13 t-inv F
 -0.166667  0.166667 -0.500000    0.00462963  13 t-inv F
  0.166667  0.333333  0.333333    0.00462963  14 t-inv F
  0.333333  0.166667  0.333333    0.00462963  14 t-inv F
  0.333333 -0.333333 -0.166667    0.00462963  14 t-inv F
  0.333333 -0.166667 -0.333333    0.00462963  14 t-inv F
  0.166667 -0.333333 -0.333333    0.00462963  14 t-inv F
 -0.333333 -0.333333  0.166667    0.00462963  14 t-inv F
 -0.166667 -0.333333  0.333333    0.00462963  14 t-inv F
 -0.333333 -0.166667  0.333333    0.00462963  14 t-inv F
 -0.333333  0.333333 -0.166667    0.00462963  14 t-inv F
 -0.333333  0.166667 -0.333333    0.00462963  14 t-inv F
 -0.166667  0.333333 -0.333333    0.00462963  14 t-inv F
 -0.333333 -0.333333 -0.166667    0.00462963  14 t-inv F
 -0.166667 -0.333333 -0.333333    0.00462963  14 t-inv F
 -0.333333 -0.166667 -0.333333    0.00462963  14 t-inv F
 -0.333333  0.333333  0.166667    0.00462963  14 t-inv F
 -0.333333  0.166667  0.333333    0.00462963  14 t-inv F
 -0.166667  0.333333  0.333333    0.00462963  14 t-inv F
  0.333333  0.333333 -0.166667    0.00462963  14 t-inv F
  0.166667  0.333333 -0.333333    0.00462963  14 t-inv F
  0.333333  0.166667 -0.333333    0.00462963  14 t-inv F
  0.333333 -0.333333  0.166667    0.00462963  14 t-inv F
  0.333333 -0.166667  0.333333    0.00462963  14 t-inv F
  0.166667 -0.333333  0.333333    0.00462963  14 t-inv F
  0.166667  0.500000  0.333333    0.00462963  15 t-inv F
  0.333333  0.166667  0.500000    0.00462963  15 t-inv F
  0.333333 -0.500000 -0.166667    0.00462963  15 t-inv F
  0.500000 -0.166667 -0.333333    0.00462963  15 t-inv F
  0.166667 -0.333333 -0.500000    0.00462963  15 t-inv F
 -0.500000 -0.333333  0.166667    0.00462963  15 t-inv F
 -0.166667 -0.500000  0.333333    0.00462963  15 t-inv F
 -0.333333 -0.166667  0.500000    0.00462963  15 t-inv F
 -0.333333  0.500000 -0.166667    0.00462963  15 t-inv F
 -0.500000  0.166667 -0.333333    0.00462963  15 t-inv F
 -0.166667  0.333333 -0.500000    0.00462963  15 t-inv F
  0.166667 -0.500000 -0.333333    0.00462963  15 t-inv F
  0.333333 -0.166667 -0.500000    0.00462963  15 t-inv F
  0.500000 -0.333333 -0.166667    0.00462963  15 t-inv F
 -0.166667 -0.333333  0.500000    0.00462963  15 t-inv F
 -0.333333 -0.500000  0.166667    0.00462963  15 t-inv F
 -0.500000 -0.166667  0.333333    0.00462963  15 t-inv F
 -0.333333  0.166667 -0.500000    0.00462963  15 t-inv F
 -0.500000  0.333333 -0.166667    0.00462963  15 t-inv F
 -0.166667  0.500000 -0.333333    0.00462963  15 t-inv F
  0.500000  0.166667  0.333333    0.00462963  15 t-inv F
  0.333333  0.500000  0.166667    0.00462963  15 t-inv F
  0.166667  0.333333  0.500000    0.00462963  15 t-inv F
  0.166667  0.500000  0.500000    0.00462963  16 t-inv F
  0.500000  0.166667  0.500000    0.00462963  16 t-inv F
  0.500000 -0.500000 -0.166667    0.00462963  16 t-inv F
  0.500000 -0.166667 -0.500000    0.00462963  16 t-inv F
 -0.166667 -0.500000  0.500000    0.00462963  16 t-inv F
  0.333333 -0.333333 -0.333333    0.00462963  17 t-inv F
 -0.333333 -0.333333  0.333333    0.00462963  17 t-inv F
 -0.333333  0.333333 -0.333333    0.00462963  17 t-inv F
 -0.333333 -0.333333 -0.333333    0.00462963  17 t-inv F
 -0.333333  0.333333  0.333333    0.00462963  17 t-inv F
  0.333333  0.333333 -0.333333    0.00462963  17 t-inv F
  0.333333 -0.333333  0.333333    0.00462963  17 t-inv F
  0.333333  0.500000  0.333333    0.00462963  18 t-inv F
  0.333333  0.333333  0.500000    0.00462963  18 t-inv F
  0.333333 -0.500000 -0.333333    0.00462963  18 t-inv F
  0.500000 -0.333333 -0.333333    0.00462963  18 t-inv F
  0.333333 -0.333333 -0.500000    0.00462963  18 t-inv F
 -0.500000 -0.333333  0.333333    0.00462963  18 t-inv F
 -0.333333 -0.500000  0.333333    0.00462963  18 t-inv F
 -0.333333 -0.333333  0.500000    0.00462963  18 t-inv F
 -0.333333  0.500000 -0.333333    0.00462963  18 t-inv F
 -0.500000  0.333333 -0.333333    0.00462963  18 t-inv F
 -0.333333  0.333333 -0.500000    0.00462963  18 t-inv F
  0.333333  0.500000  0.500000    0.00462963  19 t-inv F
  0.500000  0.333333  0.500000    0.00462963  19 t-inv F
  0.500000 -0.500000 -0.333333    0.00462963  19 t-inv F
  0.500000 -0.333333 -0.500000    0.00462963  19 t-inv F
 -0.333333 -0.500000  0.500000    0.00462963  19 t-inv F


--------------------------------------------------------------------------------------------------------




 Dimension of arrays:
   k-points           NKPTS =     20   k-points in BZ     NKDIM =     20   number of bands    NBANDS=    192
   number of dos      NEDOS =    301   number of ions     NIONS =     64
   non local maximal  LDIM  =      4   non local SUM 2l+1 LMDIM =      8
   total plane-waves  NPLWV = 125000
   max r-space proj   IRMAX =      1   max aug-charges    IRDMAX=  28602
   dimension x,y,z NGX =    50 NGY =   50 NGZ =   50
   dimension x,y,z NGXF=   100 NGYF=  100 NGZF=  100
   support grid    NGXF=   200 NGYF=  200 NGZF=  200
   ions per type =              64
   NGX,Y,Z   is equivalent  to a cutoff of  11.14, 11.14, 11.14 a.u.
   NGXF,Y,Z  is equivalent  to a cutoff of  22.28, 22.28, 22.28 a.u.

 SYSTEM =  unknown system                          
 POSCAR =  generated by phonopy                    

 Startparameter for this run:
   NWRITE =      2    write-flag & timer
   PREC   = accura    normal or accurate (medium, high low for compatibility)
   ISTART =      0    job   : 0-new  1-cont  2-samecut
   ICHARG =      2    charge: 1-file 2-atom 10-const
   ISPIN  =      1    spin polarized calculation?
   LNONCOLLINEAR =      F non collinear calculations
   LSORBIT =      F    spin-orbit coupling
   INIWAV =      1    electr: 0-lowe 1-rand  2-diag
   LASPH  =      F    aspherical Exc in radial PAW
   METAGGA=      F    non-selfconsistent MetaGGA calc.

 Electronic Relaxation 1
   ENCUT  =  400.0 eV  29.40 Ry    5.42 a.u.  12.17 12.17 12.17*2*pi/ulx,y,z
   ENINI  =  400.0     initial cutoff
   ENAUG  =  644.9 eV  augmentation charge cutoff
   NELM   =     60;   NELMIN=  2; NELMDL= -5     # of ELM steps 
   EDIFF  = 0.1E-07   stopping-criterion for ELM
   LREAL  =      F    real-space projection
   NLSPLINE    = F    spline interpolate recip. space projectors
   LCOMPAT=      F    compatible to vasp.4.4
   GGA_COMPAT  = T    GGA compatible to vasp.4.4-vasp.4.6
   LMAXPAW     = -100 max onsite density
   LMAXMIX     =    2 max onsite mixed and CHGCAR
   VOSKOWN=      0    Vosko Wilk Nusair interpolation
   ROPT   =    0.00000
 Ionic relaxation
   EDIFFG = 0.1E-06   stopping-criterion for IOM
   NSW    =      1    number of steps for IOM
   NBLOCK =      1;   KBLOCK =      1    inner block; outer block 
   IBRION =      8    ionic relax: 0-MD 1-quasi-New 2-CG
   NFREE  =      0    steps in history (QN), initial steepest desc. (CG)
   ISIF   =      2    stress and relaxation
   IWAVPR =     11    prediction:  0-non 1-charg 2-wave 3-comb
   ISYM   =      2    0-nonsym 1-usesym 2-fastsym
   LCORR  =      T    Harris-Foulkes like correction to forces

   POTIM  = 0.5000    time-step for ionic-motion
   TEIN   =    0.0    initial temperature
   TEBEG  =    0.0;   TEEND  =   0.0 temperature during run
   SMASS  =  -3.00    Nose mass-parameter (am)
   estimated Nose-frequenzy (Omega)   =  0.10E-29 period in steps =****** mass=  -0.127E-26a.u.
   SCALEE = 1.0000    scale energy and forces
   NPACO  =    256;   APACO  = 16.0  distance and # of slots for P.C.
   PSTRESS=    0.0 pullay stress

  Mass of Ions in am
   POMASS =  12.01
  Ionic Valenz
   ZVAL   =   4.00
  Atomic Wigner-Seitz radii
   RWIGS  =  -1.00
  virtual crystal weights 
   VCA    =   1.00
   NELECT =     256.0000    total number of electrons
   NUPDOWN=      -1.0000    fix difference up-down

 DOS related values:
   EMIN   =  10.00;   EMAX   =-10.00  energy-range for DOS
   EFERMI =   0.00
   ISMEAR =     0;   SIGMA  =   0.06  broadening in eV -4-tet -1-fermi 0-gaus

 Electronic relaxation 2 (details)
   IALGO  =     38    algorithm
   LDIAG  =      T    sub-space diagonalisation (order eigenvalues)
   LSUBROT=      F    optimize rotation matrix (better conditioning)
   TURBO    =      0    0=normal 1=particle mesh
   IRESTART =      0    0=no restart 2=restart with 2 vectors
   NREBOOT  =      0    no. of reboots
   NMIN     =      0    reboot dimension
   EREF     =   0.00    reference energy to select bands
   IMIX   =      4    mixing-type and parameters
     AMIX     =   0.40;   BMIX     =  1.00
     AMIX_MAG =   1.60;   BMIX_MAG =  1.00
     AMIN     =   0.10
     WC   =   100.;   INIMIX=   1;  MIXPRE=   1;  MAXMIX= -45

 Intra band minimization:
   WEIMIN = 0.0010     energy-eigenvalue tresh-hold
   EBREAK =  0.13E-10  absolut break condition
   DEPER  =   0.30     relativ break condition  

   TIME   =   0.40     timestep for ELM

  volume/ion in A,a.u.               =       6.49        43.81
  Fermi-wavevector in a.u.,A,eV,Ry     =   1.393110  2.632595 26.405566  1.940754
  Thomas-Fermi vector in A             =   2.516787
 
 Write flags
   LWAVE        =      F    write WAVECAR
   LDOWNSAMPLE  =      F    k-point downsampling of WAVECAR
   LCHARG       =      F    write CHGCAR
   LVTOT        =      F    write LOCPOT, total local potential
   LVHAR        =      F    write LOCPOT, Hartree potential only
   LELF         =      F    write electronic localiz. function (ELF)
   LORBIT       =      0    0 simple, 1 ext, 2 COOP (PROOUT), +10 PAW based schemes


 Dipole corrections
   LMONO  =      F    monopole corrections only (constant potential shift)
   LDIPOL =      F    correct potential (dipole corrections)
   IDIPOL =      0    1-x, 2-y, 3-z, 4-all directions 
   EPSILON=  1.0000000 bulk dielectric constant

 Exchange correlation treatment:
   GGA     =    --    GGA type
   LEXCH   =     8    internal setting for exchange type
   VOSKOWN=      0    Vosko Wilk Nusair interpolation
   LHFCALC =     F    Hartree Fock is set to
   LHFONE  =     F    Hartree Fock one center treatment
   AEXX    =    0.0000 exact exchange contribution

 Linear response parameters
   LEPSILON=     F    determine dielectric tensor
   LRPA    =     F    only Hartree local field effects (RPA)
   LNABLA  =     F    use nabla operator in PAW spheres
   LVEL    =     F    velocity operator in full k-point grid
   LINTERFAST=   F  fast interpolation
   KINTER  =     0    interpolate to denser k-point grid
   CSHIFT  =0.1000    complex shift for real part using Kramers Kronig
   OMEGAMAX=  -1.0    maximum frequency
   DEG_THRESHOLD= 0.2000000E-02 threshold for treating states as degnerate
   RTIME   =   -0.100 relaxation time in fs
  (WPLASMAI=    0.000 imaginary part of plasma frequency in eV, 0.658/RTIME)
   DFIELD  = 0.0000000 0.0000000 0.0000000 field for delta impulse in time
 
 Orbital magnetization related:
   ORBITALMAG=     F  switch on orbital magnetization
   LCHIMAG   =     F  perturbation theory with respect to B field
   DQ        =  0.001000  dq finite difference perturbation B field
   LLRAUG    =     F  two centre corrections for induced B field



--------------------------------------------------------------------------------------------------------


 linear response using symmetry
 charge density and potential will be updated during run
 non-spin polarized calculation
 Variant of blocked Davidson
 Davidson routine will perform the subspace rotation
 perform sub-space diagonalisation
    after iterative eigenvector-optimisation
 modified Broyden-mixing scheme, WC =      100.0
 initial mixing is a Kerker type mixing with AMIX =  0.4000 and BMIX =      1.0000
 Hartree-type preconditioning will be used
 using additional bands           64
 reciprocal scheme for non local part
 calculate Harris-corrections to forces 
   (improved forces if not selfconsistent)
 use gradient corrections 
 use of overlap-Matrix (Vanderbilt PP)
 Gauss-broadening in eV      SIGMA  =   0.06


--------------------------------------------------------------------------------------------------------


  energy-cutoff  :      400.00
  volume of cell :      415.44
      direct lattice vectors                 reciprocal lattice vectors
     7.461672793  0.000000000  0.000000000     0.134018206  0.000000000  0.000000000
     0.000000000  7.461672793  0.000000000     0.000000000  0.134018206  0.000000000
     0.000000000  0.000000000  7.461672793     0.000000000  0.000000000  0.134018206

  length of vectors
     7.461672793  7.461672793  7.461672793     0.134018206  0.134018206  0.134018206


 
 k-points in units of 2pi/SCALE and weight: kpt_density=3000                        
   0.00000000  0.00000000  0.00000000       0.005
   0.02233637  0.00000000  0.00000000       0.028
   0.04467274  0.00000000  0.00000000       0.028
   0.06700910  0.00000000  0.00000000       0.014
   0.02233637  0.02233637  0.00000000       0.056
   0.04467274  0.02233637  0.00000000       0.111
   0.06700910  0.02233637  0.00000000       0.056
   0.04467274  0.04467274  0.00000000       0.056
   0.06700910  0.04467274  0.00000000       0.056
   0.06700910  0.06700910  0.00000000       0.014
   0.02233637  0.02233637  0.02233637       0.037
   0.04467274  0.02233637  0.02233637       0.111
   0.06700910  0.02233637  0.02233637       0.056
   0.04467274  0.04467274  0.02233637       0.111
   0.06700910  0.04467274  0.02233637       0.111
   0.06700910  0.06700910  0.02233637       0.028
   0.04467274  0.04467274  0.04467274       0.037
   0.06700910  0.04467274  0.04467274       0.056
   0.06700910  0.06700910  0.04467274       0.028
   0.06700910  0.06700910  0.06700910       0.005
 
 k-points in reciprocal lattice and weights: kpt_density=3000                        
   0.00000000  0.00000000  0.00000000       0.005
   0.16666667  0.00000000  0.00000000       0.028
   0.33333333  0.00000000  0.00000000       0.028
   0.50000000  0.00000000  0.00000000       0.014
   0.16666667  0.16666667  0.00000000       0.056
   0.33333333  0.16666667  0.00000000       0.111
   0.50000000  0.16666667  0.00000000       0.056
   0.33333333  0.33333333  0.00000000       0.056
   0.50000000  0.33333333  0.00000000       0.056
   0.50000000  0.50000000  0.00000000       0.014
   0.16666667  0.16666667  0.16666667       0.037
   0.33333333  0.16666667  0.16666667       0.111
   0.50000000  0.16666667  0.16666667       0.056
   0.33333333  0.33333333  0.16666667       0.111
   0.50000000  0.33333333  0.16666667       0.111
   0.50000000  0.50000000  0.16666667       0.028
   0.33333333  0.33333333  0.33333333       0.037
   0.50000000  0.33333333  0.33333333       0.056
   0.50000000  0.50000000  0.33333333       0.028
   0.50000000  0.50000000  0.50000000       0.005
 
 position of ions in fractional coordinates (direct lattice) 
   0.12500000  0.37500000  0.12500000
   0.62500000  0.37500000  0.12500000
   0.12500000  0.87500000  0.12500000
   0.62500000  0.87500000  0.12500000
   0.12500000  0.37500000  0.62500000
   0.62500000  0.37500000  0.62500000
   0.12500000  0.87500000  0.62500000
   0.62500000  0.87500000  0.62500000
   0.00000000  0.00000000  0.25000000
   0.50000000  0.00000000  0.25000000
   0.00000000  0.50000000  0.25000000
   0.50000000  0.50000000  0.25000000
   0.00000000  0.00000000  0.75000000
   0.50000000  0.00000000  0.75000000
   0.00000000  0.50000000  0.75000000
   0.50000000  0.50000000  0.75000000
   0.12500000  0.12500000  0.37500000
   0.62500000  0.12500000  0.37500000
   0.12500000  0.62500000  0.37500000
   0.62500000  0.62500000  0.37500000
   0.12500000  0.12500000  0.87500000
   0.62500000  0.12500000  0.87500000
   0.12500000  0.62500000  0.87500000
   0.62500000  0.62500000  0.87500000
   0.00000000  0.25000000  0.00000000
   0.50000000  0.25000000  0.00000000
   0.00000000  0.75000000  0.00000000
   0.50000000  0.75000000  0.00000000
   0.00000000  0.25000000  0.50000000
   0.50000000  0.25000000  0.50000000
   0.00000000  0.75000000  0.50000000
   0.50000000  0.75000000  0.50000000
   0.37500000  0.37500000  0.37500000
   0.87500000  0.37500000  0.37500000
   0.37500000  0.87500000  0.37500000
   0.87500000  0.87500000  0.37500000
   0.37500000  0.37500000  0.87500000
   0.87500000  0.37500000  0.87500000
   0.37500000  0.87500000  0.87500000
   0.87500000  0.87500000  0.87500000
   0.25000000  0.00000000  0.00000000
   0.75000000  0.00000000  0.00000000
   0.25000000  0.50000000  0.00000000
   0.75000000  0.50000000  0.00000000
   0.25000000  0.00000000  0.50000000
   0.75000000  0.00000000  0.50000000
   0.25000000  0.50000000  0.50000000
   0.75000000  0.50000000  0.50000000
   0.37500000  0.12500000  0.12500000
   0.87500000  0.12500000  0.12500000
   0.37500000  0.62500000  0.12500000
   0.87500000  0.62500000  0.12500000
   0.37500000  0.12500000  0.62500000
   0.87500000  0.12500000  0.62500000
   0.37500000  0.62500000  0.62500000
   0.87500000  0.62500000  0.62500000
   0.25000000  0.25000000  0.25000000
   0.75000000  0.25000000  0.25000000
   0.25000000  0.75000000  0.25000000
   0.75000000  0.75000000  0.25000000
   0.25000000  0.25000000  0.75000000
   0.75000000  0.25000000  0.75000000
   0.25000000  0.75000000  0.75000000
   0.75000000  0.75000000  0.75000000
 
 position of ions in cartesian coordinates  (Angst):
   0.93270910  2.79812730  0.93270910
   4.66354550  2.79812730  0.93270910
   0.93270910  6.52896369  0.93270910
   4.66354550  6.52896369  0.93270910
   0.93270910  2.79812730  4.66354550
   4.66354550  2.79812730  4.66354550
   0.93270910  6.52896369  4.66354550
   4.66354550  6.52896369  4.66354550
   0.00000000  0.00000000  1.86541820
   3.73083640  0.00000000  1.86541820
   0.00000000  3.73083640  1.86541820
   3.73083640  3.73083640  1.86541820
   0.00000000  0.00000000  5.59625460
   3.73083640  0.00000000  5.59625460
   0.00000000  3.73083640  5.59625460
   3.73083640  3.73083640  5.59625460
   0.93270910  0.93270910  2.79812730
   4.66354550  0.93270910  2.79812730
   0.93270910  4.66354550  2.79812730
   4.66354550  4.66354550  2.79812730
   0.93270910  0.93270910  6.52896369
   4.66354550  0.93270910  6.52896369
   0.93270910  4.66354550  6.52896369
   4.66354550  4.66354550  6.52896369
   0.00000000  1.86541820  0.00000000
   3.73083640  1.86541820  0.00000000
   0.00000000  5.59625460  0.00000000
   3.73083640  5.59625460  0.00000000
   0.00000000  1.86541820  3.73083640
   3.73083640  1.86541820  3.73083640
   0.00000000  5.59625460  3.73083640
   3.73083640  5.59625460  3.73083640
   2.79812730  2.79812730  2.79812730
   6.52896369  2.79812730  2.79812730
   2.79812730  6.52896369  2.79812730
   6.52896369  6.52896369  2.79812730
   2.79812730  2.79812730  6.52896369
   6.52896369  2.79812730  6.52896369
   2.79812730  6.52896369  6.52896369
   6.52896369  6.52896369  6.52896369
   1.86541820  0.00000000  0.00000000
   5.59625460  0.00000000  0.00000000
   1.86541820  3.73083640  0.00000000
   5.59625460  3.73083640  0.00000000
   1.86541820  0.00000000  3.73083640
   5.59625460  0.00000000  3.73083640
   1.86541820  3.73083640  3.73083640
   5.59625460  3.73083640  3.73083640
   2.79812730  0.93270910  0.93270910
   6.52896369  0.93270910  0.93270910
   2.79812730  4.66354550  0.93270910
   6.52896369  4.66354550  0.93270910
   2.79812730  0.93270910  4.66354550
   6.52896369  0.93270910  4.66354550
   2.79812730  4.66354550  4.66354550
   6.52896369  4.66354550  4.66354550
   1.86541820  1.86541820  1.86541820
   5.59625460  1.86541820  1.86541820
   1.86541820  5.59625460  1.86541820
   5.59625460  5.59625460  1.86541820
   1.86541820  1.86541820  5.59625460
   5.59625460  1.86541820  5.59625460
   1.86541820  5.59625460  5.59625460
   5.59625460  5.59625460  5.59625460
 


--------------------------------------------------------------------------------------------------------


 k-point  1 :   0.0000 0.0000 0.0000  plane waves:    7521
 k-point  2 :   0.1667 0.0000 0.0000  plane waves:    7521
 k-point  3 :   0.3333 0.0000 0.0000  plane waves:    7528
 k-point  4 :   0.5000 0.0000 0.0000  plane waves:    7528
 k-point  5 :   0.1667 0.1667 0.0000  plane waves:    7535
 k-point  6 :   0.3333 0.1667 0.0000  plane waves:    7555
 k-point  7 :   0.5000 0.1667 0.0000  plane waves:    7560
 k-point  8 :   0.3333 0.3333 0.0000  plane waves:    7551
 k-point  9 :   0.5000 0.3333 0.0000  plane waves:    7550
 k-point 10 :   0.5000 0.5000 0.0000  plane waves:    7532
 k-point 11 :   0.1667 0.1667 0.1667  plane waves:    7499
 k-point 12 :   0.3333 0.1667 0.1667  plane waves:    7528
 k-point 13 :   0.5000 0.1667 0.1667  plane waves:    7532
 k-point 14 :   0.3333 0.3333 0.1667  plane waves:    7552
 k-point 15 :   0.5000 0.3333 0.1667  plane waves:    7560
 k-point 16 :   0.5000 0.5000 0.1667  plane waves:    7572
 k-point 17 :   0.3333 0.3333 0.3333  plane waves:    7583
 k-point 18 :   0.5000 0.3333 0.3333  plane waves:    7542
 k-point 19 :   0.5000 0.5000 0.3333  plane waves:    7572
 k-point 20 :   0.5000 0.5000 0.5000  plane waves:    7568

 maximum and minimum number of plane-waves per node :      7583     7499

 maximum number of plane-waves:      7583
 maximum index in each direction: 
   IXMAX=   12   IYMAX=   12   IZMAX=   12
   IXMIN=  -12   IYMIN=  -12   IZMIN=  -12


 serial   3D FFT for wavefunctions
 parallel 3D FFT for charge:
    minimum data exchange during FFTs selected (reduces bandwidth)


 total amount of memory used by VASP MPI-rank0    75805. kBytes
=======================================================================

   base      :      30000. kBytes
   nonl-proj :      17473. kBytes
   fftplans  :       5607. kBytes
   grid      :       6985. kBytes
   one-center:        196. kBytes
   wavefun   :      15544. kBytes
 
     INWAV:  cpu time    0.0004: real time    0.0005
 Broyden mixing: mesh for mixing (old mesh)
   NGX = 25   NGY = 25   NGZ = 25
  (NGX  =100   NGY  =100   NGZ  =100)
  gives a total of  15625 points

 initial charge density was supplied:
 charge density of overlapping atoms calculated
 number of electron     256.0000000 magnetization 
 keeping initial charge density in first step


--------------------------------------------------------------------------------------------------------


 Maximum index for augmentation-charges         1986 (set IRDMAX)


--------------------------------------------------------------------------------------------------------


 First call to EWALD:  gamma=   0.238
 Maximum number of real-space cells 3x 3x 3
 Maximum number of reciprocal cells 3x 3x 3

    FEWALD:  cpu time    0.0083: real time    0.0083


--------------------------------------- Iteration      1(   1)  ---------------------------------------


    POTLOK:  cpu time    0.0800: real time    0.1083
    SETDIJ:  cpu time    0.0558: real time    0.0560
     EDDAV:  cpu time   14.4150: real time   14.4240
       DOS:  cpu time    0.0059: real time    0.0059
    --------------------------------------------
      LOOP:  cpu time   14.5568: real time   14.5943

 eigenvalue-minimisations  :  7680
 total energy-change (2. order) : 0.4959919E+03  (-0.1114467E+05)
 number of electron     256.0000000 magnetization 
 augmentation part      256.0000000 magnetization 

 Free energy of the ion-electron system (eV)
  ---------------------------------------------------
  alpha Z        PSCENC =       803.34711919
  Ewald energy   TEWEN  =    -10645.12094762
  -Hartree energ DENC   =      -662.55433329
  -exchange      EXHF   =         0.00000000
  -V(xc)+E(xc)   XCENC  =       888.84198938
  PAW double counting   =      2421.21235816    -2494.84305711
  entropy T*S    EENTRO =        -0.01594800
  eigenvalues    EBANDS =       768.98240799
  atomic energy  EATOM  =      9416.14232778
  Solvation  Ediel_sol  =         0.00000000
  ---------------------------------------------------
  free energy    TOTEN  =       495.99191647 eV

  energy without entropy =      496.00786447  energy(sigma->0) =      495.99989047


--------------------------------------------------------------------------------------------------------




--------------------------------------- Iteration      1(   2)  ---------------------------------------


     EDDAV:  cpu time   19.2627: real time   19.4668
       DOS:  cpu time    0.0029: real time    0.0029
    --------------------------------------------
      LOOP:  cpu time   19.2657: real time   19.4697

 eigenvalue-minimisations  : 10368
 total energy-change (2. order) :-0.1039137E+04  (-0.9881711E+03)
 number of electron     256.0000000 magnetization 
 augmentation part      256.0000000 magnetization 

 Free energy of the ion-electron system (eV)
  ---------------------------------------------------
  alpha Z        PSCENC =       803.34711919
  Ewald energy   TEWEN  =    -10645.12094762
  -Hartree energ DENC   =      -662.55433329
  -exchange      EXHF   =         0.00000000
  -V(xc)+E(xc)   XCENC  =       888.84198938
  PAW double counting   =      2421.21235816    -2494.84305711
  entropy T*S    EENTRO =        -0.00000000
  eigenvalues    EBANDS =      -270.17033770
  atomic energy  EATOM  =      9416.14232778
  Solvation  Ediel_sol  =         0.00000000
  ---------------------------------------------------
  free energy    TOTEN  =      -543.14488121 eV

  energy without entropy =     -543.14488121  energy(sigma->0) =     -543.14488121


--------------------------------------------------------------------------------------------------------




--------------------------------------- Iteration      1(   3)  ---------------------------------------


     EDDAV:  cpu time   19.1786: real time   19.1800
       DOS:  cpu time    0.0040: real time    0.0040
    --------------------------------------------
      LOOP:  cpu time   19.1826: real time   19.1841

 eigenvalue-minimisations  : 10240
 total energy-change (2. order) :-0.4346788E+02  (-0.4317946E+02)
 number of electron     256.0000000 magnetization 
 augmentation part      256.0000000 magnetization 

 Free energy of the ion-electron system (eV)
  ---------------------------------------------------
  alpha Z        PSCENC =       803.34711919
  Ewald energy   TEWEN  =    -10645.12094762
  -Hartree energ DENC   =      -662.55433329
  -exchange      EXHF   =         0.00000000
  -V(xc)+E(xc)   XCENC  =       888.84198938
  PAW double counting   =      2421.21235816    -2494.84305711
  entropy T*S    EENTRO =        -0.00000000
  eigenvalues    EBANDS =      -313.63822066
  atomic energy  EATOM  =      9416.14232778
  Solvation  Ediel_sol  =         0.00000000
  ---------------------------------------------------
  free energy    TOTEN  =      -586.61276418 eV

  energy without entropy =     -586.61276418  energy(sigma->0) =     -586.61276418


--------------------------------------------------------------------------------------------------------




--------------------------------------- Iteration      1(   4)  ---------------------------------------


     EDDAV:  cpu time   18.5430: real time   18.5443
       DOS:  cpu time    0.0032: real time    0.0032
    --------------------------------------------
      LOOP:  cpu time   18.5462: real time   18.5475

 eigenvalue-minimisations  : 10368
 total energy-change (2. order) :-0.5744288E+00  (-0.5733177E+00)
 number of electron     256.0000000 magnetization 
 augmentation part      256.0000000 magnetization 

 Free energy of the ion-electron system (eV)
  ---------------------------------------------------
  alpha Z        PSCENC =       803.34711919
  Ewald energy   TEWEN  =    -10645.12094762
  -Hartree energ DENC   =      -662.55433329
  -exchange      EXHF   =         0.00000000
  -V(xc)+E(xc)   XCENC  =       888.84198938
  PAW double counting   =      2421.21235816    -2494.84305711
  entropy T*S    EENTRO =        -0.00000000
  eigenvalues    EBANDS =      -314.21264943
  atomic energy  EATOM  =      9416.14232778
  Solvation  Ediel_sol  =         0.00000000
  ---------------------------------------------------
  free energy    TOTEN  =      -587.18719295 eV

  energy without entropy =     -587.18719295  energy(sigma->0) =     -587.18719295


--------------------------------------------------------------------------------------------------------




--------------------------------------- Iteration      1(   5)  ---------------------------------------


     EDDAV:  cpu time   17.2921: real time   17.2936
       DOS:  cpu time    0.0028: real time    0.0028
    CHARGE:  cpu time    0.5905: real time    0.5905
    MIXING:  cpu time    0.0077: real time    0.0077
    --------------------------------------------
      LOOP:  cpu time   17.8932: real time   17.8947

 eigenvalue-minimisations  :  9600
 total energy-change (2. order) :-0.1221405E-01  (-0.1220883E-01)
 number of electron     255.9999995 magnetization 
 augmentation part        5.4600660 magnetization 

 Broyden mixing:
  rms(total) = 0.22796E+01    rms(broyden)= 0.22794E+01
  rms(prec ) = 0.32648E+01
  weight for this iteration     100.00

 Free energy of the ion-electron system (eV)
  ---------------------------------------------------
  alpha Z        PSCENC =       803.34711919
  Ewald energy   TEWEN  =    -10645.12094762
  -Hartree energ DENC   =      -662.55433329
  -exchange      EXHF   =         0.00000000
  -V(xc)+E(xc)   XCENC  =       888.84198938
  PAW double counting   =      2421.21235816    -2494.84305711
  entropy T*S    EENTRO =        -0.00000000
  eigenvalues    EBANDS =      -314.22486349
  atomic energy  EATOM  =      9416.14232778
  Solvation  Ediel_sol  =         0.00000000
  ---------------------------------------------------
  free energy    TOTEN  =      -587.19940700 eV

  energy without entropy =     -587.19940700  energy(sigma->0) =     -587.19940700


--------------------------------------------------------------------------------------------------------




--------------------------------------- Iteration      1(   6)  ---------------------------------------


    POTLOK:  cpu time    0.0739: real time    0.0743
    SETDIJ:  cpu time    0.0456: real time    0.0456
     EDDAV:  cpu time   17.8315: real time   17.8325
       DOS:  cpu time    0.0029: real time    0.0029
    CHARGE:  cpu time    0.5893: real time    0.5893
    MIXING:  cpu time    0.0045: real time    0.0045
    --------------------------------------------
      LOOP:  cpu time   18.5477: real time   18.5492

 eigenvalue-minimisations  :  9152
 total energy-change (2. order) : 0.9654651E+01  (-0.6602416E+00)
 number of electron     255.9999995 magnetization 
 augmentation part        5.3493723 magnetization 

 Broyden mixing:
  rms(total) = 0.12815E+01    rms(broyden)= 0.12814E+01
  rms(prec ) = 0.18133E+01
  weight for this iteration     100.00

 eigenvalues of (default mixing * dielectric matrix)
  average eigenvalue GAMMA=   2.2261
  2.2261

 Free energy of the ion-electron system (eV)
  ---------------------------------------------------
  alpha Z        PSCENC =       803.34711919
  Ewald energy   TEWEN  =    -10645.12094762
  -Hartree energ DENC   =      -768.23766605
  -exchange      EXHF   =         0.00000000
  -V(xc)+E(xc)   XCENC  =       898.58638062
  PAW double counting   =      2965.45882480    -3042.11162243
  entropy T*S    EENTRO =        -0.00000000
  eigenvalues    EBANDS =      -205.60917184
  atomic energy  EATOM  =      9416.14232778
  Solvation  Ediel_sol  =         0.00000000
  ---------------------------------------------------
  free energy    TOTEN  =      -577.54475555 eV

  energy without entropy =     -577.54475555  energy(sigma->0) =     -577.54475555


--------------------------------------------------------------------------------------------------------




--------------------------------------- Iteration      1(   7)  ---------------------------------------


    POTLOK:  cpu time    0.0766: real time    0.0770
    SETDIJ:  cpu time    0.0450: real time    0.0450
     EDDAV:  cpu time   16.5520: real time   16.5530
       DOS:  cpu time    0.0032: real time    0.0032
    CHARGE:  cpu time    0.5897: real time    0.5898
    MIXING:  cpu time    0.0049: real time    0.0049
    --------------------------------------------
      LOOP:  cpu time   17.2716: real time   17.2729

 eigenvalue-minimisations  :  9120
 total energy-change (2. order) : 0.3270432E+01  (-0.7890831E+00)
 number of electron     255.9999995 magnetization 
 augmentation part        5.2339778 magnetization 

 Broyden mixing:
  rms(total) = 0.18175E+00    rms(broyden)= 0.18160E+00
  rms(prec ) = 0.22310E+00
  weight for this iteration     100.00

 eigenvalues of (default mixing * dielectric matrix)
  average eigenvalue GAMMA=   2.2663
  2.0033  2.5294

 Free energy of the ion-electron system (eV)
  ---------------------------------------------------
  alpha Z        PSCENC =       803.34711919
  Ewald energy   TEWEN  =    -10645.12094762
  -Hartree energ DENC   =      -905.30613804
  -exchange      EXHF   =         0.00000000
  -V(xc)+E(xc)   XCENC  =       911.45657600
  PAW double counting   =      3695.55589999    -3775.05165167
  entropy T*S    EENTRO =        -0.00000000
  eigenvalues    EBANDS =       -75.29750931
  atomic energy  EATOM  =      9416.14232778
  Solvation  Ediel_sol  =         0.00000000
  ---------------------------------------------------
  free energy    TOTEN  =      -574.27432368 eV

  energy without entropy =     -574.27432368  energy(sigma->0) =     -574.27432368


--------------------------------------------------------------------------------------------------------




--------------------------------------- Iteration      1(   8)  ---------------------------------------


    POTLOK:  cpu time    0.0760: real time    0.0771
    SETDIJ:  cpu time    0.0456: real time    0.0456
     EDDAV:  cpu time   17.4930: real time   17.4940
       DOS:  cpu time    0.0027: real time    0.0027
    CHARGE:  cpu time    0.5943: real time    0.5943
    MIXING:  cpu time    0.0052: real time    0.0051
    --------------------------------------------
      LOOP:  cpu time   18.2168: real time   18.2190

 eigenvalue-minimisations  :  9728
 total energy-change (2. order) :-0.4610769E-01  (-0.1863502E-01)
 number of electron     255.9999995 magnetization 
 augmentation part        5.2448440 magnetization 

 Broyden mixing:
  rms(total) = 0.19649E-01    rms(broyden)= 0.19613E-01
  rms(prec ) = 0.24161E-01
  weight for this iteration     100.00

 eigenvalues of (default mixing * dielectric matrix)
  average eigenvalue GAMMA=   2.1061
  1.4532  2.6839  2.1811

 Free energy of the ion-electron system (eV)
  ---------------------------------------------------
  alpha Z        PSCENC =       803.34711919
  Ewald energy   TEWEN  =    -10645.12094762
  -Hartree energ DENC   =      -906.92834639
  -exchange      EXHF   =         0.00000000
  -V(xc)+E(xc)   XCENC  =       911.61722656
  PAW double counting   =      3720.58108689    -3799.12626880
  entropy T*S    EENTRO =        -0.00000000
  eigenvalues    EBANDS =       -74.83262898
  atomic energy  EATOM  =      9416.14232778
  Solvation  Ediel_sol  =         0.00000000
  ---------------------------------------------------
  free energy    TOTEN  =      -574.32043137 eV

  energy without entropy =     -574.32043137  energy(sigma->0) =     -574.32043137


--------------------------------------------------------------------------------------------------------




--------------------------------------- Iteration      1(   9)  ---------------------------------------


    POTLOK:  cpu time    0.0738: real time    0.0741
    SETDIJ:  cpu time    0.0471: real time    0.0471
     EDDAV:  cpu time   18.1814: real time   18.1824
       DOS:  cpu time    0.0033: real time    0.0033
    CHARGE:  cpu time    0.5889: real time    0.5889
    MIXING:  cpu time    0.0051: real time    0.0051
    --------------------------------------------
      LOOP:  cpu time   18.8996: real time   18.9009

 eigenvalue-minimisations  :  9984
 total energy-change (2. order) :-0.2229579E-02  (-0.3722399E-03)
 number of electron     255.9999995 magnetization 
 augmentation part        5.2438316 magnetization 

 Broyden mixing:
  rms(total) = 0.73678E-02    rms(broyden)= 0.73658E-02
  rms(prec ) = 0.95193E-02
  weight for this iteration     100.00

 eigenvalues of (default mixing * dielectric matrix)
  average eigenvalue GAMMA=   2.0555
  0.9649  2.7854  2.4960  1.9758

 Free energy of the ion-electron system (eV)
  ---------------------------------------------------
  alpha Z        PSCENC =       803.34711919
  Ewald energy   TEWEN  =    -10645.12094762
  -Hartree energ DENC   =      -906.44615704
  -exchange      EXHF   =         0.00000000
  -V(xc)+E(xc)   XCENC  =       911.56983261
  PAW double counting   =      3715.19083065    -3793.64432200
  entropy T*S    EENTRO =        -0.00000000
  eigenvalues    EBANDS =       -75.36134452
  atomic energy  EATOM  =      9416.14232778
  Solvation  Ediel_sol  =         0.00000000
  ---------------------------------------------------
  free energy    TOTEN  =      -574.32266095 eV

  energy without entropy =     -574.32266095  energy(sigma->0) =     -574.32266095


--------------------------------------------------------------------------------------------------------




--------------------------------------- Iteration      1(  10)  ---------------------------------------


    POTLOK:  cpu time    0.0736: real time    0.0740
    SETDIJ:  cpu time    0.0464: real time    0.0464
     EDDAV:  cpu time   17.2120: real time   17.2129
       DOS:  cpu time    0.0031: real time    0.0031
    CHARGE:  cpu time    0.5961: real time    0.5961
    MIXING:  cpu time    0.0050: real time    0.0050
    --------------------------------------------
      LOOP:  cpu time   17.9361: real time   17.9375

 eigenvalue-minimisations  :  9504
 total energy-change (2. order) :-0.4641589E-03  (-0.4769930E-04)
 number of electron     255.9999995 magnetization 
 augmentation part        5.2435196 magnetization 

 Broyden mixing:
  rms(total) = 0.75511E-03    rms(broyden)= 0.75258E-03
  rms(prec ) = 0.11269E-02
  weight for this iteration     100.00

 eigenvalues of (default mixing * dielectric matrix)
  average eigenvalue GAMMA=   1.9763
  2.9828  2.5556  2.0749  0.9751  1.2932

 Free energy of the ion-electron system (eV)
  ---------------------------------------------------
  alpha Z        PSCENC =       803.34711919
  Ewald energy   TEWEN  =    -10645.12094762
  -Hartree energ DENC   =      -906.88796380
  -exchange      EXHF   =         0.00000000
  -V(xc)+E(xc)   XCENC  =       911.60930226
  PAW double counting   =      3712.60870471    -3791.08011666
  entropy T*S    EENTRO =        -0.00000000
  eigenvalues    EBANDS =       -74.94155098
  atomic energy  EATOM  =      9416.14232778
  Solvation  Ediel_sol  =         0.00000000
  ---------------------------------------------------
  free energy    TOTEN  =      -574.32312511 eV

  energy without entropy =     -574.32312511  energy(sigma->0) =     -574.32312511


--------------------------------------------------------------------------------------------------------




--------------------------------------- Iteration      1(  11)  ---------------------------------------


    POTLOK:  cpu time    0.0731: real time    0.0735
    SETDIJ:  cpu time    0.0479: real time    0.0479
     EDDAV:  cpu time   18.8739: real time   18.8750
       DOS:  cpu time    0.0035: real time    0.0035
    CHARGE:  cpu time    0.6176: real time    0.6177
    MIXING:  cpu time    0.0061: real time    0.0061
    --------------------------------------------
      LOOP:  cpu time   19.6221: real time   19.6236

 eigenvalue-minimisations  : 10112
 total energy-change (2. order) :-0.1671397E-05  (-0.1161813E-05)
 number of electron     255.9999995 magnetization 
 augmentation part        5.2433085 magnetization 

 Broyden mixing:
  rms(total) = 0.19374E-03    rms(broyden)= 0.19079E-03
  rms(prec ) = 0.25950E-03
  weight for this iteration     100.00

 eigenvalues of (default mixing * dielectric matrix)
  average eigenvalue GAMMA=   2.0023
  3.0106  2.5910  2.3978  2.0196  0.9973  0.9973

 Free energy of the ion-electron system (eV)
  ---------------------------------------------------
  alpha Z        PSCENC =       803.34711919
  Ewald energy   TEWEN  =    -10645.12094762
  -Hartree energ DENC   =      -907.00709375
  -exchange      EXHF   =         0.00000000
  -V(xc)+E(xc)   XCENC  =       911.62053226
  PAW double counting   =      3713.04420580    -3791.52014029
  entropy T*S    EENTRO =        -0.00000000
  eigenvalues    EBANDS =       -74.82913015
  atomic energy  EATOM  =      9416.14232778
  Solvation  Ediel_sol  =         0.00000000
  ---------------------------------------------------
  free energy    TOTEN  =      -574.32312678 eV

  energy without entropy =     -574.32312678  energy(sigma->0) =     -574.32312678


--------------------------------------------------------------------------------------------------------




--------------------------------------- Iteration      1(  12)  ---------------------------------------


    POTLOK:  cpu time    0.0933: real time    0.0937
    SETDIJ:  cpu time    0.0566: real time    0.0566
     EDDAV:  cpu time   19.6152: real time   19.6163
       DOS:  cpu time    0.0035: real time    0.0035
    CHARGE:  cpu time    0.5916: real time    0.5916
    MIXING:  cpu time    0.0053: real time    0.0053
    --------------------------------------------
      LOOP:  cpu time   20.3656: real time   20.3671

 eigenvalue-minimisations  :  9888
 total energy-change (2. order) :-0.6686096E-06  (-0.6753657E-07)
 number of electron     255.9999995 magnetization 
 augmentation part        5.2433347 magnetization 

 Broyden mixing:
  rms(total) = 0.34084E-04    rms(broyden)= 0.20462E-04
  rms(prec ) = 0.25878E-04
  weight for this iteration     100.00
  WARNING: grid for Broyden might be to small

 eigenvalues of (default mixing * dielectric matrix)
  average eigenvalue GAMMA=   1.8869
  2.9656  2.6576  2.5054  2.0302  0.9693  1.0400  1.0400

 Free energy of the ion-electron system (eV)
  ---------------------------------------------------
  alpha Z        PSCENC =       803.34711919
  Ewald energy   TEWEN  =    -10645.12094762
  -Hartree energ DENC   =      -906.98811235
  -exchange      EXHF   =         0.00000000
  -V(xc)+E(xc)   XCENC  =       911.61877868
  PAW double counting   =      3713.08966050    -3791.56343476
  entropy T*S    EENTRO =        -0.00000000
  eigenvalues    EBANDS =       -74.84851887
  atomic energy  EATOM  =      9416.14232778
  Solvation  Ediel_sol  =         0.00000000
  ---------------------------------------------------
  free energy    TOTEN  =      -574.32312745 eV

  energy without entropy =     -574.32312745  energy(sigma->0) =     -574.32312745


--------------------------------------------------------------------------------------------------------




--------------------------------------- Iteration      1(  13)  ---------------------------------------


    POTLOK:  cpu time    0.0748: real time    0.0751
    SETDIJ:  cpu time    0.0497: real time    0.0497
     EDDAV:  cpu time   16.4581: real time   16.4591
       DOS:  cpu time    0.0029: real time    0.0029
    CHARGE:  cpu time    0.5989: real time    0.5989
    MIXING:  cpu time    0.0070: real time    0.0070
    --------------------------------------------
      LOOP:  cpu time   17.1914: real time   17.1927

 eigenvalue-minimisations  :  7776
 total energy-change (2. order) :-0.1179251E-06  (-0.1426149E-08)
 number of electron     255.9999995 magnetization 
 augmentation part        5.2433288 magnetization 

 Broyden mixing:
  rms(total) = 0.27532E-04    rms(broyden)= 0.45234E-05
  rms(prec ) = 0.57165E-05
  weight for this iteration     100.00
  WARNING: grid for Broyden might be to small

 eigenvalues of (default mixing * dielectric matrix)
  average eigenvalue GAMMA=   2.0173
  2.0312  2.9669  2.9669  2.6585  2.5098  1.0171  1.0171  0.9711

 Free energy of the ion-electron system (eV)
  ---------------------------------------------------
  alpha Z        PSCENC =       803.34711919
  Ewald energy   TEWEN  =    -10645.12094762
  -Hartree energ DENC   =      -906.98940108
  -exchange      EXHF   =         0.00000000
  -V(xc)+E(xc)   XCENC  =       911.61890186
  PAW double counting   =      3713.09709586    -3791.57096598
  entropy T*S    EENTRO =        -0.00000000
  eigenvalues    EBANDS =       -74.84725757
  atomic energy  EATOM  =      9416.14232778
  Solvation  Ediel_sol  =         0.00000000
  ---------------------------------------------------
  free energy    TOTEN  =      -574.32312757 eV

  energy without entropy =     -574.32312757  energy(sigma->0) =     -574.32312757


--------------------------------------------------------------------------------------------------------




--------------------------------------- Iteration      1(  14)  ---------------------------------------


    POTLOK:  cpu time    0.0910: real time    0.0912
    SETDIJ:  cpu time    0.0489: real time    0.0489
     EDDAV:  cpu time   16.0242: real time   16.0251
       DOS:  cpu time    0.0031: real time    0.0031
    --------------------------------------------
      LOOP:  cpu time   16.1674: real time   16.1686

 eigenvalue-minimisations  :  6880
 total energy-change (2. order) : 0.5649781E-08  (-0.2000194E-09)
 number of electron     255.9999995 magnetization 
 augmentation part        5.2433288 magnetization 

 Free energy of the ion-electron system (eV)
  ---------------------------------------------------
  alpha Z        PSCENC =       803.34711919
  Ewald energy   TEWEN  =    -10645.12094762
  -Hartree energ DENC   =      -906.98894850
  -exchange      EXHF   =         0.00000000
  -V(xc)+E(xc)   XCENC  =       911.61885895
  PAW double counting   =      3713.09060921    -3791.56447823
  entropy T*S    EENTRO =        -0.00000000
  eigenvalues    EBANDS =       -74.84766835
  atomic energy  EATOM  =      9416.14232778
  Solvation  Ediel_sol  =         0.00000000
  ---------------------------------------------------
  free energy    TOTEN  =      -574.32312756 eV

  energy without entropy =     -574.32312756  energy(sigma->0) =     -574.32312756


--------------------------------------------------------------------------------------------------------




 average (electrostatic) potential at core
  the test charge radii are     0.6991
  (the norm of the test charge is              1.0000)
       1 -47.2875       2 -47.2875       3 -47.2875       4 -47.2875       5 -47.2875
       6 -47.2875       7 -47.2875       8 -47.2875       9 -47.2876      10 -47.2876
      11 -47.2876      12 -47.2876      13 -47.2876      14 -47.2876      15 -47.2876
      16 -47.2876      17 -47.2875      18 -47.2875      19 -47.2875      20 -47.2875
      21 -47.2875      22 -47.2875      23 -47.2875      24 -47.2875      25 -47.2876
      26 -47.2876      27 -47.2876      28 -47.2876      29 -47.2876      30 -47.2876
      31 -47.2876      32 -47.2876      33 -47.2875      34 -47.2875      35 -47.2875
      36 -47.2875      37 -47.2875      38 -47.2875      39 -47.2875      40 -47.2875
      41 -47.2876      42 -47.2876      43 -47.2876      44 -47.2876      45 -47.2876
      46 -47.2876      47 -47.2876      48 -47.2876      49 -47.2875      50 -47.2875
      51 -47.2875      52 -47.2875      53 -47.2875      54 -47.2875      55 -47.2875
      56 -47.2875      57 -47.2876      58 -47.2876      59 -47.2876      60 -47.2876
      61 -47.2876      62 -47.2876      63 -47.2876      64 -47.2876
 
 
 
 E-fermi :   8.2126     XC(G=0): -12.5584     alpha+bet :-15.4654


 k-point     1 :       0.0000    0.0000    0.0000
  band No.  band energies     occupation 
      1     -11.8534      2.00000
      2      -9.7787      2.00000
      3      -9.7787      2.00000
      4      -9.7787      2.00000
      5      -9.7787      2.00000
      6      -9.7787      2.00000
      7      -9.7787      2.00000
      8      -7.8248      2.00000
      9      -7.8248      2.00000
     10      -7.8248      2.00000
     11      -7.8248      2.00000
     12      -7.8248      2.00000
     13      -7.8248      2.00000
     14      -7.8248      2.00000
     15      -7.8248      2.00000
     16      -7.8248      2.00000
     17      -7.8248      2.00000
     18      -7.8248      2.00000
     19      -7.8248      2.00000
     20      -6.8117      2.00000
     21      -6.8117      2.00000
     22      -6.8117      2.00000
     23      -6.8117      2.00000
     24      -4.0735      2.00000
     25      -4.0735      2.00000
     26      -4.0735      2.00000
     27      -4.0735      2.00000
     28      -3.9751      2.00000
     29      -3.9751      2.00000
     30      -3.9751      2.00000
     31      -3.9751      2.00000
     32      -3.9751      2.00000
     33      -3.9751      2.00000
     34      -3.3804      2.00000
     35      -3.3804      2.00000
     36      -3.3804      2.00000
     37      -3.3804      2.00000
     38      -3.3804      2.00000
     39      -3.3804      2.00000
     40      -3.3804      2.00000
     41      -3.3804      2.00000
     42      -3.3804      2.00000
     43      -3.3804      2.00000
     44      -3.3804      2.00000
     45      -3.3804      2.00000
     46      -0.1833      2.00000
     47      -0.1833      2.00000
     48      -0.1833      2.00000
     49      -0.1833      2.00000
     50      -0.1833      2.00000
     51      -0.1833      2.00000
     52      -0.1833      2.00000
     53      -0.1833      2.00000
     54      -0.1833      2.00000
     55      -0.1833      2.00000
     56      -0.1833      2.00000
     57      -0.1833      2.00000
     58       0.6773      2.00000
     59       0.6773      2.00000
     60       0.6773      2.00000
     61       0.6773      2.00000
     62       0.6773      2.00000
     63       0.6773      2.00000
     64       0.6773      2.00000
     65       0.6773      2.00000
     66       0.6773      2.00000
     67       0.6773      2.00000
     68       0.6773      2.00000
     69       0.6773      2.00000
     70       1.1865      2.00000
     71       1.1865      2.00000
     72       1.1865      2.00000
     73       1.1865      2.00000
     74       1.1865      2.00000
     75       1.1865      2.00000
     76       1.1865      2.00000
     77       1.1865      2.00000
     78       1.1865      2.00000
     79       1.1865      2.00000
     80       1.1865      2.00000
     81       1.1865      2.00000
     82       2.3778      2.00000
     83       2.3778      2.00000
     84       2.3778      2.00000
     85       2.3778      2.00000
     86       2.3778      2.00000
     87       2.3778      2.00000
     88       3.5161      2.00000
     89       3.5161      2.00000
     90       3.5161      2.00000
     91       3.5161      2.00000
     92       3.5161      2.00000
     93       3.5161      2.00000
     94       4.3109      2.00000
     95       4.3109      2.00000
     96       4.3109      2.00000
     97       4.3109      2.00000
     98       4.3109      2.00000
     99       4.3109      2.00000
    100       4.3109      2.00000
    101       4.3109      2.00000
    102       4.3109      2.00000
    103       4.3109      2.00000
    104       4.3109      2.00000
    105       4.3109      2.00000
    106       5.2590      2.00000
    107       5.2590      2.00000
    108       5.2590      2.00000
[...]
      4.663545  0.932709  6.528964    -0.059724    0.095958    0.039639  
      0.932709  4.663545  6.528964    -0.159772   -0.043477   -0.039639  
      4.663545  4.663545  6.528964    -0.159772    0.095958   -0.046627  
      0.000000  1.865418  0.000000    -0.035619   -0.039624    0.062608  
      3.730836  1.865418  0.000000    -0.035619    0.148676   -0.006699  
      0.000000  5.596255  0.000000    -0.140532   -0.039624    0.006699  
      3.730836  5.596255  0.000000    -0.140532    0.148676   -0.062608  
      0.000000  1.865418  3.730836     0.140532   -0.148676    0.062608  
      3.730836  1.865418  3.730836     0.140532    0.039624   -0.006699  
      0.000000  5.596255  3.730836     0.035619   -0.148676    0.006699  
      3.730836  5.596255  3.730836     0.035619    0.039624   -0.062608  
      2.798127  2.798127  2.798127     0.134841    0.036378   -0.048760  
      6.528964  2.798127  2.798127     0.134841   -0.088860    0.042567  
      2.798127  6.528964  2.798127     0.084654    0.036378   -0.042567  
      6.528964  6.528964  2.798127     0.084654   -0.088860    0.048760  
      2.798127  2.798127  6.528964    -0.084654    0.088860   -0.048760  
      6.528964  2.798127  6.528964    -0.084654   -0.036378    0.042567  
      2.798127  6.528964  6.528964    -0.134841    0.088860   -0.042567  
      6.528964  6.528964  6.528964    -0.134841   -0.036378    0.048760  
      1.865418  0.000000  0.000000    -0.069889    0.048817    0.005784  
      5.596255  0.000000  0.000000    -0.069889    0.060235    0.061692  
      1.865418  3.730836  0.000000    -0.106263    0.048817   -0.061692  
      5.596255  3.730836  0.000000    -0.106263    0.060235   -0.005784  
      1.865418  0.000000  3.730836     0.106263   -0.060235    0.005784  
      5.596255  0.000000  3.730836     0.106263   -0.048817    0.061692  
      1.865418  3.730836  3.730836     0.069889   -0.060235   -0.061692  
      5.596255  3.730836  3.730836     0.069889   -0.048817   -0.005784  
      2.798127  0.932709  0.932709     0.034737    0.111629   -0.002531  
      6.528964  0.932709  0.932709     0.034737   -0.013610    0.088797  
      2.798127  4.663545  0.932709    -0.065311    0.111629   -0.088797  
      6.528964  4.663545  0.932709    -0.065311   -0.013610    0.002531  
      2.798127  0.932709  4.663545     0.065311    0.013610   -0.002531  
      6.528964  0.932709  4.663545     0.065311   -0.111629    0.088797  
      2.798127  4.663545  4.663545    -0.034737    0.013610   -0.088797  
      6.528964  4.663545  4.663545    -0.034737   -0.111629    0.002531  
      1.865418  1.865418  1.865418     0.118180    0.012144    0.000000  
      5.596255  1.865418  1.865418     0.118180    0.023562    0.055909  
      1.865418  5.596255  1.865418     0.013267    0.012144   -0.055909  
      5.596255  5.596255  1.865418     0.013267    0.023562   -0.000000  
      1.865418  1.865418  5.596255    -0.013267   -0.023562    0.000000  
      5.596255  1.865418  5.596255    -0.013267   -0.012144    0.055909  
      1.865418  5.596255  5.596255    -0.118180   -0.023562   -0.055909  
      5.596255  5.596255  5.596255    -0.118180   -0.012144   -0.000000  
 
 190 f  =    0.000003 THz     0.000021 2PiTHz    0.000112 cm-1     0.000014 meV
             X         Y         Z           dx          dy          dz
      0.932709  2.798127  0.932709     0.001479    0.002253    0.124971  
      4.663545  2.798127  0.932709     0.001479    0.002253    0.124971  
      0.932709  6.528964  0.932709     0.001479    0.002253    0.124971  
      4.663545  6.528964  0.932709     0.001479    0.002253    0.124971  
      0.932709  2.798127  4.663545     0.001479    0.002253    0.124971  
      4.663545  2.798127  4.663545     0.001479    0.002253    0.124971  
      0.932709  6.528964  4.663545     0.001479    0.002253    0.124971  
      4.663545  6.528964  4.663545     0.001479    0.002253    0.124971  
      0.000000  0.000000  1.865418     0.001479    0.002253    0.124971  
      3.730836  0.000000  1.865418     0.001479    0.002253    0.124971  
      0.000000  3.730836  1.865418     0.001479    0.002253    0.124971  
      3.730836  3.730836  1.865418     0.001479    0.002253    0.124971  
      0.000000  0.000000  5.596255     0.001479    0.002253    0.124971  
      3.730836  0.000000  5.596255     0.001479    0.002253    0.124971  
      0.000000  3.730836  5.596255     0.001479    0.002253    0.124971  
      3.730836  3.730836  5.596255     0.001479    0.002253    0.124971  
      0.932709  0.932709  2.798127     0.001479    0.002253    0.124971  
      4.663545  0.932709  2.798127     0.001479    0.002253    0.124971  
      0.932709  4.663545  2.798127     0.001479    0.002253    0.124971  
      4.663545  4.663545  2.798127     0.001479    0.002253    0.124971  
      0.932709  0.932709  6.528964     0.001479    0.002253    0.124971  
      4.663545  0.932709  6.528964     0.001479    0.002253    0.124971  
      0.932709  4.663545  6.528964     0.001479    0.002253    0.124971  
      4.663545  4.663545  6.528964     0.001479    0.002253    0.124971  
      0.000000  1.865418  0.000000     0.001479    0.002253    0.124971  
      3.730836  1.865418  0.000000     0.001479    0.002253    0.124971  
      0.000000  5.596255  0.000000     0.001479    0.002253    0.124971  
      3.730836  5.596255  0.000000     0.001479    0.002253    0.124971  
      0.000000  1.865418  3.730836     0.001479    0.002253    0.124971  
      3.730836  1.865418  3.730836     0.001479    0.002253    0.124971  
      0.000000  5.596255  3.730836     0.001479    0.002253    0.124971  
      3.730836  5.596255  3.730836     0.001479    0.002253    0.124971  
      2.798127  2.798127  2.798127     0.001479    0.002253    0.124971  
      6.528964  2.798127  2.798127     0.001479    0.002253    0.124971  
      2.798127  6.528964  2.798127     0.001479    0.002253    0.124971  
      6.528964  6.528964  2.798127     0.001479    0.002253    0.124971  
      2.798127  2.798127  6.528964     0.001479    0.002253    0.124971  
      6.528964  2.798127  6.528964     0.001479    0.002253    0.124971  
      2.798127  6.528964  6.528964     0.001479    0.002253    0.124971  
      6.528964  6.528964  6.528964     0.001479    0.002253    0.124971  
      1.865418  0.000000  0.000000     0.001479    0.002253    0.124971  
      5.596255  0.000000  0.000000     0.001479    0.002253    0.124971  
      1.865418  3.730836  0.000000     0.001479    0.002253    0.124971  
      5.596255  3.730836  0.000000     0.001479    0.002253    0.124971  
      1.865418  0.000000  3.730836     0.001479    0.002253    0.124971  
      5.596255  0.000000  3.730836     0.001479    0.002253    0.124971  
      1.865418  3.730836  3.730836     0.001479    0.002253    0.124971  
      5.596255  3.730836  3.730836     0.001479    0.002253    0.124971  
      2.798127  0.932709  0.932709     0.001479    0.002253    0.124971  
      6.528964  0.932709  0.932709     0.001479    0.002253    0.124971  
      2.798127  4.663545  0.932709     0.001479    0.002253    0.124971  
      6.528964  4.663545  0.932709     0.001479    0.002253    0.124971  
      2.798127  0.932709  4.663545     0.001479    0.002253    0.124971  
      6.528964  0.932709  4.663545     0.001479    0.002253    0.124971  
      2.798127  4.663545  4.663545     0.001479    0.002253    0.124971  
      6.528964  4.663545  4.663545     0.001479    0.002253    0.124971  
      1.865418  1.865418  1.865418     0.001479    0.002253    0.124971  
      5.596255  1.865418  1.865418     0.001479    0.002253    0.124971  
      1.865418  5.596255  1.865418     0.001479    0.002253    0.124971  
      5.596255  5.596255  1.865418     0.001479    0.002253    0.124971  
      1.865418  1.865418  5.596255     0.001479    0.002253    0.124971  
      5.596255  1.865418  5.596255     0.001479    0.002253    0.124971  
      1.865418  5.596255  5.596255     0.001479    0.002253    0.124971  
      5.596255  5.596255  5.596255     0.001479    0.002253    0.124971  
 
 191 f  =    0.000003 THz     0.000021 2PiTHz    0.000111 cm-1     0.000014 meV
             X         Y         Z           dx          dy          dz
      0.932709  2.798127  0.932709     0.082212   -0.094157    0.000725  
      4.663545  2.798127  0.932709     0.082212   -0.094157    0.000725  
      0.932709  6.528964  0.932709     0.082212   -0.094157    0.000725  
      4.663545  6.528964  0.932709     0.082212   -0.094157    0.000725  
      0.932709  2.798127  4.663545     0.082212   -0.094157    0.000725  
      4.663545  2.798127  4.663545     0.082212   -0.094157    0.000725  
      0.932709  6.528964  4.663545     0.082212   -0.094157    0.000725  
      4.663545  6.528964  4.663545     0.082212   -0.094157    0.000725  
      0.000000  0.000000  1.865418     0.082212   -0.094157    0.000725  
      3.730836  0.000000  1.865418     0.082212   -0.094157    0.000725  
      0.000000  3.730836  1.865418     0.082212   -0.094157    0.000725  
      3.730836  3.730836  1.865418     0.082212   -0.094157    0.000725  
      0.000000  0.000000  5.596255     0.082212   -0.094157    0.000725  
      3.730836  0.000000  5.596255     0.082212   -0.094157    0.000725  
      0.000000  3.730836  5.596255     0.082212   -0.094157    0.000725  
      3.730836  3.730836  5.596255     0.082212   -0.094157    0.000725  
      0.932709  0.932709  2.798127     0.082212   -0.094157    0.000725  
      4.663545  0.932709  2.798127     0.082212   -0.094157    0.000725  
      0.932709  4.663545  2.798127     0.082212   -0.094157    0.000725  
      4.663545  4.663545  2.798127     0.082212   -0.094157    0.000725  
      0.932709  0.932709  6.528964     0.082212   -0.094157    0.000725  
      4.663545  0.932709  6.528964     0.082212   -0.094157    0.000725  
      0.932709  4.663545  6.528964     0.082212   -0.094157    0.000725  
      4.663545  4.663545  6.528964     0.082212   -0.094157    0.000725  
      0.000000  1.865418  0.000000     0.082212   -0.094157    0.000725  
      3.730836  1.865418  0.000000     0.082212   -0.094157    0.000725  
      0.000000  5.596255  0.000000     0.082212   -0.094157    0.000725  
      3.730836  5.596255  0.000000     0.082212   -0.094157    0.000725  
      0.000000  1.865418  3.730836     0.082212   -0.094157    0.000725  
      3.730836  1.865418  3.730836     0.082212   -0.094157    0.000725  
      0.000000  5.596255  3.730836     0.082212   -0.094157    0.000725  
      3.730836  5.596255  3.730836     0.082212   -0.094157    0.000725  
      2.798127  2.798127  2.798127     0.082212   -0.094157    0.000725  
      6.528964  2.798127  2.798127     0.082212   -0.094157    0.000725  
      2.798127  6.528964  2.798127     0.082212   -0.094157    0.000725  
      6.528964  6.528964  2.798127     0.082212   -0.094157    0.000725  
      2.798127  2.798127  6.528964     0.082212   -0.094157    0.000725  
      6.528964  2.798127  6.528964     0.082212   -0.094157    0.000725  
      2.798127  6.528964  6.528964     0.082212   -0.094157    0.000725  
      6.528964  6.528964  6.528964     0.082212   -0.094157    0.000725  
      1.865418  0.000000  0.000000     0.082212   -0.094157    0.000725  
      5.596255  0.000000  0.000000     0.082212   -0.094157    0.000725  
      1.865418  3.730836  0.000000     0.082212   -0.094157    0.000725  
      5.596255  3.730836  0.000000     0.082212   -0.094157    0.000725  
      1.865418  0.000000  3.730836     0.082212   -0.094157    0.000725  
      5.596255  0.000000  3.730836     0.082212   -0.094157    0.000725  
      1.865418  3.730836  3.730836     0.082212   -0.094157    0.000725  
      5.596255  3.730836  3.730836     0.082212   -0.094157    0.000725  
      2.798127  0.932709  0.932709     0.082212   -0.094157    0.000725  
      6.528964  0.932709  0.932709     0.082212   -0.094157    0.000725  
      2.798127  4.663545  0.932709     0.082212   -0.094157    0.000725  
      6.528964  4.663545  0.932709     0.082212   -0.094157    0.000725  
      2.798127  0.932709  4.663545     0.082212   -0.094157    0.000725  
      6.528964  0.932709  4.663545     0.082212   -0.094157    0.000725  
      2.798127  4.663545  4.663545     0.082212   -0.094157    0.000725  
      6.528964  4.663545  4.663545     0.082212   -0.094157    0.000725  
      1.865418  1.865418  1.865418     0.082212   -0.094157    0.000725  
      5.596255  1.865418  1.865418     0.082212   -0.094157    0.000725  
      1.865418  5.596255  1.865418     0.082212   -0.094157    0.000725  
      5.596255  5.596255  1.865418     0.082212   -0.094157    0.000725  
      1.865418  1.865418  5.596255     0.082212   -0.094157    0.000725  
      5.596255  1.865418  5.596255     0.082212   -0.094157    0.000725  
      1.865418  5.596255  5.596255     0.082212   -0.094157    0.000725  
      5.596255  5.596255  5.596255     0.082212   -0.094157    0.000725  
 
 192 f  =    0.000003 THz     0.000020 2PiTHz    0.000105 cm-1     0.000013 meV
             X         Y         Z           dx          dy          dz
      0.932709  2.798127  0.932709     0.094148    0.082185   -0.002596  
      4.663545  2.798127  0.932709     0.094148    0.082185   -0.002596  
      0.932709  6.528964  0.932709     0.094148    0.082185   -0.002596  
      4.663545  6.528964  0.932709     0.094148    0.082185   -0.002596  
      0.932709  2.798127  4.663545     0.094148    0.082185   -0.002596  
      4.663545  2.798127  4.663545     0.094148    0.082185   -0.002596  
      0.932709  6.528964  4.663545     0.094148    0.082185   -0.002596  
      4.663545  6.528964  4.663545     0.094148    0.082185   -0.002596  
      0.000000  0.000000  1.865418     0.094148    0.082185   -0.002596  
      3.730836  0.000000  1.865418     0.094148    0.082185   -0.002596  
      0.000000  3.730836  1.865418     0.094148    0.082185   -0.002596  
      3.730836  3.730836  1.865418     0.094148    0.082185   -0.002596  
      0.000000  0.000000  5.596255     0.094148    0.082185   -0.002596  
      3.730836  0.000000  5.596255     0.094148    0.082185   -0.002596  
      0.000000  3.730836  5.596255     0.094148    0.082185   -0.002596  
      3.730836  3.730836  5.596255     0.094148    0.082185   -0.002596  
      0.932709  0.932709  2.798127     0.094148    0.082185   -0.002596  
      4.663545  0.932709  2.798127     0.094148    0.082185   -0.002596  
      0.932709  4.663545  2.798127     0.094148    0.082185   -0.002596  
      4.663545  4.663545  2.798127     0.094148    0.082185   -0.002596  
      0.932709  0.932709  6.528964     0.094148    0.082185   -0.002596  
      4.663545  0.932709  6.528964     0.094148    0.082185   -0.002596  
      0.932709  4.663545  6.528964     0.094148    0.082185   -0.002596  
      4.663545  4.663545  6.528964     0.094148    0.082185   -0.002596  
      0.000000  1.865418  0.000000     0.094148    0.082185   -0.002596  
      3.730836  1.865418  0.000000     0.094148    0.082185   -0.002596  
      0.000000  5.596255  0.000000     0.094148    0.082185   -0.002596  
      3.730836  5.596255  0.000000     0.094148    0.082185   -0.002596  
      0.000000  1.865418  3.730836     0.094148    0.082185   -0.002596  
      3.730836  1.865418  3.730836     0.094148    0.082185   -0.002596  
      0.000000  5.596255  3.730836     0.094148    0.082185   -0.002596  
      3.730836  5.596255  3.730836     0.094148    0.082185   -0.002596  
      2.798127  2.798127  2.798127     0.094148    0.082185   -0.002596  
      6.528964  2.798127  2.798127     0.094148    0.082185   -0.002596  
      2.798127  6.528964  2.798127     0.094148    0.082185   -0.002596  
      6.528964  6.528964  2.798127     0.094148    0.082185   -0.002596  
      2.798127  2.798127  6.528964     0.094148    0.082185   -0.002596  
      6.528964  2.798127  6.528964     0.094148    0.082185   -0.002596  
      2.798127  6.528964  6.528964     0.094148    0.082185   -0.002596  
      6.528964  6.528964  6.528964     0.094148    0.082185   -0.002596  
      1.865418  0.000000  0.000000     0.094148    0.082185   -0.002596  
      5.596255  0.000000  0.000000     0.094148    0.082185   -0.002596  
      1.865418  3.730836  0.000000     0.094148    0.082185   -0.002596  
      5.596255  3.730836  0.000000     0.094148    0.082185   -0.002596  
      1.865418  0.000000  3.730836     0.094148    0.082185   -0.002596  
      5.596255  0.000000  3.730836     0.094148    0.082185   -0.002596  
      1.865418  3.730836  3.730836     0.094148    0.082185   -0.002596  
      5.596255  3.730836  3.730836     0.094148    0.082185   -0.002596  
      2.798127  0.932709  0.932709     0.094148    0.082185   -0.002596  
      6.528964  0.932709  0.932709     0.094148    0.082185   -0.002596  
      2.798127  4.663545  0.932709     0.094148    0.082185   -0.002596  
      6.528964  4.663545  0.932709     0.094148    0.082185   -0.002596  
      2.798127  0.932709  4.663545     0.094148    0.082185   -0.002596  
      6.528964  0.932709  4.663545     0.094148    0.082185   -0.002596  
      2.798127  4.663545  4.663545     0.094148    0.082185   -0.002596  
      6.528964  4.663545  4.663545     0.094148    0.082185   -0.002596  
      1.865418  1.865418  1.865418     0.094148    0.082185   -0.002596  
      5.596255  1.865418  1.865418     0.094148    0.082185   -0.002596  
      1.865418  5.596255  1.865418     0.094148    0.082185   -0.002596  
      5.596255  5.596255  1.865418     0.094148    0.082185   -0.002596  
      1.865418  1.865418  5.596255     0.094148    0.082185   -0.002596  
      5.596255  1.865418  5.596255     0.094148    0.082185   -0.002596  
      1.865418  5.596255  5.596255     0.094148    0.082185   -0.002596  
      5.596255  5.596255  5.596255     0.094148    0.082185   -0.002596  
 


--------------------------------------------------------------------------------------------------------



 ELASTIC MODULI CONTR FROM IONIC RELAXATION (kBar)
 Direction    XX          YY          ZZ          XY          YZ          ZX
 --------------------------------------------------------------------------------
 XX          -0.0000      0.0000     -0.0000     -0.0000      0.0000      0.0000
 YY           0.0000     -0.0000      0.0000     -0.0000     -0.0000     -0.0000
 ZZ          -0.0000      0.0000     -0.0000     -0.0000     -0.0000      0.0000
 XY          -0.0000     -0.0000     -0.0000    -44.4151     -0.0000      0.0000
 YZ           0.0000     -0.0000     -0.0000     -0.0000    -44.4151     -0.0000
 ZX           0.0000     -0.0000      0.0000      0.0000     -0.0000    -44.4151
 --------------------------------------------------------------------------------



--------------------------------------------------------------------------------------------------------


     LOOP+:  cpu time  953.0432: real time  954.6737
    4ORBIT:  cpu time    0.0000: real time    0.0000

 total amount of memory used by VASP MPI-rank0    75805. kBytes
=======================================================================

   base      :      30000. kBytes
   nonl-proj :      17473. kBytes
   fftplans  :       5607. kBytes
   grid      :       6985. kBytes
   one-center:        196. kBytes
   wavefun   :      15544. kBytes
 
  
  
 General timing and accounting informations for this job:
 ========================================================
  
                  Total CPU time used (sec):      964.019
                            User time (sec):      959.543
                          System time (sec):        4.476
                         Elapsed time (sec):      965.830
  
                   Maximum memory used (kb):      412868.
                   Average memory used (kb):           0.
  
                          Minor page faults:        39544
                          Major page faults:           35
                 Voluntary context switches:          839
