phonopy:
  version: 2.6.0
  frequency_unit_conversion_factor: 15.633302
  symmetry_tolerance: 1.00000e-05
  configuration:
    dim: "2 2 2"
    mp: "48 48 48"
    tmax: "1000"
    tstep: "2"
    force_constants: "READ"
    cell_filename: "POSCAR-unitcell"
    tprop: ".true."

physical_unit:
  atomic_mass: "AMU"
  length: "Angstrom"
  force_constants: "eV/Angstrom^2"

supercell_matrix:
- [   2,   0,   0 ]
- [   0,   2,   0 ]
- [   0,   0,   2 ]

space_group:
  type: "Fd-3m"
  number: 227
  Hall_symbol: "F 4d 2 3 -1d"

primitive_cell:
  lattice:
  - [     3.730836396702151,     0.000000000000000,     0.000000000000000 ] # a
  - [     0.000000000000000,     3.730836396702151,     0.000000000000000 ] # b
  - [     0.000000000000000,     0.000000000000000,     3.730836396702151 ] # c
  points:
  - symbol: C  # 1
    coordinates: [  0.250000000000000,  0.750000000000000,  0.250000000000000 ]
    mass: 12.010700
  - symbol: C  # 2
    coordinates: [  0.000000000000000,  0.000000000000000,  0.500000000000000 ]
    mass: 12.010700
  - symbol: C  # 3
    coordinates: [  0.250000000000000,  0.250000000000000,  0.750000000000000 ]
    mass: 12.010700
  - symbol: C  # 4
    coordinates: [  0.000000000000000,  0.500000000000000,  0.000000000000000 ]
    mass: 12.010700
  - symbol: C  # 5
    coordinates: [  0.750000000000000,  0.750000000000000,  0.750000000000000 ]
    mass: 12.010700
  - symbol: C  # 6
    coordinates: [  0.500000000000000,  0.000000000000000,  0.000000000000000 ]
    mass: 12.010700
  - symbol: C  # 7
    coordinates: [  0.750000000000000,  0.250000000000000,  0.250000000000000 ]
    mass: 12.010700
  - symbol: C  # 8
    coordinates: [  0.500000000000000,  0.500000000000000,  0.500000000000000 ]
    mass: 12.010700
  reciprocal_lattice: # without 2pi
  - [     0.268036411589622,     0.000000000000000,     0.000000000000000 ] # a*
  - [     0.000000000000000,     0.268036411589622,     0.000000000000000 ] # b*
  - [     0.000000000000000,     0.000000000000000,     0.268036411589622 ] # c*

unit_cell:
  lattice:
  - [     3.730836396702151,     0.000000000000000,     0.000000000000000 ] # a
  - [     0.000000000000000,     3.730836396702151,     0.000000000000000 ] # b
  - [     0.000000000000000,     0.000000000000000,     3.730836396702151 ] # c
  points:
  - symbol: C  # 1
    coordinates: [  0.250000000000000,  0.750000000000000,  0.250000000000000 ]
    mass: 12.010700
    reduced_to: 1
  - symbol: C  # 2
    coordinates: [  0.000000000000000,  0.000000000000000,  0.500000000000000 ]
    mass: 12.010700
    reduced_to: 2
  - symbol: C  # 3
    coordinates: [  0.250000000000000,  0.250000000000000,  0.750000000000000 ]
    mass: 12.010700
    reduced_to: 3
  - symbol: C  # 4
    coordinates: [  0.000000000000000,  0.500000000000000,  0.000000000000000 ]
    mass: 12.010700
    reduced_to: 4
  - symbol: C  # 5
    coordinates: [  0.750000000000000,  0.750000000000000,  0.750000000000000 ]
    mass: 12.010700
    reduced_to: 5
  - symbol: C  # 6
    coordinates: [  0.500000000000000,  0.000000000000000,  0.000000000000000 ]
    mass: 12.010700
    reduced_to: 6
  - symbol: C  # 7
    coordinates: [  0.750000000000000,  0.250000000000000,  0.250000000000000 ]
    mass: 12.010700
    reduced_to: 7
  - symbol: C  # 8
    coordinates: [  0.500000000000000,  0.500000000000000,  0.500000000000000 ]
    mass: 12.010700
    reduced_to: 8

supercell:
  lattice:
  - [     7.461672793404301,     0.000000000000000,     0.000000000000000 ] # a
  - [     0.000000000000000,     7.461672793404301,     0.000000000000000 ] # b
  - [     0.000000000000000,     0.000000000000000,     7.461672793404301 ] # c
  points:
  - symbol: C  # 1
    coordinates: [  0.125000000000000,  0.375000000000000,  0.125000000000000 ]
    mass: 12.010700
    reduced_to: 1
  - symbol: C  # 2
    coordinates: [  0.625000000000000,  0.375000000000000,  0.125000000000000 ]
    mass: 12.010700
    reduced_to: 1
  - symbol: C  # 3
    coordinates: [  0.125000000000000,  0.875000000000000,  0.125000000000000 ]
    mass: 12.010700
    reduced_to: 1
  - symbol: C  # 4
    coordinates: [  0.625000000000000,  0.875000000000000,  0.125000000000000 ]
    mass: 12.010700
    reduced_to: 1
  - symbol: C  # 5
    coordinates: [  0.125000000000000,  0.375000000000000,  0.625000000000000 ]
    mass: 12.010700
    reduced_to: 1
  - symbol: C  # 6
    coordinates: [  0.625000000000000,  0.375000000000000,  0.625000000000000 ]
    mass: 12.010700
    reduced_to: 1
  - symbol: C  # 7
    coordinates: [  0.125000000000000,  0.875000000000000,  0.625000000000000 ]
    mass: 12.010700
    reduced_to: 1
  - symbol: C  # 8
    coordinates: [  0.625000000000000,  0.875000000000000,  0.625000000000000 ]
    mass: 12.010700
    reduced_to: 1
  - symbol: C  # 9
    coordinates: [  0.000000000000000,  0.000000000000000,  0.250000000000000 ]
    mass: 12.010700
    reduced_to: 9
  - symbol: C  # 10
    coordinates: [  0.500000000000000,  0.000000000000000,  0.250000000000000 ]
    mass: 12.010700
    reduced_to: 9
  - symbol: C  # 11
    coordinates: [  0.000000000000000,  0.500000000000000,  0.250000000000000 ]
    mass: 12.010700
    reduced_to: 9
  - symbol: C  # 12
    coordinates: [  0.500000000000000,  0.500000000000000,  0.250000000000000 ]
    mass: 12.010700
    reduced_to: 9
  - symbol: C  # 13
    coordinates: [  0.000000000000000,  0.000000000000000,  0.750000000000000 ]
    mass: 12.010700
    reduced_to: 9
  - symbol: C  # 14
    coordinates: [  0.500000000000000,  0.000000000000000,  0.750000000000000 ]
    mass: 12.010700
    reduced_to: 9
  - symbol: C  # 15
    coordinates: [  0.000000000000000,  0.500000000000000,  0.750000000000000 ]
    mass: 12.010700
    reduced_to: 9
  - symbol: C  # 16
    coordinates: [  0.500000000000000,  0.500000000000000,  0.750000000000000 ]
    mass: 12.010700
    reduced_to: 9
  - symbol: C  # 17
    coordinates: [  0.125000000000000,  0.125000000000000,  0.375000000000000 ]
    mass: 12.010700
    reduced_to: 17
  - symbol: C  # 18
    coordinates: [  0.625000000000000,  0.125000000000000,  0.375000000000000 ]
    mass: 12.010700
    reduced_to: 17
  - symbol: C  # 19
    coordinates: [  0.125000000000000,  0.625000000000000,  0.375000000000000 ]
    mass: 12.010700
    reduced_to: 17
  - symbol: C  # 20
    coordinates: [  0.625000000000000,  0.625000000000000,  0.375000000000000 ]
    mass: 12.010700
    reduced_to: 17
  - symbol: C  # 21
    coordinates: [  0.125000000000000,  0.125000000000000,  0.875000000000000 ]
    mass: 12.010700
    reduced_to: 17
  - symbol: C  # 22
    coordinates: [  0.625000000000000,  0.125000000000000,  0.875000000000000 ]
    mass: 12.010700
    reduced_to: 17
  - symbol: C  # 23
    coordinates: [  0.125000000000000,  0.625000000000000,  0.875000000000000 ]
    mass: 12.010700
    reduced_to: 17
  - symbol: C  # 24
    coordinates: [  0.625000000000000,  0.625000000000000,  0.875000000000000 ]
    mass: 12.010700
    reduced_to: 17
  - symbol: C  # 25
    coordinates: [  0.000000000000000,  0.250000000000000,  0.000000000000000 ]
    mass: 12.010700
    reduced_to: 25
  - symbol: C  # 26
    coordinates: [  0.500000000000000,  0.250000000000000,  0.000000000000000 ]
    mass: 12.010700
    reduced_to: 25
  - symbol: C  # 27
    coordinates: [  0.000000000000000,  0.750000000000000,  0.000000000000000 ]
    mass: 12.010700
    reduced_to: 25
  - symbol: C  # 28
    coordinates: [  0.500000000000000,  0.750000000000000,  0.000000000000000 ]
    mass: 12.010700
    reduced_to: 25
  - symbol: C  # 29
    coordinates: [  0.000000000000000,  0.250000000000000,  0.500000000000000 ]
    mass: 12.010700
    reduced_to: 25
  - symbol: C  # 30
    coordinates: [  0.500000000000000,  0.250000000000000,  0.500000000000000 ]
    mass: 12.010700
    reduced_to: 25
  - symbol: C  # 31
    coordinates: [  0.000000000000000,  0.750000000000000,  0.500000000000000 ]
    mass: 12.010700
    reduced_to: 25
  - symbol: C  # 32
    coordinates: [  0.500000000000000,  0.750000000000000,  0.500000000000000 ]
    mass: 12.010700
    reduced_to: 25
  - symbol: C  # 33
    coordinates: [  0.375000000000000,  0.375000000000000,  0.375000000000000 ]
    mass: 12.010700
    reduced_to: 33
  - symbol: C  # 34
    coordinates: [  0.875000000000000,  0.375000000000000,  0.375000000000000 ]
    mass: 12.010700
    reduced_to: 33
  - symbol: C  # 35
    coordinates: [  0.375000000000000,  0.875000000000000,  0.375000000000000 ]
    mass: 12.010700
    reduced_to: 33
  - symbol: C  # 36
    coordinates: [  0.875000000000000,  0.875000000000000,  0.375000000000000 ]
    mass: 12.010700
    reduced_to: 33
  - symbol: C  # 37
    coordinates: [  0.375000000000000,  0.375000000000000,  0.875000000000000 ]
    mass: 12.010700
    reduced_to: 33
  - symbol: C  # 38
    coordinates: [  0.875000000000000,  0.375000000000000,  0.875000000000000 ]
    mass: 12.010700
    reduced_to: 33
  - symbol: C  # 39
    coordinates: [  0.375000000000000,  0.875000000000000,  0.875000000000000 ]
    mass: 12.010700
    reduced_to: 33
  - symbol: C  # 40
    coordinates: [  0.875000000000000,  0.875000000000000,  0.875000000000000 ]
    mass: 12.010700
    reduced_to: 33
  - symbol: C  # 41
    coordinates: [  0.250000000000000,  0.000000000000000,  0.000000000000000 ]
    mass: 12.010700
    reduced_to: 41
  - symbol: C  # 42
    coordinates: [  0.750000000000000,  0.000000000000000,  0.000000000000000 ]
    mass: 12.010700
    reduced_to: 41
  - symbol: C  # 43
    coordinates: [  0.250000000000000,  0.500000000000000,  0.000000000000000 ]
    mass: 12.010700
    reduced_to: 41
  - symbol: C  # 44
    coordinates: [  0.750000000000000,  0.500000000000000,  0.000000000000000 ]
    mass: 12.010700
    reduced_to: 41
  - symbol: C  # 45
    coordinates: [  0.250000000000000,  0.000000000000000,  0.500000000000000 ]
    mass: 12.010700
    reduced_to: 41
  - symbol: C  # 46
    coordinates: [  0.750000000000000,  0.000000000000000,  0.500000000000000 ]
    mass: 12.010700
    reduced_to: 41
  - symbol: C  # 47
    coordinates: [  0.250000000000000,  0.500000000000000,  0.500000000000000 ]
    mass: 12.010700
    reduced_to: 41
  - symbol: C  # 48
    coordinates: [  0.750000000000000,  0.500000000000000,  0.500000000000000 ]
    mass: 12.010700
    reduced_to: 41
  - symbol: C  # 49
    coordinates: [  0.375000000000000,  0.125000000000000,  0.125000000000000 ]
    mass: 12.010700
    reduced_to: 49
  - symbol: C  # 50
    coordinates: [  0.875000000000000,  0.125000000000000,  0.125000000000000 ]
    mass: 12.010700
    reduced_to: 49
  - symbol: C  # 51
    coordinates: [  0.375000000000000,  0.625000000000000,  0.125000000000000 ]
    mass: 12.010700
    reduced_to: 49
  - symbol: C  # 52
    coordinates: [  0.875000000000000,  0.625000000000000,  0.125000000000000 ]
    mass: 12.010700
    reduced_to: 49
  - symbol: C  # 53
    coordinates: [  0.375000000000000,  0.125000000000000,  0.625000000000000 ]
    mass: 12.010700
    reduced_to: 49
  - symbol: C  # 54
    coordinates: [  0.875000000000000,  0.125000000000000,  0.625000000000000 ]
    mass: 12.010700
    reduced_to: 49
  - symbol: C  # 55
    coordinates: [  0.375000000000000,  0.625000000000000,  0.625000000000000 ]
    mass: 12.010700
    reduced_to: 49
  - symbol: C  # 56
    coordinates: [  0.875000000000000,  0.625000000000000,  0.625000000000000 ]
    mass: 12.010700
    reduced_to: 49
  - symbol: C  # 57
    coordinates: [  0.250000000000000,  0.250000000000000,  0.250000000000000 ]
    mass: 12.010700
    reduced_to: 57
  - symbol: C  # 58
    coordinates: [  0.750000000000000,  0.250000000000000,  0.250000000000000 ]
    mass: 12.010700
    reduced_to: 57
  - symbol: C  # 59
    coordinates: [  0.250000000000000,  0.750000000000000,  0.250000000000000 ]
    mass: 12.010700
    reduced_to: 57
  - symbol: C  # 60
    coordinates: [  0.750000000000000,  0.750000000000000,  0.250000000000000 ]
    mass: 12.010700
    reduced_to: 57
  - symbol: C  # 61
    coordinates: [  0.250000000000000,  0.250000000000000,  0.750000000000000 ]
    mass: 12.010700
    reduced_to: 57
  - symbol: C  # 62
    coordinates: [  0.750000000000000,  0.250000000000000,  0.750000000000000 ]
    mass: 12.010700
    reduced_to: 57
  - symbol: C  # 63
    coordinates: [  0.250000000000000,  0.750000000000000,  0.750000000000000 ]
    mass: 12.010700
    reduced_to: 57
  - symbol: C  # 64
    coordinates: [  0.750000000000000,  0.750000000000000,  0.750000000000000 ]
    mass: 12.010700
    reduced_to: 57
