# Thermal properties / unit cell (natom)

unit:
  temperature:   K
  free_energy:   kJ/mol
  entropy:       J/K/mol
  heat_capacity: J/K/mol

natom: 8    
cutoff_frequency:    0.000
num_modes: 2654208
num_integrated_modes: 2654208

zero_point_energy:     121.0133178
high_T_entropy:        459.2311520

thermal_properties:
- temperature:         0.0000000
  free_energy:       121.0133178
  entropy:             0.0000000
  heat_capacity:       0.0000000
  energy:            121.0133178

- temperature:         2.0000000
  free_energy:       121.0133178
  entropy:             0.0000000
  heat_capacity:       0.0000000
  energy:            121.0133178

- temperature:         4.0000000
  free_energy:       121.0133177
  entropy:             0.0000142
  heat_capacity:       0.0000831
  energy:            121.0133178

- temperature:         6.0000000
  free_energy:       121.0133176
  entropy:             0.0001036
  heat_capacity:       0.0004291
  energy:            121.0133183

- temperature:         8.0000000
  free_energy:       121.0133173
  entropy:             0.0003090
  heat_capacity:       0.0010883
  energy:            121.0133197

- temperature:        10.0000000
  free_energy:       121.0133163
  entropy:             0.0006575
  heat_capacity:       0.0021508
  energy:            121.0133229

- temperature:        12.0000000
  free_energy:       121.0133145
  entropy:             0.0011803
  heat_capacity:       0.0037266
  energy:            121.0133287

- temperature:        14.0000000
  free_energy:       121.0133115
  entropy:             0.0019112
  heat_capacity:       0.0059259
  energy:            121.0133382

- temperature:        16.0000000
  free_energy:       121.0133067
  entropy:             0.0028851
  heat_capacity:       0.0088570
  energy:            121.0133529

- temperature:        18.0000000
  free_energy:       121.0132997
  entropy:             0.0041373
  heat_capacity:       0.0126289
  energy:            121.0133742

- temperature:        20.0000000
  free_energy:       121.0132899
  entropy:             0.0057034
  heat_capacity:       0.0173513
  energy:            121.0134040

- temperature:        22.0000000
  free_energy:       121.0132767
  entropy:             0.0076196
  heat_capacity:       0.0231359
  energy:            121.0134443

- temperature:        24.0000000
  free_energy:       121.0132592
  entropy:             0.0099222
  heat_capacity:       0.0300963
  energy:            121.0134973

- temperature:        26.0000000
  free_energy:       121.0132367
  entropy:             0.0126480
  heat_capacity:       0.0383483
  energy:            121.0135656

- temperature:        28.0000000
  free_energy:       121.0132083
  entropy:             0.0158345
  heat_capacity:       0.0480107
  energy:            121.0136517

- temperature:        30.0000000
  free_energy:       121.0131730
  entropy:             0.0195194
  heat_capacity:       0.0592053
  energy:            121.0137586

- temperature:        32.0000000
  free_energy:       121.0131299
  entropy:             0.0237415
  heat_capacity:       0.0720575
  energy:            121.0138896

- temperature:        34.0000000
  free_energy:       121.0130777
  entropy:             0.0285398
  heat_capacity:       0.0866966
  energy:            121.0140480

- temperature:        36.0000000
  free_energy:       121.0130153
  entropy:             0.0339546
  heat_capacity:       0.1032571
  energy:            121.0142377

- temperature:        38.0000000
  free_energy:       121.0129414
  entropy:             0.0400267
  heat_capacity:       0.1218788
  energy:            121.0144624

- temperature:        40.0000000
  free_energy:       121.0128547
  entropy:             0.0467981
  heat_capacity:       0.1427080
  energy:            121.0147267

- temperature:        42.0000000
  free_energy:       121.0127537
  entropy:             0.0543121
  heat_capacity:       0.1658984
  energy:            121.0150349

- temperature:        44.0000000
  free_energy:       121.0126370
  entropy:             0.0626130
  heat_capacity:       0.1916124
  energy:            121.0153919

- temperature:        46.0000000
  free_energy:       121.0125027
  entropy:             0.0717470
  heat_capacity:       0.2200221
  energy:            121.0158031

- temperature:        48.0000000
  free_energy:       121.0123494
  entropy:             0.0817616
  heat_capacity:       0.2513101
  energy:            121.0162739

- temperature:        50.0000000
  free_energy:       121.0121751
  entropy:             0.0927063
  heat_capacity:       0.2856712
  energy:            121.0168104

- temperature:        52.0000000
  free_energy:       121.0119779
  entropy:             0.1046328
  heat_capacity:       0.3233124
  energy:            121.0174188

- temperature:        54.0000000
  free_energy:       121.0117559
  entropy:             0.1175948
  heat_capacity:       0.3644543
  energy:            121.0181060

- temperature:        56.0000000
  free_energy:       121.0115068
  entropy:             0.1316485
  heat_capacity:       0.4093306
  energy:            121.0188791

- temperature:        58.0000000
  free_energy:       121.0112285
  entropy:             0.1468527
  heat_capacity:       0.4581890
  energy:            121.0197459

- temperature:        60.0000000
  free_energy:       121.0109186
  entropy:             0.1632687
  heat_capacity:       0.5112900
  energy:            121.0207147

- temperature:        62.0000000
  free_energy:       121.0105746
  entropy:             0.1809605
  heat_capacity:       0.5689068
  energy:            121.0217941

- temperature:        64.0000000
  free_energy:       121.0101938
  entropy:             0.1999951
  heat_capacity:       0.6313241
  energy:            121.0229935

- temperature:        66.0000000
  free_energy:       121.0097736
  entropy:             0.2204420
  heat_capacity:       0.6988371
  energy:            121.0243228

- temperature:        68.0000000
  free_energy:       121.0093111
  entropy:             0.2423734
  heat_capacity:       0.7717495
  energy:            121.0257925

- temperature:        70.0000000
  free_energy:       121.0088031
  entropy:             0.2658644
  heat_capacity:       0.8503725
  energy:            121.0274136

- temperature:        72.0000000
  free_energy:       121.0082465
  entropy:             0.2909923
  heat_capacity:       0.9350227
  energy:            121.0291980

- temperature:        74.0000000
  free_energy:       121.0076380
  entropy:             0.3178371
  heat_capacity:       1.0260200
  energy:            121.0311579

- temperature:        76.0000000
  free_energy:       121.0069740
  entropy:             0.3464805
  heat_capacity:       1.1236863
  energy:            121.0333065

- temperature:        78.0000000
  free_energy:       121.0062508
  entropy:             0.3770067
  heat_capacity:       1.2283430
  energy:            121.0356573

- temperature:        80.0000000
  free_energy:       121.0054646
  entropy:             0.4095013
  heat_capacity:       1.3403095
  energy:            121.0382248

- temperature:        82.0000000
  free_energy:       121.0046114
  entropy:             0.4440515
  heat_capacity:       1.4599013
  energy:            121.0410237

- temperature:        84.0000000
  free_energy:       121.0036870
  entropy:             0.4807457
  heat_capacity:       1.5874284
  energy:            121.0440696

- temperature:        86.0000000
  free_energy:       121.0026870
  entropy:             0.5196733
  heat_capacity:       1.7231939
  energy:            121.0473789

- temperature:        88.0000000
  free_energy:       121.0016068
  entropy:             0.5609244
  heat_capacity:       1.8674921
  energy:            121.0509681

- temperature:        90.0000000
  free_energy:       121.0004417
  entropy:             0.6045895
  heat_capacity:       2.0206079
  energy:            121.0548547

- temperature:        92.0000000
  free_energy:       120.9991867
  entropy:             0.6507594
  heat_capacity:       2.1828152
  energy:            121.0590566

- temperature:        94.0000000
  free_energy:       120.9978369
  entropy:             0.6995247
  heat_capacity:       2.3543762
  energy:            121.0635922

- temperature:        96.0000000
  free_energy:       120.9963869
  entropy:             0.7509756
  heat_capacity:       2.5355403
  energy:            121.0684805

- temperature:        98.0000000
  free_energy:       120.9948311
  entropy:             0.8052020
  heat_capacity:       2.7265436
  energy:            121.0737409

- temperature:       100.0000000
  free_energy:       120.9931641
  entropy:             0.8622926
  heat_capacity:       2.9276084
  energy:            121.0793934

- temperature:       102.0000000
  free_energy:       120.9913800
  entropy:             0.9223354
  heat_capacity:       3.1389426
  energy:            121.0854582

- temperature:       104.0000000
  free_energy:       120.9894728
  entropy:             0.9854171
  heat_capacity:       3.3607392
  energy:            121.0919561

- temperature:       106.0000000
  free_energy:       120.9874363
  entropy:             1.0516228
  heat_capacity:       3.5931766
  energy:            121.0989083

- temperature:       108.0000000
  free_energy:       120.9852641
  entropy:             1.1210362
  heat_capacity:       3.8364177
  energy:            121.1063361

- temperature:       110.0000000
  free_energy:       120.9829499
  entropy:             1.1937393
  heat_capacity:       4.0906105
  energy:            121.1142612

- temperature:       112.0000000
  free_energy:       120.9804869
  entropy:             1.2698120
  heat_capacity:       4.3558877
  energy:            121.1227059

- temperature:       114.0000000
  free_energy:       120.9778684
  entropy:             1.3493324
  heat_capacity:       4.6323667
  energy:            121.1316923

- temperature:       116.0000000
  free_energy:       120.9750873
  entropy:             1.4323761
  heat_capacity:       4.9201499
  energy:            121.1412429

- temperature:       118.0000000
  free_energy:       120.9721365
  entropy:             1.5190168
  heat_capacity:       5.2193249
  energy:            121.1513805

- temperature:       120.0000000
  free_energy:       120.9690087
  entropy:             1.6093257
  heat_capacity:       5.5299644
  energy:            121.1621278

- temperature:       122.0000000
  free_energy:       120.9656967
  entropy:             1.7033715
  heat_capacity:       5.8521266
  energy:            121.1735080

- temperature:       124.0000000
  free_energy:       120.9621927
  entropy:             1.8012204
  heat_capacity:       6.1858555
  energy:            121.1855440

- temperature:       126.0000000
  free_energy:       120.9584892
  entropy:             1.9029360
  heat_capacity:       6.5311809
  energy:            121.1982591

- temperature:       128.0000000
  free_energy:       120.9545784
  entropy:             2.0085793
  heat_capacity:       6.8881192
  energy:            121.2116765

- temperature:       130.0000000
  free_energy:       120.9504522
  entropy:             2.1182087
  heat_capacity:       7.2566731
  energy:            121.2258194

- temperature:       132.0000000
  free_energy:       120.9461028
  entropy:             2.2318796
  heat_capacity:       7.6368323
  energy:            121.2407109

- temperature:       134.0000000
  free_energy:       120.9415220
  entropy:             2.3496450
  heat_capacity:       8.0285737
  energy:            121.2563744

- temperature:       136.0000000
  free_energy:       120.9367015
  entropy:             2.4715548
  heat_capacity:       8.4318620
  energy:            121.2728329

- temperature:       138.0000000
  free_energy:       120.9316330
  entropy:             2.5976562
  heat_capacity:       8.8466496
  energy:            121.2901095

- temperature:       140.0000000
  free_energy:       120.9263080
  entropy:             2.7279937
  heat_capacity:       9.2728775
  energy:            121.3082272

- temperature:       142.0000000
  free_energy:       120.9207182
  entropy:             2.8626090
  heat_capacity:       9.7104752
  energy:            121.3272086

- temperature:       144.0000000
  free_energy:       120.9148547
  entropy:             3.0015407
  heat_capacity:      10.1593614
  energy:            121.3470766

- temperature:       146.0000000
  free_energy:       120.9087091
  entropy:             3.1448250
  heat_capacity:      10.6194444
  energy:            121.3678535

- temperature:       148.0000000
  free_energy:       120.9022725
  entropy:             3.2924950
  heat_capacity:      11.0906222
  energy:            121.3895618

- temperature:       150.0000000
  free_energy:       120.8955362
  entropy:             3.4445812
  heat_capacity:      11.5727831
  energy:            121.4122233

- temperature:       152.0000000
  free_energy:       120.8884912
  entropy:             3.6011113
  heat_capacity:      12.0658063
  energy:            121.4358601

- temperature:       154.0000000
  free_energy:       120.8811287
  entropy:             3.7621103
  heat_capacity:      12.5695619
  energy:            121.4604937

- temperature:       156.0000000
  free_energy:       120.8734398
  entropy:             3.9276004
  heat_capacity:      13.0839115
  energy:            121.4861454

- temperature:       158.0000000
  free_energy:       120.8654153
  entropy:             4.0976013
  heat_capacity:      13.6087088
  energy:            121.5128363

- temperature:       160.0000000
  free_energy:       120.8570464
  entropy:             4.2721299
  heat_capacity:      14.1437997
  energy:            121.5405871

- temperature:       162.0000000
  free_energy:       120.8483238
  entropy:             4.4512007
  heat_capacity:      14.6890229
  energy:            121.5694183

- temperature:       164.0000000
  free_energy:       120.8392385
  entropy:             4.6348254
  heat_capacity:      15.2442101
  energy:            121.5993499

- temperature:       166.0000000
  free_energy:       120.8297814
  entropy:             4.8230134
  heat_capacity:      15.8091868
  energy:            121.6304017

- temperature:       168.0000000
  free_energy:       120.8199434
  entropy:             5.0157715
  heat_capacity:      16.3837722
  energy:            121.6625930

- temperature:       170.0000000
  free_energy:       120.8097153
  entropy:             5.2131043
  heat_capacity:      16.9677801
  energy:            121.6959430

- temperature:       172.0000000
  free_energy:       120.7990879
  entropy:             5.4150137
  heat_capacity:      17.5610189
  energy:            121.7304703

- temperature:       174.0000000
  free_energy:       120.7880522
  entropy:             5.6214996
  heat_capacity:      18.1632922
  energy:            121.7661931

- temperature:       176.0000000
  free_energy:       120.7765989
  entropy:             5.8325595
  heat_capacity:      18.7743991
  energy:            121.8031294

- temperature:       178.0000000
  free_energy:       120.7647189
  entropy:             6.0481886
  heat_capacity:      19.3941348
  energy:            121.8412965

- temperature:       180.0000000
  free_energy:       120.7524031
  entropy:             6.2683801
  heat_capacity:      20.0222905
  energy:            121.8807115

- temperature:       182.0000000
  free_energy:       120.7396424
  entropy:             6.4931250
  heat_capacity:      20.6586543
  energy:            121.9213911

- temperature:       184.0000000
  free_energy:       120.7264276
  entropy:             6.7224124
  heat_capacity:      21.3030113
  energy:            121.9633515

- temperature:       186.0000000
  free_energy:       120.7127497
  entropy:             6.9562293
  heat_capacity:      21.9551440
  energy:            122.0066083

- temperature:       188.0000000
  free_energy:       120.6985996
  entropy:             7.1945608
  heat_capacity:      22.6148325
  energy:            122.0511771

- temperature:       190.0000000
  free_energy:       120.6839684
  entropy:             7.4373901
  heat_capacity:      23.2818550
  energy:            122.0970726

- temperature:       192.0000000
  free_energy:       120.6688471
  entropy:             7.6846986
  heat_capacity:      23.9559883
  energy:            122.1443092

- temperature:       194.0000000
  free_energy:       120.6532267
  entropy:             7.9364661
  heat_capacity:      24.6370076
  energy:            122.1929011

- temperature:       196.0000000
  free_energy:       120.6370983
  entropy:             8.1926705
  heat_capacity:      25.3246873
  energy:            122.2428617

- temperature:       198.0000000
  free_energy:       120.6204531
  entropy:             8.4532883
  heat_capacity:      26.0188012
  energy:            122.2942041

- temperature:       200.0000000
  free_energy:       120.6032822
  entropy:             8.7182942
  heat_capacity:      26.7191226
  energy:            122.3469411

- temperature:       202.0000000
  free_energy:       120.5855770
  entropy:             8.9876616
  heat_capacity:      27.4254245
  energy:            122.4010846

- temperature:       204.0000000
  free_energy:       120.5673287
  entropy:             9.2613623
  heat_capacity:      28.1374804
  energy:            122.4566466

- temperature:       206.0000000
  free_energy:       120.5485287
  entropy:             9.5393669
  heat_capacity:      28.8550639
  energy:            122.5136382

- temperature:       208.0000000
  free_energy:       120.5291683
  entropy:             9.8216444
  heat_capacity:      29.5779495
  energy:            122.5720704

- temperature:       210.0000000
  free_energy:       120.5092392
  entropy:            10.1081627
  heat_capacity:      30.3059124
  energy:            122.6319534

- temperature:       212.0000000
  free_energy:       120.4887329
  entropy:            10.3988885
  heat_capacity:      31.0387289
  energy:            122.6932973

- temperature:       214.0000000
  free_energy:       120.4676409
  entropy:            10.6937874
  heat_capacity:      31.7761767
  energy:            122.7561114

- temperature:       216.0000000
  free_energy:       120.4459550
  entropy:            10.9928237
  heat_capacity:      32.5180349
  energy:            122.8204049

- temperature:       218.0000000
  free_energy:       120.4236669
  entropy:            11.2959608
  heat_capacity:      33.2640846
  energy:            122.8861863

- temperature:       220.0000000
  free_energy:       120.4007684
  entropy:            11.6031612
  heat_capacity:      34.0141084
  energy:            122.9534639

- temperature:       222.0000000
  free_energy:       120.3772516
  entropy:            11.9143862
  heat_capacity:      34.7678911
  energy:            123.0222453

- temperature:       224.0000000
  free_energy:       120.3531082
  entropy:            12.2295964
  heat_capacity:      35.5252198
  energy:            123.0925378

- temperature:       226.0000000
  free_energy:       120.3283305
  entropy:            12.5487516
  heat_capacity:      36.2858839
  energy:            123.1643484

- temperature:       228.0000000
  free_energy:       120.3029106
  entropy:            12.8718106
  heat_capacity:      37.0496753
  energy:            123.2376834

- temperature:       230.0000000
  free_energy:       120.2768407
  entropy:            13.1987318
  heat_capacity:      37.8163884
  energy:            123.3125490

- temperature:       232.0000000
  free_energy:       120.2501131
  entropy:            13.5294727
  heat_capacity:      38.5858206
  energy:            123.3889508

- temperature:       234.0000000
  free_energy:       120.2227203
  entropy:            13.8639901
  heat_capacity:      39.3577719
  energy:            123.4668940

- temperature:       236.0000000
  free_energy:       120.1946547
  entropy:            14.2022404
  heat_capacity:      40.1320455
  energy:            123.5463834

- temperature:       238.0000000
  free_energy:       120.1659089
  entropy:            14.5441794
  heat_capacity:      40.9084473
  energy:            123.6274236

- temperature:       240.0000000
  free_energy:       120.1364756
  entropy:            14.8897624
  heat_capacity:      41.6867868
  energy:            123.7100185

- temperature:       242.0000000
  free_energy:       120.1063474
  entropy:            15.2389441
  heat_capacity:      42.4668764
  energy:            123.7941719

- temperature:       244.0000000
  free_energy:       120.0755174
  entropy:            15.5916790
  heat_capacity:      43.2485317
  energy:            123.8798871

- temperature:       246.0000000
  free_energy:       120.0439784
  entropy:            15.9479210
  heat_capacity:      44.0315720
  energy:            123.9671670

- temperature:       248.0000000
  free_energy:       120.0117234
  entropy:            16.3076240
  heat_capacity:      44.8158196
  energy:            124.0560142

- temperature:       250.0000000
  free_energy:       119.9787456
  entropy:            16.6707413
  heat_capacity:      45.6011005
  energy:            124.1464309

- temperature:       252.0000000
  free_energy:       119.9450382
  entropy:            17.0372259
  heat_capacity:      46.3872440
  energy:            124.2384191

- temperature:       254.0000000
  free_energy:       119.9105945
  entropy:            17.4070310
  heat_capacity:      47.1740831
  energy:            124.3319804

- temperature:       256.0000000
  free_energy:       119.8754079
  entropy:            17.7801091
  heat_capacity:      47.9614542
  energy:            124.4271158

- temperature:       258.0000000
  free_energy:       119.8394719
  entropy:            18.1564129
  heat_capacity:      48.7491972
  energy:            124.5238264

- temperature:       260.0000000
  free_energy:       119.8027801
  entropy:            18.5358948
  heat_capacity:      49.5371558
  energy:            124.6221128

- temperature:       262.0000000
  free_energy:       119.7653262
  entropy:            18.9185071
  heat_capacity:      50.3251771
  energy:            124.7219751

- temperature:       264.0000000
  free_energy:       119.7271040
  entropy:            19.3042022
  heat_capacity:      51.1131118
  energy:            124.8234134

- temperature:       266.0000000
  free_energy:       119.6881074
  entropy:            19.6929323
  heat_capacity:      51.9008142
  energy:            124.9264274

- temperature:       268.0000000
  free_energy:       119.6483303
  entropy:            20.0846496
  heat_capacity:      52.6881422
  energy:            125.0310164

- temperature:       270.0000000
  free_energy:       119.6077669
  entropy:            20.4793065
  heat_capacity:      53.4749573
  energy:            125.1371796

- temperature:       272.0000000
  free_energy:       119.5664112
  entropy:            20.8768553
  heat_capacity:      54.2611245
  energy:            125.2449158

- temperature:       274.0000000
  free_energy:       119.5242575
  entropy:            21.2772484
  heat_capacity:      55.0465125
  energy:            125.3542236

- temperature:       276.0000000
  free_energy:       119.4813003
  entropy:            21.6804382
  heat_capacity:      55.8309933
  energy:            125.4651013

- temperature:       278.0000000
  free_energy:       119.4375340
  entropy:            22.0863774
  heat_capacity:      56.6144425
  energy:            125.5775469

- temperature:       280.0000000
  free_energy:       119.3929530
  entropy:            22.4950188
  heat_capacity:      57.3967392
  energy:            125.6915583

- temperature:       282.0000000
  free_energy:       119.3475521
  entropy:            22.9063152
  heat_capacity:      58.1777659
  energy:            125.8071330

- temperature:       284.0000000
  free_energy:       119.3013260
  entropy:            23.3202197
  heat_capacity:      58.9574086
  energy:            125.9242684

- temperature:       286.0000000
  free_energy:       119.2542695
  entropy:            23.7366857
  heat_capacity:      59.7355566
  energy:            126.0429616

- temperature:       288.0000000
  free_energy:       119.2063776
  entropy:            24.1556666
  heat_capacity:      60.5121026
  energy:            126.1632096

- temperature:       290.0000000
  free_energy:       119.1576452
  entropy:            24.5771162
  heat_capacity:      61.2869425
  energy:            126.2850089

- temperature:       292.0000000
  free_energy:       119.1080675
  entropy:            25.0009884
  heat_capacity:      62.0599755
  energy:            126.4083561

- temperature:       294.0000000
  free_energy:       119.0576397
  entropy:            25.4272376
  heat_capacity:      62.8311042
  energy:            126.5332475

- temperature:       296.0000000
  free_energy:       119.0063570
  entropy:            25.8558183
  heat_capacity:      63.6002340
  energy:            126.6596792

- temperature:       298.0000000
  free_energy:       118.9542149
  entropy:            26.2866853
  heat_capacity:      64.3672739
  energy:            126.7876471

- temperature:       300.0000000
  free_energy:       118.9012088
  entropy:            26.7197936
  heat_capacity:      65.1321356
  energy:            126.9171469

- temperature:       302.0000000
  free_energy:       118.8473342
  entropy:            27.1550989
  heat_capacity:      65.8947340
  energy:            127.0481741

- temperature:       304.0000000
  free_energy:       118.7925869
  entropy:            27.5925569
  heat_capacity:      66.6549869
  energy:            127.1807242

- temperature:       306.0000000
  free_energy:       118.7369626
  entropy:            28.0321237
  heat_capacity:      67.4128152
  energy:            127.3147924

- temperature:       308.0000000
  free_energy:       118.6804571
  entropy:            28.4737557
  heat_capacity:      68.1681426
  energy:            127.4503738

- temperature:       310.0000000
  free_energy:       118.6230662
  entropy:            28.9174099
  heat_capacity:      68.9208955
  energy:            127.5874633

- temperature:       312.0000000
  free_energy:       118.5647861
  entropy:            29.3630434
  heat_capacity:      69.6710033
  energy:            127.7260556

- temperature:       314.0000000
  free_energy:       118.5056128
  entropy:            29.8106138
  heat_capacity:      70.4183981
  energy:            127.8661455

- temperature:       316.0000000
  free_energy:       118.4455424
  entropy:            30.2600791
  heat_capacity:      71.1630144
  energy:            128.0077274

- temperature:       318.0000000
  free_energy:       118.3845712
  entropy:            30.7113977
  heat_capacity:      71.9047896
  energy:            128.1507957

- temperature:       320.0000000
  free_energy:       118.3226956
  entropy:            31.1645282
  heat_capacity:      72.6436638
  energy:            128.2953446

- temperature:       322.0000000
  free_energy:       118.2599119
  entropy:            31.6194299
  heat_capacity:      73.3795792
  energy:            128.4413683

- temperature:       324.0000000
  free_energy:       118.1962167
  entropy:            32.0760624
  heat_capacity:      74.1124807
  energy:            128.5888609

- temperature:       326.0000000
  free_energy:       118.1316065
  entropy:            32.5343855
  heat_capacity:      74.8423158
  energy:            128.7378162

- temperature:       328.0000000
  free_energy:       118.0660781
  entropy:            32.9943599
  heat_capacity:      75.5690340
  energy:            128.8882281

- temperature:       330.0000000
  free_energy:       117.9996280
  entropy:            33.4559461
  heat_capacity:      76.2925872
  energy:            129.0400903

- temperature:       332.0000000
  free_energy:       117.9322532
  entropy:            33.9191056
  heat_capacity:      77.0129298
  energy:            129.1933963

- temperature:       334.0000000
  free_energy:       117.8639506
  entropy:            34.3838001
  heat_capacity:      77.7300181
  energy:            129.3481398

- temperature:       336.0000000
  free_energy:       117.7947170
  entropy:            34.8499915
  heat_capacity:      78.4438108
  energy:            129.5043142

- temperature:       338.0000000
  free_energy:       117.7245496
  entropy:            35.3176425
  heat_capacity:      79.1542684
  energy:            129.6619128

- temperature:       340.0000000
  free_energy:       117.6534455
  entropy:            35.7867161
  heat_capacity:      79.8613537
  energy:            129.8209290

- temperature:       342.0000000
  free_energy:       117.5814019
  entropy:            36.2571758
  heat_capacity:      80.5650314
  energy:            129.9813560

- temperature:       344.0000000
  free_energy:       117.5084159
  entropy:            36.7289852
  heat_capacity:      81.2652681
  energy:            130.1431868

- temperature:       346.0000000
  free_energy:       117.4344850
  entropy:            37.2021089
  heat_capacity:      81.9620325
  energy:            130.3064147

- temperature:       348.0000000
  free_energy:       117.3596066
  entropy:            37.6765115
  heat_capacity:      82.6552949
  energy:            130.4710326

- temperature:       350.0000000
  free_energy:       117.2837782
  entropy:            38.1521582
  heat_capacity:      83.3450275
  energy:            130.6370335

- temperature:       352.0000000
  free_energy:       117.2069972
  entropy:            38.6290147
  heat_capacity:      84.0312043
  energy:            130.8044104

- temperature:       354.0000000
  free_energy:       117.1292613
  entropy:            39.1070471
  heat_capacity:      84.7138009
  energy:            130.9731560

- temperature:       356.0000000
  free_energy:       117.0505682
  entropy:            39.5862217