<?xml version="1.0" encoding="ISO-8859-1"?>
<modeling>
 <generator>
  <i name="program" type="string">vasp </i>
  <i name="version" type="string">5.4.4.18Apr17-6-g9f103f2a35  </i>
  <i name="subversion" type="string">(build Mar 12 2022 03:36:41) complex            parallel </i>
  <i name="platform" type="string">IFC19.0.3.199_CrayMPICH7.7.19 </i>
  <i name="date" type="string">2022 12 02 </i>
  <i name="time" type="string">02:55:49 </i>
 </generator>
 <incar>
  <i type="string" name="PREC">accurate</i>
  <i type="int" name="IALGO">    38</i>
  <i type="logical" name="ADDGRID"> T  </i>
  <i type="int" name="IBRION">     8</i>
  <i name="EDIFF">      0.00000001</i>
  <i type="logical" name="LREAL"> F  </i>
  <i type="int" name="ISMEAR">     0</i>
  <i name="SIGMA">      0.06000000</i>
  <i type="logical" name="LWAVE"> F  </i>
  <i type="logical" name="LCHARG"> F  </i>
  <v type="int" name="KPOINT_BSE">    -1     0     0     0</v>
 </incar>
 <structure name="primitive_cell" >
  <crystal>
   <varray name="basis" >
    <v>       1.86541820       1.86541820      -0.00000000 </v>
    <v>       1.86541820       0.00000000      -1.86541820 </v>
    <v>       0.00000000       1.86541820      -1.86541820 </v>
   </varray>
   <i name="volume">     12.98250873 </i>
   <varray name="rec_basis" >
    <v>       0.26803641       0.26803641       0.26803641 </v>
    <v>       0.26803641      -0.26803641      -0.26803641 </v>
    <v>      -0.26803641       0.26803641      -0.26803641 </v>
   </varray>
  </crystal>
  <varray name="positions" >
   <v>       0.25000000       0.25000000       0.25000000 </v>
   <v>      -0.50000000      -0.50000000      -0.50000000 </v>
  </varray>
 </structure>
 <varray name="primitive_index" >
  <v type="int" >        1 </v>
  <v type="int" >       11 </v>
 </varray>
 <kpoints>
  <generation param="Gamma">
   <v type="int" name="divisions">       6        6        6 </v>
   <v name="usershift">      0.00000000       0.00000000       0.00000000 </v>
   <v name="genvec1">      0.16666667       0.00000000       0.00000000 </v>
   <v name="genvec2">      0.00000000       0.16666667       0.00000000 </v>
   <v name="genvec3">      0.00000000       0.00000000       0.16666667 </v>
   <v name="shift">      0.00000000       0.00000000       0.00000000 </v>
  </generation>
  <varray name="kpointlist" >
   <v>       0.00000000       0.00000000       0.00000000 </v>
   <v>       0.16666667       0.00000000       0.00000000 </v>
   <v>       0.33333333       0.00000000       0.00000000 </v>
   <v>       0.50000000       0.00000000       0.00000000 </v>
   <v>       0.16666667       0.16666667       0.00000000 </v>
   <v>       0.33333333       0.16666667       0.00000000 </v>
   <v>       0.50000000       0.16666667       0.00000000 </v>
   <v>       0.33333333       0.33333333       0.00000000 </v>
   <v>       0.50000000       0.33333333       0.00000000 </v>
   <v>       0.50000000       0.50000000       0.00000000 </v>
   <v>       0.16666667       0.16666667       0.16666667 </v>
   <v>       0.33333333       0.16666667       0.16666667 </v>
   <v>       0.50000000       0.16666667       0.16666667 </v>
   <v>       0.33333333       0.33333333       0.16666667 </v>
   <v>       0.50000000       0.33333333       0.16666667 </v>
   <v>       0.50000000       0.50000000       0.16666667 </v>
   <v>       0.33333333       0.33333333       0.33333333 </v>
   <v>       0.50000000       0.33333333       0.33333333 </v>
   <v>       0.50000000       0.50000000       0.33333333 </v>
   <v>       0.50000000       0.50000000       0.50000000 </v>
  </varray>
  <varray name="weights" >
   <v>       0.00462963 </v>
   <v>       0.02777778 </v>
   <v>       0.02777778 </v>
   <v>       0.01388889 </v>
   <v>       0.05555556 </v>
   <v>       0.11111111 </v>
   <v>       0.05555556 </v>
   <v>       0.05555556 </v>
   <v>       0.05555556 </v>
   <v>       0.01388889 </v>
   <v>       0.03703704 </v>
   <v>       0.11111111 </v>
   <v>       0.05555556 </v>
   <v>       0.11111111 </v>
   <v>       0.11111111 </v>
   <v>       0.02777778 </v>
   <v>       0.03703704 </v>
   <v>       0.05555556 </v>
   <v>       0.02777778 </v>
   <v>       0.00462963 </v>
  </varray>
 </kpoints>
 <parameters>
  <separator name="general" >
   <i type="string" name="SYSTEM">unknown system</i>
   <i type="logical" name="LCOMPAT"> F  </i>
  </separator>
  <separator name="electronic" >
   <i type="string" name="PREC">accura</i>
   <i name="ENMAX">    400.00000000</i>
   <i name="ENAUG">    644.87300000</i>
   <i name="EDIFF">      0.00000001</i>
   <i type="int" name="IALGO">    38</i>
   <i type="int" name="IWAVPR">    11</i>
   <i type="int" name="NBANDS">   192</i>
   <i name="NELECT">    256.00000000</i>
   <i type="int" name="TURBO">     0</i>
   <i type="int" name="IRESTART">     0</i>
   <i type="int" name="NREBOOT">     0</i>
   <i type="int" name="NMIN">     0</i>
   <i name="EREF">      0.00000000</i>
   <separator name="electronic smearing" >
    <i type="int" name="ISMEAR">     0</i>
    <i name="SIGMA">      0.06000000</i>
    <i name="KSPACING">      0.50000000</i>
    <i type="logical" name="KGAMMA"> T  </i>
   </separator>
   <separator name="electronic projectors" >
    <i type="logical" name="LREAL"> F  </i>
    <v name="ROPT">      0.00000000</v>
    <i type="int" name="LMAXPAW">  -100</i>
    <i type="int" name="LMAXMIX">     2</i>
    <i type="logical" name="NLSPLINE"> F  </i>
   </separator>
   <separator name="electronic startup" >
    <i type="int" name="ISTART">     0</i>
    <i type="int" name="ICHARG">     2</i>
    <i type="int" name="INIWAV">     1</i>
   </separator>
   <separator name="electronic spin" >
    <i type="int" name="ISPIN">     1</i>
    <i type="logical" name="LNONCOLLINEAR"> F  </i>
    <v name="MAGMOM">      1.00000000      1.00000000      1.00000000      1.00000000      1.00000000      1.00000000      1.00000000      1.00000000      1.00000000      1.00000000      1.00000000      1.00000000      1.00000000      1.00000000      1.00000000      1.00000000      1.00000000      1.00000000      1.00000000      1.00000000
      1.00000000      1.00000000      1.00000000      1.00000000      1.00000000      1.00000000      1.00000000      1.00000000      1.00000000      1.00000000      1.00000000      1.00000000      1.00000000      1.00000000      1.00000000      1.00000000      1.00000000      1.00000000      1.00000000      1.00000000
      1.00000000      1.00000000      1.00000000      1.00000000      1.00000000      1.00000000      1.00000000      1.00000000      1.00000000      1.00000000      1.00000000      1.00000000      1.00000000      1.00000000      1.00000000      1.00000000      1.00000000      1.00000000      1.00000000      1.00000000
      1.00000000      1.00000000      1.00000000      1.00000000</v>
    <i name="NUPDOWN">     -1.00000000</i>
    <i type="logical" name="LSORBIT"> F  </i>
    <v name="SAXIS">      0.00000000      0.00000000      1.00000000</v>
    <i type="logical" name="LSPIRAL"> F  </i>
    <v name="QSPIRAL">      0.00000000      0.00000000      0.00000000</v>
    <i type="logical" name="LZEROZ"> F  </i>
   </separator>
   <separator name="electronic exchange-correlation" >
    <i type="logical" name="LASPH"> F  </i>
    <i type="logical" name="LMETAGGA"> F  </i>
   </separator>
   <separator name="electronic convergence" >
    <i type="int" name="NELM">    60</i>
    <i type="int" name="NELMDL">    -5</i>
    <i type="int" name="NELMIN">     2</i>
    <i name="ENINI">    400.00000000</i>
    <separator name="electronic convergence detail" >
     <i type="logical" name="LDIAG"> T  </i>
     <i type="logical" name="LSUBROT"> F  </i>
     <i name="WEIMIN">      0.00100000</i>
     <i name="EBREAK">      0.00000000</i>
     <i name="DEPER">      0.30000000</i>
     <i type="int" name="NRMM">     4</i>
     <i name="TIME">      0.40000000</i>
    </separator>
   </separator>
   <separator name="electronic mixer" >
    <i name="AMIX">      0.40000000</i>
    <i name="BMIX">      1.00000000</i>
    <i name="AMIN">      0.10000000</i>
    <i name="AMIX_MAG">      1.60000000</i>
    <i name="BMIX_MAG">      1.00000000</i>
    <separator name="electronic mixer details" >
     <i type="int" name="IMIX">     4</i>
     <i type="logical" name="MIXFIRST"> F  </i>
     <i type="int" name="MAXMIX">   -45</i>
     <i name="WC">    100.00000000</i>
     <i type="int" name="INIMIX">     1</i>
     <i type="int" name="MIXPRE">     1</i>
     <i type="int" name="MREMOVE">     5</i>
    </separator>
   </separator>
   <separator name="electronic dipolcorrection" >
    <i type="logical" name="LDIPOL"> F  </i>
    <i type="logical" name="LMONO"> F  </i>
    <i type="int" name="IDIPOL">     0</i>
    <i name="EPSILON">      1.00000000</i>
    <v name="DIPOL">   -100.00000000   -100.00000000   -100.00000000</v>
    <i name="EFIELD">      0.00000000</i>
   </separator>
  </separator>
  <separator name="grids" >
   <i type="int" name="NGX">    50</i>
   <i type="int" name="NGY">    50</i>
   <i type="int" name="NGZ">    50</i>
   <i type="int" name="NGXF">   100</i>
   <i type="int" name="NGYF">   100</i>
   <i type="int" name="NGZF">   100</i>
   <i type="logical" name="ADDGRID"> T  </i>
  </separator>
  <separator name="ionic" >
   <i type="int" name="NSW">     1</i>
   <i type="int" name="IBRION">     8</i>
   <i type="int" name="MDALGO">     0</i>
   <i type="int" name="ISIF">     2</i>
   <i name="PSTRESS">      0.00000000</i>
   <i name="EDIFFG">      0.00000010</i>
   <i type="int" name="NFREE">     0</i>
   <i name="POTIM">      0.50000000</i>
   <i name="SMASS">     -3.00000000</i>
   <i name="SCALEE">      1.00000000</i>
  </separator>
  <separator name="ionic md" >
   <i name="TEBEG">      0.00010000</i>
   <i name="TEEND">      0.00010000</i>
   <i type="int" name="NBLOCK">     1</i>
   <i type="int" name="KBLOCK">     1</i>
   <i type="int" name="NPACO">   256</i>
   <i name="APACO">     16.00000000</i>
  </separator>
  <separator name="symmetry" >
   <i type="int" name="ISYM">     2</i>
   <i name="SYMPREC">      0.00001000</i>
  </separator>
  <separator name="dos" >
   <i type="int" name="LORBIT">     0</i>
   <v name="RWIGS">     -1.00000000</v>
   <i type="int" name="NEDOS">   301</i>
   <i name="EMIN">     10.00000000</i>
   <i name="EMAX">    -10.00000000</i>
   <i name="EFERMI">      0.00000000</i>
  </separator>
  <separator name="writing" >
   <i type="int" name="NWRITE">     2</i>
   <i type="logical" name="LWAVE"> F  </i>
   <i type="logical" name="LDOWNSAMPLE"> F  </i>
   <i type="logical" name="LCHARG"> F  </i>
   <i type="logical" name="LPARD"> F  </i>
   <i type="logical" name="LVTOT"> F  </i>
   <i type="logical" name="LVHAR"> F  </i>
   <i type="logical" name="LELF"> F  </i>
   <i type="logical" name="LOPTICS"> F  </i>
   <v name="STM">      0.00000000      0.00000000      0.00000000      0.00000000      0.00000000      0.00000000      0.00000000</v>
  </separator>
  <separator name="performance" >
   <i type="int" name="NPAR">    32</i>
   <i type="int" name="NSIM">     4</i>
   <i type="int" name="NBLK">    -1</i>
   <i type="logical" name="LPLANE"> T  </i>
   <i type="logical" name="LSCALAPACK"> T  </i>
   <i type="logical" name="LSCAAWARE"> F  </i>
   <i type="logical" name="LSCALU"> F  </i>
   <i type="logical" name="LASYNC"> F  </i>
   <i type="logical" name="LORBITALREAL"> F  </i>
  </separator>
  <separator name="miscellaneous" >
   <i type="int" name="IDIOT">     3</i>
   <i type="int" name="ISPECIAL">     0</i>
   <i type="logical" name="LMUSIC"> F  </i>
   <v name="POMASS">     12.01100000</v>
   <v name="DARWINR">      0.00000000</v>
   <v name="DARWINV">      1.00000000</v>
   <i type="logical" name="LCORR"> T  </i>
  </separator>
  <i type="logical" name="GGA_COMPAT"> T  </i>
  <i type="logical" name="LBERRY"> F  </i>
  <i type="int" name="ICORELEVEL">     0</i>
  <i type="logical" name="LDAU"> F  </i>
  <i type="int" name="I_CONSTRAINED_M">     0</i>
  <separator name="electronic exchange-correlation" >
   <i type="string" name="GGA">--</i>
   <i type="int" name="VOSKOWN">     0</i>
   <i type="logical" name="LHFCALC"> F  </i>
   <i type="string" name="PRECFOCK"></i>
   <i type="logical" name="LSYMGRAD"> F  </i>
   <i type="logical" name="LHFONE"> F  </i>
   <i type="logical" name="LRHFCALC"> F  </i>
   <i type="logical" name="LTHOMAS"> F  </i>
   <i type="logical" name="LMODELHF"> F  </i>
   <i name="ENCUT4O">     -1.00000000</i>
   <i type="int" name="EXXOEP">     0</i>
   <i type="int" name="FOURORBIT">     0</i>
   <i name="AEXX">      0.00000000</i>
   <i name="HFALPHA">      0.00000000</i>
   <i name="MCALPHA">      0.00000000</i>
   <i name="ALDAX">      1.00000000</i>
   <i name="AGGAX">      1.00000000</i>
   <i name="ALDAC">      1.00000000</i>
   <i name="AGGAC">      1.00000000</i>
   <i type="int" name="NKREDX">     1</i>
   <i type="int" name="NKREDY">     1</i>
   <i type="int" name="NKREDZ">     1</i>
   <i type="logical" name="SHIFTRED"> F  </i>
   <i type="logical" name="ODDONLY"> F  </i>
   <i type="logical" name="EVENONLY"> F  </i>
   <i type="int" name="LMAXFOCK">     0</i>
   <i type="int" name="NMAXFOCKAE">     0</i>
   <i type="logical" name="LFOCKAEDFT"> F  </i>
   <i name="HFSCREEN">      0.00000000</i>
   <i name="HFSCREENC">      0.00000000</i>
   <i type="int" name="NBANDSGWLOW">     0</i>
  </separator>
  <separator name="vdW DFT" >
   <i type="logical" name="LUSE_VDW"> F  </i>
   <i name="Zab_VDW">     -0.84910000</i>
   <i name="PARAM1">      0.12340000</i>
   <i name="PARAM2">      1.00000000</i>
   <i name="PARAM3">      0.00000000</i>
  </separator>
  <separator name="model GW" >
   <i type="int" name="MODEL_GW">     0</i>
   <i name="MODEL_EPS0">      3.89475262</i>
   <i name="MODEL_ALPHA">      1.00000000</i>
  </separator>
  <separator name="linear response parameters" >
   <i type="logical" name="LEPSILON"> F  </i>
   <i type="logical" name="LRPA"> F  </i>
   <i type="logical" name="LNABLA"> F  </i>
   <i type="logical" name="LVEL"> F  </i>
   <i type="int" name="KINTER">     0</i>
   <i name="CSHIFT">      0.10000000</i>
   <i name="OMEGAMAX">     -1.00000000</i>
   <i name="DEG_THRESHOLD">      0.00200000</i>
   <i name="RTIME">     -0.10000000</i>
   <i name="WPLASMAI">      0.00000000</i>
   <v name="DFIELD">      0.00000000      0.00000000      0.00000000</v>
   <v name="WPLASMA">      0.00000000      0.00000000      0.00000000      0.00000000      0.00000000      0.00000000      0.00000000      0.00000000      0.00000000</v>
  </separator>
  <separator name="orbital magnetization" >
   <i type="logical" name="NUCIND"> F  </i>
   <v name="MAGPOS">      0.00000000      0.00000000      0.00000000</v>
   <i type="logical" name="LNICSALL"> T  </i>
   <i type="logical" name="ORBITALMAG"> F  </i>
   <i type="logical" name="LMAGBLOCH"> F  </i>
   <i type="logical" name="LCHIMAG"> F  </i>
   <i type="logical" name="LGAUGE"> T  </i>
   <i type="int" name="MAGATOM">     0</i>
   <v name="MAGDIPOL">      0.00000000      0.00000000      0.00000000</v>
   <v name="AVECCONST">      0.00000000      0.00000000      0.00000000</v>
  </separator>
  <separator name="response functions" >
   <i type="logical" name="LADDER"> F  </i>
   <i type="logical" name="LRPAFORCE"> F  </i>
   <i type="logical" name="LFXC"> F  </i>
   <i type="logical" name="LHARTREE"> T  </i>
   <i type="int" name="IBSE">     0</i>
   <v type="int" name="KPOINT">    -1     0     0     0</v>
   <i type="logical" name="LTCTE"> F  </i>
   <i type="logical" name="LTETE"> F  </i>
   <i type="logical" name="LTRIPLET"> F  </i>
   <i type="logical" name="LFXCEPS"> F  </i>
   <i type="logical" name="LFXHEG"> F  </i>
   <i type="int" name="NATURALO">     2</i>
   <i type="logical" name="L2ORDER"> F  </i>
   <i type="logical" name="LMP2LT"> F  </i>
   <i type="logical" name="LUSEW"> F  </i>
   <i name="ENCUTGW">     -2.00000000</i>
   <i name="ENCUTGWSOFT">     -2.00000000</i>
   <i name="ENCUTLF">     -1.00000000</i>
   <i type="int" name="LMAXMP2">    -1</i>
   <i name="SCISSOR">      0.00000000</i>
   <i type="int" name="NOMEGA">     0</i>
   <i type="int" name="NOMEGAR">     0</i>
   <i type="int" name="NBANDSGW">    -1</i>
   <i type="int" name="NBANDSO">    -1</i>
   <i type="int" name="NBANDSV">    -1</i>
   <i type="int" name="NELM">     1</i>
   <i type="int" name="NELMHF">     1</i>
   <i type="int" name="DIM">     3</i>
   <i type="int" name="ANTIRES">     0</i>
   <i name="OMEGAMAX">    -30.00000000</i>
   <i name="OMEGAMIN">    -30.00000000</i>
   <i name="OMEGATL">   -200.00000000</i>
   <i type="int" name="OMEGAGRID">   140</i>
   <i name="CSHIFT">     -0.10000000</i>
   <i type="logical" name="SELFENERGY"> F  </i>
   <i type="logical" name="LSPECTRAL"> F  </i>
   <i type="logical" name="LSPECTRALGW"> F  </i>
   <i type="logical" name="LSINGLES"> F  </i>
   <i type="logical" name="LFERMIGW"> F  </i>
   <i type="logical" name="ODDONLYGW"> F  </i>
   <i type="logical" name="EVENONLYGW"> F  </i>
   <i type="int" name="NKREDLFX">     1</i>
   <i type="int" name="NKREDLFY">     1</i>
   <i type="int" name="NKREDLFZ">     1</i>
   <i type="int" name="MAXMEM">  2800</i>
   <i type="int" name="TELESCOPE">     0</i>
   <i type="int" name="TAUPAR">     1</i>
   <i type="int" name="OMEGAPAR">    -1</i>
   <i name="LAMBDA">      1.00000000</i>
  </separator>
  <separator name="External order field" >
   <i name="OFIELD_KAPPA">      0.00000000</i>
   <v name="OFIELD_K">      0.00000000      0.00000000      0.00000000</v>
   <i name="OFIELD_Q6_NEAR">      0.00000000</i>
   <i name="OFIELD_Q6_FAR">      0.00000000</i>
   <i name="OFIELD_A">      0.00000000</i>
  </separator>
 </parameters>
 <atominfo>
  <atoms>      64 </atoms>
  <types>       1 </types>
  <array name="atoms" >
   <dimension dim="1">ion</dimension>
   <field type="string">element</field>
   <field type="int">atomtype</field>
   <set>
    <rc><c>C </c><c>   1</c></rc>
    <rc><c>C </c><c>   1</c></rc>
    <rc><c>C </c><c>   1</c></rc>
    <rc><c>C </c><c>   1</c></rc>
    <rc><c>C </c><c>   1</c></rc>
    <rc><c>C </c><c>   1</c></rc>
    <rc><c>C </c><c>   1</c></rc>
    <rc><c>C </c><c>   1</c></rc>
    <rc><c>C </c><c>   1</c></rc>
    <rc><c>C </c><c>   1</c></rc>
    <rc><c>C </c><c>   1</c></rc>
    <rc><c>C </c><c>   1</c></rc>
    <rc><c>C </c><c>   1</c></rc>
    <rc><c>C </c><c>   1</c></rc>
    <rc><c>C </c><c>   1</c></rc>
    <rc><c>C </c><c>   1</c></rc>
    <rc><c>C </c><c>   1</c></rc>
    <rc><c>C </c><c>   1</c></rc>
    <rc><c>C </c><c>   1</c></rc>
    <rc><c>C </c><c>   1</c></rc>
    <rc><c>C </c><c>   1</c></rc>
    <rc><c>C </c><c>   1</c></rc>
    <rc><c>C </c><c>   1</c></rc>
    <rc><c>C </c><c>   1</c></rc>
    <rc><c>C </c><c>   1</c></rc>
    <rc><c>C </c><c>   1</c></rc>
    <rc><c>C </c><c>   1</c></rc>
    <rc><c>C </c><c>   1</c></rc>
    <rc><c>C </c><c>   1</c></rc>
    <rc><c>C </c><c>   1</c></rc>
    <rc><c>C </c><c>   1</c></rc>
    <rc><c>C </c><c>   1</c></rc>
    <rc><c>C </c><c>   1</c></rc>
    <rc><c>C </c><c>   1</c></rc>
    <rc><c>C </c><c>   1</c></rc>
    <rc><c>C </c><c>   1</c></rc>
    <rc><c>C </c><c>   1</c></rc>
    <rc><c>C </c><c>   1</c></rc>
    <rc><c>C </c><c>   1</c></rc>
    <rc><c>C </c><c>   1</c></rc>
    <rc><c>C </c><c>   1</c></rc>
    <rc><c>C </c><c>   1</c></rc>
    <rc><c>C </c><c>   1</c></rc>
    <rc><c>C </c><c>   1</c></rc>
    <rc><c>C </c><c>   1</c></rc>
    <rc><c>C </c><c>   1</c></rc>
    <rc><c>C </c><c>   1</c></rc>
    <rc><c>C </c><c>   1</c></rc>
    <rc><c>C </c><c>   1</c></rc>
    <rc><c>C </c><c>   1</c></rc>
    <rc><c>C </c><c>   1</c></rc>
    <rc><c>C </c><c>   1</c></rc>
    <rc><c>C </c><c>   1</c></rc>
    <rc><c>C </c><c>   1</c></rc>
    <rc><c>C </c><c>   1</c></rc>
    <rc><c>C </c><c>   1</c></rc>
    <rc><c>C </c><c>   1</c></rc>
    <rc><c>C </c><c>   1</c></rc>
    <rc><c>C </c><c>   1</c></rc>
    <rc><c>C </c><c>   1</c></rc>
    <rc><c>C </c><c>   1</c></rc>
    <rc><c>C </c><c>   1</c></rc>
    <rc><c>C </c><c>   1</c></rc>
    <rc><c>C </c><c>   1</c></rc>
   </set>
  </array>
  <array name="atomtypes" >
   <dimension dim="1">type</dimension>
   <field type="int">atomspertype</field>
   <field type="string">element</field>
   <field>mass</field>
   <field>valence</field>
   <field type="string">pseudopotential</field>
   <set>
    <rc><c>  64</c><c>C </c><c>     12.01100000</c><c>      4.00000000</c><c> PAW_PBE C 08Apr2002                    </c></rc>
   </set>
  </array>
 </atominfo>
 <structure name="initialpos" >
  <crystal>
   <varray name="basis" >
    <v>       7.46167279       0.00000000       0.00000000 </v>
    <v>       0.00000000       7.46167279       0.00000000 </v>
    <v>       0.00000000       0.00000000       7.46167279 </v>
   </varray>
   <i name="volume">    415.44027952 </i>
   <varray name="rec_basis" >
    <v>       0.13401821       0.00000000       0.00000000 </v>
    <v>       0.00000000       0.13401821       0.00000000 </v>
    <v>       0.00000000       0.00000000       0.13401821 </v>
   </varray>
  </crystal>
  <varray name="positions" >
   <v>       0.12500000       0.37500000       0.12500000 </v>
   <v>       0.62500000       0.37500000       0.12500000 </v>
   <v>       0.12500000       0.87500000       0.12500000 </v>
   <v>       0.62500000       0.87500000       0.12500000 </v>
   <v>       0.12500000       0.37500000       0.62500000 </v>
   <v>       0.62500000       0.37500000       0.62500000 </v>
   <v>       0.12500000       0.87500000       0.62500000 </v>
   <v>       0.62500000       0.87500000       0.62500000 </v>
   <v>       0.00000000       0.00000000       0.25000000 </v>
   <v>       0.50000000       0.00000000       0.25000000 </v>
   <v>       0.00000000       0.50000000       0.25000000 </v>
   <v>       0.50000000       0.50000000       0.25000000 </v>
   <v>       0.00000000       0.00000000       0.75000000 </v>
   <v>       0.50000000       0.00000000       0.75000000 </v>
   <v>       0.00000000       0.50000000       0.75000000 </v>
   <v>       0.50000000       0.50000000       0.75000000 </v>
   <v>       0.12500000       0.12500000       0.37500000 </v>
   <v>       0.62500000       0.12500000       0.37500000 </v>
   <v>       0.12500000       0.62500000       0.37500000 </v>
   <v>       0.62500000       0.62500000       0.37500000 </v>
   <v>       0.12500000       0.12500000       0.87500000 </v>
   <v>       0.62500000       0.12500000       0.87500000 </v>
   <v>       0.12500000       0.62500000       0.87500000 </v>
   <v>       0.62500000       0.62500000       0.87500000 </v>
   <v>       0.00000000       0.25000000       0.00000000 </v>
   <v>       0.50000000       0.25000000       0.00000000 </v>
   <v>       0.00000000       0.75000000       0.00000000 </v>
   <v>       0.50000000       0.75000000       0.00000000 </v>
   <v>       0.00000000       0.25000000       0.50000000 </v>
   <v>       0.50000000       0.25000000       0.50000000 </v>
   <v>       0.00000000       0.75000000       0.50000000 </v>
   <v>       0.50000000       0.75000000       0.50000000 </v>
   <v>       0.37500000       0.37500000       0.37500000 </v>
   <v>       0.87500000       0.37500000       0.37500000 </v>
   <v>       0.37500000       0.87500000       0.37500000 </v>
   <v>       0.87500000       0.87500000       0.37500000 </v>
   <v>       0.37500000       0.37500000       0.87500000 </v>
   <v>       0.87500000       0.37500000       0.87500000 </v>
   <v>       0.37500000       0.87500000       0.87500000 </v>
   <v>       0.87500000       0.87500000       0.87500000 </v>
   <v>       0.25000000       0.00000000       0.00000000 </v>
   <v>       0.75000000       0.00000000       0.00000000 </v>
   <v>       0.25000000       0.50000000       0.00000000 </v>
   <v>       0.75000000       0.50000000       0.00000000 </v>
   <v>       0.25000000       0.00000000       0.50000000 </v>
   <v>       0.75000000       0.00000000       0.50000000 </v>
   <v>       0.25000000       0.50000000       0.50000000 </v>
   <v>       0.75000000       0.50000000       0.50000000 </v>
   <v>       0.37500000       0.12500000       0.12500000 </v>
   <v>       0.87500000       0.12500000       0.12500000 </v>
   <v>       0.37500000       0.62500000       0.12500000 </v>
   <v>       0.87500000       0.62500000       0.12500000 </v>
   <v>       0.37500000       0.12500000       0.62500000 </v>
   <v>       0.87500000       0.12500000       0.62500000 </v>
   <v>       0.37500000       0.62500000       0.62500000 </v>
   <v>       0.87500000       0.62500000       0.62500000 </v>
   <v>       0.25000000       0.25000000       0.25000000 </v>
   <v>       0.75000000       0.25000000       0.25000000 </v>
   <v>       0.25000000       0.75000000       0.25000000 </v>
   <v>       0.75000000       0.75000000       0.25000000 </v>
   <v>       0.25000000       0.25000000       0.75000000 </v>
   <v>       0.75000000       0.25000000       0.75000000 </v>
   <v>       0.25000000       0.75000000       0.75000000 </v>
   <v>       0.75000000       0.75000000       0.75000000 </v>
  </varray>
 </structure>
 <calculation>
  <scstep>
   <time name="dav">   14.41   14.42</time>
   <time name="total">   14.56   14.59</time>
   <energy>
    <i name="alphaZ">    803.34711919 </i>
    <i name="ewald"> -10645.12094762 </i>
    <i name="hartreedc">   -662.55433329 </i>
    <i name="XCdc">    888.84198938 </i>
    <i name="pawpsdc">   2421.21235816 </i>
    <i name="pawaedc">  -2494.84305711 </i>
    <i name="eentropy">     -0.01594800 </i>
    <i name="bandstr">    768.98240799 </i>
    <i name="atom">   9416.14232778 </i>
    <i name="e_fr_energy">    495.99191647 </i>
    <i name="e_wo_entrp">    496.00786447 </i>
    <i name="e_0_energy">    495.99989047 </i>
   </energy>
  </scstep>
  <scstep>
   <time name="dav">   19.26   19.47</time>
   <time name="total">   19.27   19.47</time>
   <energy>
    <i name="e_fr_energy">   -543.14488121 </i>
    <i name="e_wo_entrp">   -543.14488121 </i>
    <i name="e_0_energy">   -543.14488121 </i>
   </energy>
  </scstep>
  <scstep>
   <time name="dav">   19.18   19.18</time>
   <time name="total">   19.18   19.18</time>
   <energy>
    <i name="e_fr_energy">   -586.61276418 </i>
    <i name="e_wo_entrp">   -586.61276418 </i>
    <i name="e_0_energy">   -586.61276418 </i>
   </energy>
  </scstep>
  <scstep>
   <time name="dav">   18.54   18.54</time>
   <time name="total">   18.55   18.55</time>
   <energy>
    <i name="e_fr_energy">   -587.18719295 </i>
    <i name="e_wo_entrp">   -587.18719295 </i>
    <i name="e_0_energy">   -587.18719295 </i>
   </energy>
  </scstep>
  <scstep>
   <time name="dav">   17.29   17.29</time>
   <time name="total">   17.89   17.89</time>
   <energy>
    <i name="e_fr_energy">   -587.19940700 </i>
    <i name="e_wo_entrp">   -587.19940700 </i>
    <i name="e_0_energy">   -587.19940700 </i>
   </energy>
  </scstep>
  <scstep>
   <time name="dav">   17.83   17.83</time>
   <time name="total">   18.55   18.55</time>
   <energy>
    <i name="e_fr_energy">   -577.54475555 </i>
    <i name="e_wo_entrp">   -577.54475555 </i>
    <i name="e_0_energy">   -577.54475555 </i>
   </energy>
  </scstep>
  <scstep>
   <time name="dav">   16.55   16.55</time>
   <time name="total">   17.27   17.27</time>
   <energy>
    <i name="e_fr_energy">   -574.27432368 </i>
    <i name="e_wo_entrp">   -574.27432368 </i>
    <i name="e_0_energy">   -574.27432368 </i>
   </energy>
  </scstep>
  <scstep>
   <time name="dav">   17.49   17.49</time>
   <time name="total">   18.22   18.22</time>
   <energy>
    <i name="e_fr_energy">   -574.32043137 </i>
    <i name="e_wo_entrp">   -574.32043137 </i>
    <i name="e_0_energy">   -574.32043137 </i>
   </energy>
  </scstep>
  <scstep>
   <time name="dav">   18.18   18.18</time>
   <time name="total">   18.90   18.90</time>
   <energy>
    <i name="e_fr_energy">   -574.32266095 </i>
    <i name="e_wo_entrp">   -574.32266095 </i>
    <i name="e_0_energy">   -574.32266095 </i>
   </energy>
  </scstep>
  <scstep>
   <time name="dav">   17.21   17.21</time>
   <time name="total">   17.94   17.94</time>
   <energy>
    <i name="e_fr_energy">   -574.32312511 </i>
    <i name="e_wo_entrp">   -574.32312511 </i>
    <i name="e_0_energy">   -574.32312511 </i>
   </energy>
  </scstep>
  <scstep>
   <time name="dav">   18.87   18.87</time>
   <time name="total">   19.62   19.62</time>
   <energy>
    <i name="e_fr_energy">   -574.32312678 </i>
    <i name="e_wo_entrp">   -574.32312678 </i>
    <i name="e_0_energy">   -574.32312678 </i>
   </energy>
  </scstep>
  <scstep>
   <time name="dav">   19.62   19.62</time>
   <time name="total">   20.37   20.37</time>
   <energy>
    <i name="e_fr_energy">   -574.32312745 </i>
    <i name="e_wo_entrp">   -574.32312745 </i>
    <i name="e_0_energy">   -574.32312745 </i>
   </energy>
  </scstep>
  <scstep>
   <time name="dav">   16.46   16.46</time>
   <time name="total">   17.19   17.19</time>
   <energy>
    <i name="e_fr_energy">   -574.32312757 </i>
    <i name="e_wo_entrp">   -574.32312757 </i>
    <i name="e_0_energy">   -574.32312757 </i>
   </energy>
  </scstep>
  <scstep>
   <time name="dav">   16.02   16.03</time>
   <time name="total">   16.17   16.17</time>
   <energy>
    <i name="alphaZ">    803.34711919 </i>
    <i name="ewald"> -10645.12094762 </i>
    <i name="hartreedc">   -906.98894850 </i>
    <i name="XCdc">    911.61885895 </i>
    <i name="pawpsdc">   3713.09060921 </i>
    <i name="pawaedc">  -3791.56447823 </i>
    <i name="eentropy">     -0.00000000 </i>
    <i name="bandstr">    -74.84766835 </i>
    <i name="atom">   9416.14232778 </i>
    <i name="e_fr_energy">   -574.32312756 </i>
    <i name="e_wo_entrp">   -574.32312756 </i>
    <i name="e_0_energy">   -574.32312756 </i>
   </energy>
  </scstep>
  <structure>
   <crystal>
    <varray name="basis" >
     <v>       7.46167279       0.00000000       0.00000000 </v>
     <v>       0.00000000       7.46167279       0.00000000 </v>
     <v>       0.00000000       0.00000000       7.46167279 </v>
    </varray>
    <i name="volume">    415.44027952 </i>
    <varray name="rec_basis" >
     <v>       0.13401821       0.00000000       0.00000000 </v>
     <v>       0.00000000       0.13401821       0.00000000 </v>
     <v>       0.00000000       0.00000000       0.13401821 </v>
    </varray>
   </crystal>
   <varray name="positions" >
    <v>       0.12500000       0.37500000       0.12500000 </v>
    <v>       0.62500000       0.37500000       0.12500000 </v>
    <v>       0.12500000       0.87500000       0.12500000 </v>
    <v>       0.62500000       0.87500000       0.12500000 </v>
    <v>       0.12500000       0.37500000       0.62500000 </v>
    <v>       0.62500000       0.37500000       0.62500000 </v>
    <v>       0.12500000       0.87500000       0.62500000 </v>
    <v>       0.62500000       0.87500000       0.62500000 </v>
    <v>       0.00000000       0.00000000       0.25000000 </v>
    <v>       0.50000000       0.00000000       0.25000000 </v>
    <v>       0.00000000       0.50000000       0.25000000 </v>
    <v>       0.50000000       0.50000000       0.25000000 </v>
    <v>       0.00000000       0.00000000       0.75000000 </v>
    <v>       0.50000000       0.00000000       0.75000000 </v>
    <v>       0.00000000       0.50000000       0.75000000 </v>
    <v>       0.50000000       0.50000000       0.75000000 </v>
    <v>       0.12500000       0.12500000       0.37500000 </v>
    <v>       0.62500000       0.12500000       0.37500000 </v>
    <v>       0.12500000       0.62500000       0.37500000 </v>
    <v>       0.62500000       0.62500000       0.37500000 </v>
    <v>       0.12500000       0.12500000       0.87500000 </v>
    <v>       0.62500000       0.12500000       0.87500000 </v>
    <v>       0.12500000       0.62500000       0.87500000 </v>
    <v>       0.62500000       0.62500000       0.87500000 </v>
    <v>       0.00000000       0.25000000       0.00000000 </v>
    <v>       0.50000000       0.25000000       0.00000000 </v>
    <v>       0.00000000       0.75000000       0.00000000 </v>
    <v>       0.50000000       0.75000000       0.00000000 </v>
    <v>       0.00000000       0.25000000       0.50000000 </v>
    <v>       0.50000000       0.25000000       0.50000000 </v>
    <v>       0.00000000       0.75000000       0.50000000 </v>
    <v>       0.50000000       0.75000000       0.50000000 </v>
    <v>       0.37500000       0.37500000       0.37500000 </v>
    <v>       0.87500000       0.37500000       0.37500000 </v>
    <v>       0.37500000       0.87500000       0.37500000 </v>
    <v>       0.87500000       0.87500000       0.37500000 </v>
    <v>       0.37500000       0.37500000       0.87500000 </v>
    <v>       0.87500000       0.37500000       0.87500000 </v>
    <v>       0.37500000       0.87500000       0.87500000 </v>
    <v>       0.87500000       0.87500000       0.87500000 </v>
    <v>       0.25000000       0.00000000       0.00000000 </v>
    <v>       0.75000000       0.00000000       0.00000000 </v>
    <v>       0.25000000       0.50000000       0.00000000 </v>
    <v>       0.75000000       0.50000000       0.00000000 </v>
    <v>       0.25000000       0.00000000       0.50000000 </v>
    <v>       0.75000000       0.00000000       0.50000000 </v>
    <v>       0.25000000       0.50000000       0.50000000 </v>
    <v>       0.75000000       0.50000000       0.50000000 </v>
    <v>       0.37500000       0.12500000       0.12500000 </v>
    <v>       0.87500000       0.12500000       0.12500000 </v>
    <v>       0.37500000       0.62500000       0.12500000 </v>
    <v>       0.87500000       0.62500000       0.12500000 </v>
    <v>       0.37500000       0.12500000       0.62500000 </v>
    <v>       0.87500000       0.12500000       0.62500000 </v>
    <v>       0.37500000       0.62500000       0.62500000 </v>
    <v>       0.87500000       0.62500000       0.62500000 </v>
    <v>       0.25000000       0.25000000       0.25000000 </v>
    <v>       0.75000000       0.25000000       0.25000000 </v>
    <v>       0.25000000       0.75000000       0.25000000 </v>
    <v>       0.75000000       0.75000000       0.25000000 </v>
    <v>       0.25000000       0.25000000       0.75000000 </v>
    <v>       0.75000000       0.25000000       0.75000000 </v>
    <v>       0.25000000       0.75000000       0.75000000 </v>
    <v>       0.75000000       0.75000000       0.75000000 </v>
   </varray>
  </structure>
  <varray name="forces" >
   <v>       0.00000000       0.00000000      -0.00000000 </v>
   <v>       0.00000000      -0.00000000       0.00000000 </v>
   <v>       0.00000000      -0.00000000       0.00000000 </v>
   <v>       0.00000000       0.00000000       0.00000000 </v>
   <v>       0.00000000       0.00000000       0.00000000 </v>
   <v>       0.00000000       0.00000000       0.00000000 </v>
   <v>       0.00000000       0.00000000       0.00000000 </v>
   <v>       0.00000000       0.00000000       0.00000000 </v>
   <v>      -0.00000000      -0.00000000      -0.00000000 </v>
   <v>       0.00000000      -0.00000000      -0.00000000 </v>
   <v>      -0.00000000      -0.00000000      -0.00000000 </v>
   <v>      -0.00000000      -0.00000000      -0.00000000 </v>
   <v>      -0.00000000      -0.00000000      -0.00000000 </v>
   <v>      -0.00000000      -0.00000000      -0.00000000 </v>
   <v>      -0.00000000      -0.00000000      -0.00000000 </v>
   <v>      -0.00000000      -0.00000000       0.00000000 </v>
   <v>       0.00000000       0.00000000       0.00000000 </v>
   <v>      -0.00000000       0.00000000       0.00000000 </v>
   <v>      -0.00000000       0.00000000       0.00000000 </v>
   <v>       0.00000000      -0.00000000       0.00000000 </v>
   <v>       0.00000000      -0.00000000       0.00000000 </v>
   <v>       0.00000000       0.00000000       0.00000000 </v>
   <v>       0.00000000       0.00000000       0.00000000 </v>
   <v>       0.00000000      -0.00000000       0.00000000 </v>
   <v>      -0.00000000      -0.00000000      -0.00000000 </v>
   <v>      -0.00000000      -0.00000000      -0.00000000 </v>
   <v>      -0.00000000      -0.00000000      -0.00000000 </v>
   <v>      -0.00000000      -0.00000000      -0.00000000 </v>
   <v>      -0.00000000       0.00000000      -0.00000000 </v>
   <v>       0.00000000      -0.00000000      -0.00000000 </v>
   <v>      -0.00000000      -0.00000000      -0.00000000 </v>
   <v>      -0.00000000       0.00000000      -0.00000000 </v>
   <v>       0.00000000      -0.00000000       0.00000000 </v>
   <v>      -0.00000000       0.00000000      -0.00000000 </v>
   <v>      -0.00000000       0.00000000      -0.00000000 </v>
   <v>       0.00000000       0.00000000       0.00000000 </v>
   <v>       0.00000000       0.00000000       0.00000000 </v>
   <v>       0.00000000       0.00000000       0.00000000 </v>
   <v>       0.00000000       0.00000000       0.00000000 </v>
   <v>       0.00000000      -0.00000000       0.00000000 </v>
   <v>      -0.00000000      -0.00000000      -0.00000000 </v>
   <v>      -0.00000000      -0.00000000      -0.00000000 </v>
   <v>      -0.00000000      -0.00000000      -0.00000000 </v>
   <v>      -0.00000000      -0.00000000      -0.00000000 </v>
   <v>      -0.00000000      -0.00000000      -0.00000000 </v>
   <v>      -0.00000000       0.00000000      -0.00000000 </v>
   <v>      -0.00000000       0.00000000      -0.00000000 </v>
   <v>       0.00000000      -0.00000000      -0.00000000 </v>
   <v>       0.00000000      -0.00000000       0.00000000 </v>
   <v>       0.00000000       0.00000000       0.00000000 </v>
   <v>       0.00000000       0.00000000       0.00000000 </v>
   <v>       0.00000000      -0.00000000       0.00000000 </v>
   <v>       0.00000000       0.00000000       0.00000000 </v>
   <v>       0.00000000       0.00000000       0.00000000 </v>
   <v>       0.00000000       0.00000000       0.00000000 </v>
   <v>       0.00000000       0.00000000       0.00000000 </v>
   <v>      -0.00000000      -0.00000000      -0.00000000 </v>
   <v>      -0.00000000      -0.00000000      -0.00000000 </v>
   <v>       0.00000000      -0.00000000      -0.00000000 </v>
   <v>      -0.00000000      -0.00000000      -0.00000000 </v>
   <v>      -0.00000000      -0.00000000      -0.00000000 </v>
   <v>      -0.00000000      -0.00000000      -0.00000000 </v>
   <v>      -0.00000000      -0.00000000      -0.00000000 </v>
   <v>      -0.00000000      -0.00000000      -0.00000000 </v>
  </varray>
  <varray name="stress" >
   <v>    -479.39055647      -0.00000000       0.00000000 </v>
   <v>       0.00000000    -479.39055647      -0.00000000 </v>
   <v>       0.00000000       0.00000000    -479.39055647 </v>
  </varray>
  <energy>
   <i name="e_fr_energy">   -574.32312756 </i>
   <i name="e_wo_entrp">   -574.32312756 </i>
   <i name="e_0_energy">     -0.00000000 </i>
  </energy>
  <kpoints>
   <generation param="Gamma">
    <v type="int" name="divisions">       6        6        6 </v>
    <v name="usershift">      0.00000000       0.00000000       0.00000000 </v>
    <v name="genvec1">      0.16666667       0.00000000       0.00000000 </v>
    <v name="genvec2">      0.00000000       0.16666667       0.00000000 </v>
    <v name="genvec3">      0.00000000       0.00000000       0.16666667 </v>
    <v name="shift">      0.00000000       0.00000000       0.00000000 </v>
   </generation>
   <varray name="kpointlist" >
    <v>       0.00000000       0.00000000       0.00000000 </v>
    <v>       0.16666667       0.00000000       0.00000000 </v>
    <v>       0.33333333       0.00000000       0.00000000 </v>
    <v>       0.50000000       0.00000000       0.00000000 </v>
    <v>       0.00000000       0.16666667       0.00000000 </v>
    <v>       0.16666667       0.16666667       0.00000000 </v>
    <v>       0.33333333       0.16666667       0.00000000 </v>
    <v>       0.50000000       0.16666667       0.00000000 </v>
    <v>       0.00000000       0.33333333       0.00000000 </v>
    <v>       0.16666667       0.33333333       0.00000000 </v>
    <v>       0.33333333       0.33333333       0.00000000 </v>
    <v>       0.50000000       0.33333333       0.00000000 </v>
    <v>       0.00000000       0.50000000       0.00000000 </v>
    <v>       0.16666667       0.50000000       0.00000000 </v>
    <v>       0.33333333       0.50000000       0.00000000 </v>
    <v>       0.50000000       0.50000000       0.00000000 </v>
    <v>       0.00000000       0.16666667       0.16666667 </v>
    <v>       0.16666667       0.16666667       0.16666667 </v>
    <v>       0.33333333       0.16666667       0.16666667 </v>
    <v>       0.50000000       0.16666667       0.16666667 </v>
    <v>       0.00000000       0.33333333       0.16666667 </v>
    <v>       0.16666667       0.33333333       0.16666667 </v>
    <v>       0.33333333       0.33333333       0.16666667 </v>
    <v>       0.50000000       0.33333333       0.16666667 </v>
    <v>       0.00000000       0.50000000       0.16666667 </v>
    <v>       0.16666667       0.50000000       0.16666667 </v>
    <v>       0.33333333       0.50000000       0.16666667 </v>
    <v>       0.50000000       0.50000000       0.16666667 </v>
    <v>       0.00000000      -0.33333333       0.16666667 </v>
    <v>       0.16666667      -0.33333333       0.16666667 </v>
    <v>       0.33333333      -0.33333333       0.16666667 </v>
    <v>       0.50000000      -0.33333333       0.16666667 </v>
    <v>       0.00000000      -0.16666667       0.16666667 </v>
    <v>       0.16666667      -0.16666667       0.16666667 </v>
    <v>       0.33333333      -0.16666667       0.16666667 </v>
    <v>       0.50000000      -0.16666667       0.16666667 </v>
    <v>       0.00000000       0.33333333       0.33333333 </v>
    <v>       0.16666667       0.33333333       0.33333333 </v>
    <v>       0.33333333       0.33333333       0.33333333 </v>
    <v>       0.50000000       0.33333333       0.33333333 </v>
    <v>       0.00000000       0.50000000       0.33333333 </v>
    <v>       0.16666667       0.50000000       0.33333333 </v>
    <v>       0.33333333       0.50000000       0.33333333 </v>
    <v>       0.50000000       0.50000000       0.33333333 </v>
    <v>       0.00000000      -0.33333333       0.33333333 </v>
    <v>       0.16666667      -0.33333333       0.33333333 </v>
    <v>       0.33333333      -0.33333333       0.33333333 </v>
    <v>       0.50000000      -0.33333333       0.33333333 </v>
    <v>       0.00000000       0.50000000       0.50000000 </v>
    <v>       0.16666667       0.50000000       0.50000000 </v>
    <v>       0.33333333       0.50000000       0.50000000 </v>
    <v>       0.50000000       0.50000000       0.50000000 </v>
   </varray>
   <varray name="weights" >
    <v>       0.00462963 </v>
    <v>       0.00925926 </v>
    <v>       0.00925926 </v>
    <v>       0.00462963 </v>
    <v>       0.01851852 </v>
    <v>       0.03703704 </v>
    <v>       0.03703704 </v>
    <v>       0.01851852 </v>
    <v>       0.01851852 </v>
    <v>       0.03703704 </v>
    <v>       0.03703704 </v>
    <v>       0.01851852 </v>
    <v>       0.00925926 </v>
    <v>       0.01851852 </v>
    <v>       0.01851852 </v>
    <v>       0.00925926 </v>
    <v>       0.00925926 </v>
    <v>       0.01851852 </v>
    <v>       0.01851852 </v>
    <v>       0.00925926 </v>
    <v>       0.01851852 </v>
    <v>       0.03703704 </v>
    <v>       0.03703704 </v>
    <v>       0.01851852 </v>
    <v>       0.01851852 </v>
    <v>       0.03703704 </v>
    <v>       0.03703704 </v>
    <v>       0.01851852 </v>
    <v>       0.01851852 </v>
    <v>       0.03703704 </v>
    <v>       0.03703704 </v>
    <v>       0.01851852 </v>
    <v>       0.00925926 </v>
    <v>       0.01851852 </v>
    <v>       0.01851852 </v>
    <v>       0.00925926 </v>
    <v>       0.00925926 </v>
    <v>       0.01851852 </v>
    <v>       0.01851852 </v>
    <v>       0.00925926 </v>
    <v>       0.01851852 </v>
    <v>       0.03703704 </v>
    <v>       0.03703704 </v>
    <v>       0.01851852 </v>
    <v>       0.00925926 </v>
    <v>       0.01851852 </v>
    <v>       0.01851852 </v>
    <v>       0.00925926 </v>
    <v>       0.00462963 </v>
    <v>       0.00925926 </v>
    <v>       0.00925926 </v>
    <v>       0.00462963 </v>
   </varray>
  </kpoints>
  <scstep>
   <time name="total">   48.03   48.03</time>
   <energy>
    <i name="e_fr_energy">   -342.05306497 </i>
    <i name="e_wo_entrp">   -342.05306497 </i>
    <i name="e_0_energy">   -342.05306497 </i>
   </energy>
  </scstep>
  <scstep>
   <time name="total">   37.30   37.30</time>
   <energy>
    <i name="e_fr_energy">   -297.97624533 </i>
    <i name="e_wo_entrp">   -297.97624533 </i>
    <i name="e_0_energy">   -297.97624533 </i>
   </energy>
  </scstep>
  <scstep>
   <time name="total">   37.19   37.19</time>
   <energy>
    <i name="e_fr_energy">   -297.91759387 </i>
    <i name="e_wo_entrp">   -297.91759387 </i>
    <i name="e_0_energy">   -297.91759387 </i>
   </energy>
  </scstep>
  <scstep>
   <time name="total">   38.86   38.86</time>
   <energy>
    <i name="e_fr_energy">   -298.36692202 </i>
    <i name="e_wo_entrp">   -298.36692202 </i>
    <i name="e_0_energy">   -298.36692202 </i>
   </energy>
  </scstep>
  <scstep>
   <time name="total">   38.51   38.52</time>
   <energy>
    <i name="e_fr_energy">   -298.50033541 </i>
    <i name="e_wo_entrp">   -298.50033541 </i>
    <i name="e_0_energy">   -298.50033541 </i>
   </energy>
  </scstep>
  <scstep>
   <time name="total">   39.79   39.79</time>
   <energy>
    <i name="e_fr_energy">   -298.45267406 </i>
    <i name="e_wo_entrp">   -298.45267406 </i>
    <i name="e_0_energy">   -298.45267406 </i>
   </energy>
  </scstep>
  <scstep>
   <time name="total">   38.28   38.32</time>
   <energy>
    <i name="e_fr_energy">   -298.43170003 </i>
    <i name="e_wo_entrp">   -298.43170003 </i>
    <i name="e_0_energy">   -298.43170003 </i>
   </energy>
  </scstep>
  <scstep>
   <time name="total">   41.00   41.00</time>
   <energy>
    <i name="e_fr_energy">   -298.43074330 </i>
    <i name="e_wo_entrp">   -298.43074330 </i>
    <i name="e_0_energy">   -298.43074330 </i>
   </energy>
  </scstep>
  <scstep>
   <time name="total">   40.48   40.48</time>
   <energy>
    <i name="e_fr_energy">   -298.43020241 </i>
    <i name="e_wo_entrp">   -298.43020241 </i>
    <i name="e_0_energy">   -298.43020241 </i>
   </energy>
  </scstep>
  <scstep>
   <time name="total">   41.17   41.18</time>
   <energy>
    <i name="e_fr_energy">   -298.43052444 </i>
    <i name="e_wo_entrp">   -298.43052444 </i>
    <i name="e_0_energy">   -298.43052444 </i>
   </energy>
  </scstep>
  <scstep>
   <time name="total">   41.46   41.51</time>
   <energy>
    <i name="e_fr_energy">   -298.43051293 </i>
    <i name="e_wo_entrp">   -298.43051293 </i>
    <i name="e_0_energy">   -298.43051293 </i>
   </energy>
  </scstep>
  <kpoints>
   <generation param="Gamma">
    <v type="int" name="divisions">       6        6        6 </v>
    <v name="usershift">      0.00000000       0.00000000       0.00000000 </v>
    <v name="genvec1">      0.16666667       0.00000000       0.00000000 </v>
    <v name="genvec2">      0.00000000       0.16666667       0.00000000 </v>
    <v name="genvec3">      0.00000000       0.00000000       0.16666667 </v>
    <v name="shift">      0.00000000       0.00000000       0.00000000 </v>
   </generation>
   <varray name="kpointlist" >
    <v>       0.00000000       0.00000000       0.00000000 </v>
    <v>       0.16666667       0.00000000       0.00000000 </v>
    <v>       0.33333333       0.00000000       0.00000000 </v>
    <v>       0.50000000       0.00000000       0.00000000 </v>
    <v>       0.16666667       0.16666667       0.00000000 </v>
    <v>       0.33333333       0.16666667       0.00000000 </v>
    <v>       0.50000000       0.16666667       0.00000000 </v>
    <v>       0.33333333       0.33333333       0.00000000 </v>
    <v>       0.50000000       0.33333333       0.00000000 </v>
    <v>       0.50000000       0.50000000       0.00000000 </v>
    <v>       0.16666667       0.16666667       0.16666667 </v>
    <v>       0.33333333       0.16666667       0.16666667 </v>
    <v>       0.50000000       0.16666667       0.16666667 </v>
    <v>       0.33333333       0.33333333       0.16666667 </v>
    <v>       0.50000000       0.33333333       0.16666667 </v>
    <v>       0.50000000       0.50000000       0.16666667 </v>
    <v>       0.33333333       0.33333333       0.33333333 </v>
    <v>       0.50000000       0.33333333       0.33333333 </v>
    <v>       0.50000000       0.50000000       0.33333333 </v>
    <v>       0.50000000       0.50000000       0.50000000 </v>
   </varray>
   <varray name="weights" >
    <v>       0.00462963 </v>
    <v>       0.02777778 </v>
    <v>       0.02777778 </v>
    <v>       0.01388889 </v>
    <v>       0.05555556 </v>
    <v>       0.11111111 </v>
    <v>       0.05555556 </v>
    <v>       0.05555556 </v>
    <v>       0.05555556 </v>
    <v>       0.01388889 </v>
    <v>       0.03703704 </v>
    <v>       0.11111111 </v>
    <v>       0.05555556 </v>
    <v>       0.11111111 </v>
    <v>       0.11111111 </v>
    <v>       0.02777778 </v>
    <v>       0.03703704 </v>
    <v>       0.05555556 </v>
    <v>       0.02777778 </v>
    <v>       0.00462963 </v>
   </varray>
  </kpoints>
  <dynmat>
   <varray name="hessian" >
    <v>      -2.79046853      -0.00000000      -0.00000000       0.01052859       0.00000000       0.00000000       0.00737792       0.00000000       0.00000000       0.00666365      -0.00000000      -0.00000000       0.00737792       0.00000000      -0.00000000       0.00666365      -0.00000000      -0.00000000      -0.04525437      -0.00000000       0.00000000       0.00367398       0.00000000       0.00000000      -0.01170213      -0.00700862      -0.00017969       0.00518401      -0.00614736      -0.01471536       0.58062104      -0.02296538      -0.02296538      -0.00484265      -0.00700862      -0.00700862       0.02730110      -0.01471536      -0.01471536      -0.00251773      -0.00257319      -0.00257319      -0.01170213      -0.00017969      -0.00700862       0.00518401      -0.01471536      -0.00614736      -0.10216026       0.04897739      -0.04897739      -0.00336315       0.00249954      -0.00249954      -0.10216026       0.04897739       0.04897739      -0.00336315       0.00249954       0.00249954      -0.10216026      -0.04897739      -0.04897739      -0.00336315      -0.00249954      -0.00249954      -0.10216026      -0.04897739       0.04897739      -0.00336315      -0.00249954       0.00249954       0.58062104       0.02296538       0.02296538      -0.00484265       0.00700862       0.00700862      -0.01170213       0.00700862       0.00017969       0.00518401       0.00614736       0.01471536      -0.01170213       0.00017969       0.00700862       0.00518401       0.01471536       0.00614736       0.02730110       0.01471536       0.01471536      -0.00251773       0.00257319       0.00257319       0.10207882      -0.04897739       0.10524287       0.10207882      -0.04897739      -0.10524287       0.00609977      -0.00249954      -0.00667895       0.00609977      -0.00249954       0.00667895       0.10207882       0.04897739      -0.10524287       0.10207882       0.04897739       0.10524287       0.00609977       0.00249954       0.00667895       0.00609977       0.00249954      -0.00667895      -0.01170213       0.00700862      -0.00017969       0.00518401       0.00614736      -0.01471536       0.58062104       0.02296538      -0.02296538      -0.00484265       0.00700862      -0.00700862       0.02730110       0.01471536      -0.01471536      -0.00251773       0.00257319      -0.00257319      -0.01170213       0.00017969      -0.00700862       0.00518401       0.01471536      -0.00614736       0.10207882      -0.10524287       0.04897739       0.10207882       0.10524287       0.04897739       0.10207882       0.10524287      -0.04897739       0.10207882      -0.10524287      -0.04897739       0.00609977       0.00667895       0.00249954       0.00609977      -0.00667895       0.00249954       0.00609977      -0.00667895      -0.00249954       0.00609977       0.00667895      -0.00249954       0.58062104      -0.02296538       0.02296538      -0.00484265      -0.00700862       0.00700862      -0.01170213      -0.00700862       0.00017969       0.00518401      -0.00614736       0.01471536      -0.01170213      -0.00017969       0.00700862       0.00518401      -0.01471536       0.00614736       0.02730110      -0.01471536       0.01471536      -0.00251773      -0.00257319       0.00257319 </v>
    <v>      -0.00000000      -2.79046853      -0.00000000       0.00000000       0.00737792       0.00000000       0.00000000       0.01052859       0.00000000      -0.00000000       0.00666365      -0.00000000       0.00000000       0.00737792      -0.00000000      -0.00000000      -0.04525437       0.00000000      -0.00000000       0.00666365      -0.00000000       0.00000000       0.00367398       0.00000000      -0.00700862      -0.00484265       0.00700862      -0.00614736       0.00518401       0.01471536      -0.02296538       0.58062104       0.02296538      -0.00700862      -0.01170213       0.00017969      -0.01471536       0.00518401       0.00614736      -0.00257319      -0.00251773       0.00257319      -0.00017969      -0.01170213       0.00700862      -0.01471536       0.02730110       0.01471536      -0.04897739       0.10207882      -0.10524287      -0.00249954       0.00609977       0.00667895      -0.04897739       0.10207882       0.10524287      -0.00249954       0.00609977      -0.00667895       0.04897739       0.10207882       0.10524287       0.00249954       0.00609977      -0.00667895       0.04897739       0.10207882      -0.10524287       0.00249954       0.00609977       0.00667895       0.02296538       0.58062104       0.02296538       0.00700862      -0.01170213       0.00017969       0.00700862      -0.00484265       0.00700862       0.00614736       0.00518401       0.01471536       0.00017969      -0.01170213       0.00700862       0.01471536       0.02730110       0.01471536       0.01471536       0.00518401       0.00614736       0.00257319      -0.00251773       0.00257319       0.04897739      -0.10216026       0.04897739       0.04897739      -0.10216026      -0.04897739       0.00249954      -0.00336315       0.00249954       0.00249954      -0.00336315      -0.00249954      -0.04897739      -0.10216026       0.04897739      -0.04897739      -0.10216026      -0.04897739      -0.00249954      -0.00336315       0.00249954      -0.00249954      -0.00336315      -0.00249954       0.00700862      -0.00484265      -0.00700862       0.00614736       0.00518401      -0.01471536       0.02296538       0.58062104      -0.02296538       0.00700862      -0.01170213      -0.00017969       0.01471536       0.00518401      -0.00614736       0.00257319      -0.00251773      -0.00257319       0.00017969      -0.01170213      -0.00700862       0.01471536       0.02730110      -0.01471536      -0.10524287       0.10207882      -0.04897739       0.10524287       0.10207882       0.04897739       0.10524287       0.10207882      -0.04897739      -0.10524287       0.10207882       0.04897739       0.00667895       0.00609977      -0.00249954      -0.00667895       0.00609977       0.00249954      -0.00667895       0.00609977      -0.00249954       0.00667895       0.00609977       0.00249954      -0.02296538       0.58062104      -0.02296538      -0.00700862      -0.01170213      -0.00017969      -0.00700862      -0.00484265      -0.00700862      -0.00614736       0.00518401      -0.01471536      -0.00017969      -0.01170213      -0.00700862      -0.01471536       0.02730110      -0.01471536      -0.01471536       0.00518401      -0.00614736      -0.00257319      -0.00251773      -0.00257319 </v>
    <v>      -0.00000000      -0.00000000      -2.79046853       0.00000000       0.00000000       0.00737792       0.00000000       0.00000000       0.00737792      -0.00000000      -0.00000000      -0.04525437      -0.00000000      -0.00000000       0.01052859      -0.00000000       0.00000000       0.00666365       0.00000000      -0.00000000       0.00666365       0.00000000       0.00000000       0.00367398      -0.00017969       0.00700862      -0.01170213      -0.01471536       0.01471536       0.02730110      -0.02296538       0.02296538       0.58062104      -0.00700862       0.00017969      -0.01170213      -0.01471536       0.00614736       0.00518401      -0.00257319       0.00257319      -0.00251773      -0.00700862       0.00700862      -0.00484265      -0.00614736       0.01471536       0.00518401       0.04897739      -0.10524287       0.10207882       0.00249954       0.00667895       0.00609977      -0.04897739       0.10524287       0.10207882      -0.00249954      -0.00667895       0.00609977       0.04897739       0.10524287       0.10207882       0.00249954      -0.00667895       0.00609977      -0.04897739      -0.10524287       0.10207882      -0.00249954       0.00667895       0.00609977       0.02296538       0.02296538       0.58062104       0.00700862       0.00017969      -0.01170213       0.00017969       0.00700862      -0.01170213       0.01471536       0.01471536       0.02730110       0.00700862       0.00700862      -0.00484265       0.00614736       0.01471536       0.00518401       0.01471536       0.00614736       0.00518401       0.00257319       0.00257319      -0.00251773       0.10524287      -0.04897739       0.10207882      -0.10524287       0.04897739       0.10207882      -0.00667895      -0.00249954       0.00609977       0.00667895       0.00249954       0.00609977      -0.10524287      -0.04897739       0.10207882       0.10524287       0.04897739       0.10207882       0.00667895      -0.00249954       0.00609977      -0.00667895       0.00249954       0.00609977      -0.00017969      -0.00700862      -0.01170213      -0.01471536      -0.01471536       0.02730110      -0.02296538      -0.02296538       0.58062104      -0.00700862      -0.00017969      -0.01170213      -0.01471536      -0.00614736       0.00518401      -0.00257319      -0.00257319      -0.00251773      -0.00700862      -0.00700862      -0.00484265      -0.00614736      -0.01471536       0.00518401      -0.04897739       0.04897739      -0.10216026      -0.04897739      -0.04897739      -0.10216026       0.04897739       0.04897739      -0.10216026       0.04897739      -0.04897739      -0.10216026      -0.00249954       0.00249954      -0.00336315      -0.00249954      -0.00249954      -0.00336315       0.00249954       0.00249954      -0.00336315       0.00249954      -0.00249954      -0.00336315       0.02296538      -0.02296538       0.58062104       0.00700862      -0.00017969      -0.01170213       0.00017969      -0.00700862      -0.01170213       0.01471536      -0.01471536       0.02730110       0.00700862      -0.00700862      -0.00484265       0.00614736      -0.01471536       0.00518401       0.01471536      -0.00614736       0.00518401       0.00257319      -0.00257319      -0.00251773 </v>
    <v>       0.01052859       0.00000000       0.00000000      -2.79046853      -0.00000000      -0.00000000       0.00666365      -0.00000000      -0.00000000       0.00737792       0.00000000       0.00000000       0.00666365      -0.00000000      -0.00000000       0.00737792       0.00000000      -0.00000000       0.00367398       0.00000000       0.00000000      -0.04525437      -0.00000000       0.00000000       0.00518401      -0.00614736      -0.01471536      -0.01170213      -0.00700862      -0.00017969      -0.00484265      -0.00700862      -0.00700862       0.58062104      -0.02296538      -0.02296538      -0.00251773      -0.00257319      -0.00257319       0.02730110      -0.01471536      -0.01471536       0.00518401      -0.01471536      -0.00614736      -0.01170213      -0.00017969      -0.00700862      -0.00336315       0.00249954      -0.00249954      -0.10216026       0.04897739      -0.04897739      -0.00336315       0.00249954       0.00249954      -0.10216026       0.04897739       0.04897739      -0.00336315      -0.00249954      -0.00249954      -0.10216026      -0.04897739      -0.04897739      -0.00336315      -0.00249954       0.00249954      -0.10216026      -0.04897739       0.04897739      -0.00484265       0.00700862       0.00700862       0.58062104       0.02296538       0.02296538       0.00518401       0.00614736       0.01471536      -0.01170213       0.00700862       0.00017969       0.00518401       0.01471536       0.00614736      -0.01170213       0.00017969       0.00700862      -0.00251773       0.00257319       0.00257319       0.02730110       0.01471536       0.01471536       0.10207882      -0.04897739      -0.10524287       0.10207882      -0.04897739       0.10524287       0.00609977      -0.00249954       0.00667895       0.00609977      -0.00249954      -0.00667895       0.10207882       0.04897739       0.10524287       0.10207882       0.04897739      -0.10524287       0.00609977       0.00249954      -0.00667895       0.00609977       0.00249954       0.00667895       0.00518401       0.00614736      -0.01471536      -0.01170213       0.00700862      -0.00017969      -0.00484265       0.00700862      -0.00700862       0.58062104       0.02296538      -0.02296538      -0.00251773       0.00257319      -0.00257319       0.02730110       0.01471536      -0.01471536       0.00518401       0.01471536      -0.00614736      -0.01170213       0.00017969      -0.00700862       0.10207882       0.10524287       0.04897739       0.10207882      -0.10524287       0.04897739       0.10207882      -0.10524287      -0.04897739       0.10207882       0.10524287      -0.04897739       0.00609977      -0.00667895       0.00249954       0.00609977       0.00667895       0.00249954       0.00609977       0.00667895      -0.00249954       0.00609977      -0.00667895      -0.00249954      -0.00484265      -0.00700862       0.00700862       0.58062104      -0.02296538       0.02296538       0.00518401      -0.00614736       0.01471536      -0.01170213      -0.00700862       0.00017969       0.00518401      -0.01471536       0.00614736      -0.01170213      -0.00017969       0.00700862      -0.00251773      -0.00257319       0.00257319       0.02730110      -0.01471536       0.01471536 </v>
    <v>       0.00000000       0.00737792       0.00000000      -0.00000000      -2.79046853      -0.00000000      -0.00000000       0.00666365      -0.00000000       0.00000000       0.01052859       0.00000000      -0.00000000      -0.04525437       0.00000000       0.00000000       0.00737792      -0.00000000       0.00000000       0.00367398       0.00000000      -0.00000000       0.00666365      -0.00000000      -0.00614736       0.00518401       0.01471536      -0.00700862      -0.00484265       0.00700862      -0.00700862      -0.01170213       0.00017969      -0.02296538       0.58062104       0.02296538      -0.00257319      -0.00251773       0.00257319      -0.01471536       0.00518401       0.00614736      -0.01471536       0.02730110       0.01471536      -0.00017969      -0.01170213       0.00700862      -0.00249954       0.00609977       0.00667895      -0.04897739       0.10207882      -0.10524287      -0.00249954       0.00609977      -0.00667895      -0.04897739       0.10207882       0.10524287       0.00249954       0.00609977      -0.00667895       0.04897739       0.10207882       0.10524287       0.00249954       0.00609977       0.00667895       0.04897739       0.10207882      -0.10524287       0.00700862      -0.01170213       0.00017969       0.02296538       0.58062104       0.02296538       0.00614736       0.00518401       0.01471536       0.00700862      -0.00484265       0.00700862       0.01471536       0.02730110       0.01471536       0.00017969      -0.01170213       0.00700862       0.00257319      -0.00251773       0.00257319       0.01471536       0.00518401       0.00614736       0.04897739      -0.10216026      -0.04897739       0.04897739      -0.10216026       0.04897739       0.00249954      -0.00336315      -0.00249954       0.00249954      -0.00336315       0.00249954      -0.04897739      -0.10216026      -0.04897739      -0.04897739      -0.10216026       0.04897739      -0.00249954      -0.00336315      -0.00249954      -0.00249954      -0.00336315       0.00249954       0.00614736       0.00518401      -0.01471536       0.00700862      -0.00484265      -0.00700862       0.00700862      -0.01170213      -0.00017969       0.02296538       0.58062104      -0.02296538       0.00257319      -0.00251773      -0.00257319       0.01471536       0.00518401      -0.00614736       0.01471536       0.02730110      -0.01471536       0.00017969      -0.01170213      -0.00700862       0.10524287       0.10207882       0.04897739      -0.10524287       0.10207882      -0.04897739      -0.10524287       0.10207882       0.04897739       0.10524287       0.10207882      -0.04897739      -0.00667895       0.00609977       0.00249954       0.00667895       0.00609977      -0.00249954       0.00667895       0.00609977       0.00249954      -0.00667895       0.00609977      -0.00249954      -0.00700862      -0.01170213      -0.00017969      -0.02296538       0.58062104      -0.02296538      -0.00614736       0.00518401      -0.01471536      -0.00700862      -0.00484265      -0.00700862      -0.01471536       0.02730110      -0.01471536      -0.00017969      -0.01170213      -0.00700862      -0.00257319      -0.00251773      -0.00257319      -0.01471536       0.00518401      -0.00614736 </v>
    <v>       0.00000000       0.00000000       0.00737792      -0.00000000      -0.00000000      -2.79046853      -0.00000000      -0.00000000      -0.04525437       0.00000000       0.00000000       0.00737792      -0.00000000       0.00000000       0.00666365      -0.00000000      -0.00000000       0.01052859       0.00000000       0.00000000       0.00367398       0.00000000      -0.00000000       0.00666365      -0.01471536       0.01471536       0.02730110      -0.00017969       0.00700862      -0.01170213      -0.00700862       0.00017969      -0.01170213      -0.02296538       0.02296538       0.58062104      -0.00257319       0.00257319      -0.00251773      -0.01471536       0.00614736       0.00518401      -0.00614736       0.01471536       0.00518401      -0.00700862       0.00700862      -0.00484265       0.00249954       0.00667895       0.00609977       0.04897739      -0.10524287       0.10207882      -0.00249954      -0.00667895       0.00609977      -0.04897739       0.10524287       0.10207882       0.00249954      -0.00667895       0.00609977       0.04897739       0.10524287       0.10207882      -0.00249954       0.00667895       0.00609977      -0.04897739      -0.10524287       0.10207882       0.00700862       0.00017969      -0.01170213       0.02296538       0.02296538       0.58062104       0.01471536       0.01471536       0.02730110       0.00017969       0.00700862      -0.01170213       0.00614736       0.01471536       0.00518401       0.00700862       0.00700862      -0.00484265       0.00257319       0.00257319      -0.00251773       0.01471536       0.00614736       0.00518401      -0.10524287       0.04897739       0.10207882       0.10524287      -0.04897739       0.10207882       0.00667895       0.00249954       0.00609977      -0.00667895      -0.00249954       0.00609977       0.10524287       0.04897739       0.10207882      -0.10524287      -0.04897739       0.10207882      -0.00667895       0.00249954       0.00609977       0.00667895      -0.00249954       0.00609977      -0.01471536      -0.01471536       0.02730110      -0.00017969      -0.00700862      -0.01170213      -0.00700862      -0.00017969      -0.01170213      -0.02296538      -0.02296538       0.58062104      -0.00257319      -0.00257319      -0.00251773      -0.01471536      -0.00614736       0.00518401      -0.00614736      -0.01471536       0.00518401      -0.00700862      -0.00700862      -0.00484265      -0.04897739      -0.04897739      -0.10216026      -0.04897739       0.04897739      -0.10216026       0.04897739      -0.04897739      -0.10216026       0.04897739       0.04897739      -0.10216026      -0.00249954      -0.00249954      -0.00336315      -0.00249954       0.00249954      -0.00336315       0.00249954      -0.00249954      -0.00336315       0.00249954       0.00249954      -0.00336315       0.00700862      -0.00017969      -0.01170213       0.02296538      -0.02296538       0.58062104       0.01471536      -0.01471536       0.02730110       0.00017969      -0.00700862      -0.01170213       0.00614736      -0.01471536       0.00518401       0.00700862      -0.00700862      -0.00484265       0.00257319      -0.00257319      -0.00251773       0.01471536      -0.00614736       0.00518401 </v>
    <v>       0.00737792       0.00000000       0.00000000       0.00666365      -0.00000000      -0.00000000      -2.79046853      -0.00000000      -0.00000000       0.01052859       0.00000000       0.00000000      -0.04525437      -0.00000000       0.00000000       0.00367398       0.00000000       0.00000000       0.00737792       0.00000000      -0.00000000       0.00666365      -0.00000000      -0.00000000       0.58062104      -0.02296538      -0.02296538      -0.00484265      -0.00700862      -0.00700862      -0.01170213      -0.00700862      -0.00017969       0.00518401      -0.00614736      -0.01471536      -0.01170213      -0.00017969      -0.00700862       0.00518401      -0.01471536      -0.00614736       0.02730110      -0.01471536      -0.01471536      -0.00251773      -0.00257319      -0.00257319      -0.10216026       0.04897739       0.04897739      -0.00336315       0.00249954       0.00249954      -0.10216026       0.04897739      -0.04897739      -0.00336315       0.00249954      -0.00249954      -0.10216026      -0.04897739       0.04897739      -0.00336315      -0.00249954       0.00249954      -0.10216026      -0.04897739      -0.04897739      -0.00336315      -0.00249954      -0.00249954      -0.01170213       0.00700862       0.00017969       0.00518401       0.00614736       0.01471536       0.58062104       0.02296538       0.02296538      -0.00484265       0.00700862       0.00700862       0.02730110       0.01471536       0.01471536      -0.00251773       0.00257319       0.00257319      -0.01170213       0.00017969       0.00700862       0.00518401       0.01471536       0.00614736       0.00609977      -0.00249954      -0.00667895       0.00609977      -0.00249954       0.00667895       0.10207882      -0.04897739       0.10524287       0.10207882      -0.04897739      -0.10524287       0.00609977       0.00249954       0.00667895       0.00609977       0.00249954      -0.00667895       0.10207882       0.04897739      -0.10524287       0.10207882       0.04897739       0.10524287       0.58062104       0.02296538      -0.02296538      -0.00484265       0.00700862      -0.00700862      -0.01170213       0.00700862      -0.00017969       0.00518401       0.00614736      -0.01471536      -0.01170213       0.00017969      -0.00700862       0.00518401       0.01471536      -0.00614736       0.02730110       0.01471536      -0.01471536      -0.00251773       0.00257319      -0.00257319       0.10207882       0.10524287      -0.04897739       0.10207882      -0.10524287      -0.04897739       0.10207882      -0.10524287       0.04897739       0.10207882       0.10524287       0.04897739       0.00609977      -0.00667895      -0.00249954       0.00609977       0.00667895      -0.00249954       0.00609977       0.00667895       0.00249954       0.00609977      -0.00667895       0.00249954      -0.01170213      -0.00700862       0.00017969       0.00518401      -0.00614736       0.01471536       0.58062104      -0.02296538       0.02296538      -0.00484265      -0.00700862       0.00700862       0.02730110      -0.01471536       0.01471536      -0.00251773      -0.00257319       0.00257319      -0.01170213      -0.00017969       0.00700862       0.00518401      -0.01471536       0.00614736 </v>
    <v>       0.00000000       0.01052859       0.00000000      -0.00000000       0.00666365      -0.00000000      -0.00000000      -2.79046853      -0.00000000       0.00000000       0.00737792       0.00000000      -0.00000000       0.00666365      -0.00000000       0.00000000       0.00367398       0.00000000       0.00000000       0.00737792      -0.00000000      -0.00000000      -0.04525437       0.00000000      -0.02296538       0.58062104       0.02296538      -0.00700862      -0.01170213       0.00017969      -0.00700862      -0.00484265       0.00700862      -0.00614736       0.00518401       0.01471536      -0.00017969      -0.01170213       0.00700862      -0.01471536       0.02730110       0.01471536      -0.01471536       0.00518401       0.00614736      -0.00257319      -0.00251773       0.00257319      -0.04897739       0.10207882       0.10524287      -0.00249954       0.00609977      -0.00667895      -0.04897739       0.10207882      -0.10524287      -0.00249954       0.00609977       0.00667895       0.04897739       0.10207882      -0.10524287       0.00249954       0.00609977       0.00667895       0.04897739       0.10207882       0.10524287       0.00249954       0.00609977      -0.00667895       0.00700862      -0.00484265       0.00700862       0.00614736       0.00518401       0.01471536       0.02296538       0.58062104       0.02296538       0.00700862      -0.01170213       0.00017969       0.01471536       0.00518401       0.00614736       0.00257319      -0.00251773       0.00257319       0.00017969      -0.01170213       0.00700862       0.01471536       0.02730110       0.01471536       0.00249954      -0.00336315       0.00249954       0.00249954      -0.00336315      -0.00249954       0.04897739      -0.10216026       0.04897739       0.04897739      -0.10216026      -0.04897739      -0.00249954      -0.00336315       0.00249954      -0.00249954      -0.00336315      -0.00249954      -0.04897739      -0.10216026       0.04897739      -0.04897739      -0.10216026      -0.04897739       0.02296538       0.58062104      -0.02296538       0.00700862      -0.01170213      -0.00017969       0.00700862      -0.00484265      -0.00700862       0.00614736       0.00518401      -0.01471536       0.00017969      -0.01170213      -0.00700862       0.01471536       0.02730110      -0.01471536       0.01471536       0.00518401      -0.00614736       0.00257319      -0.00251773      -0.00257319       0.10524287       0.10207882      -0.04897739      -0.10524287       0.10207882       0.04897739      -0.10524287       0.10207882      -0.04897739       0.10524287       0.10207882       0.04897739      -0.00667895       0.00609977      -0.00249954       0.00667895       0.00609977       0.00249954       0.00667895       0.00609977      -0.00249954      -0.00667895       0.00609977       0.00249954      -0.00700862      -0.00484265      -0.00700862      -0.00614736       0.00518401      -0.01471536      -0.02296538       0.58062104      -0.02296538      -0.00700862      -0.01170213      -0.00017969      -0.01471536       0.00518401      -0.00614736      -0.00257319      -0.00251773      -0.00257319      -0.00017969      -0.01170213      -0.00700862      -0.01471536       0.02730110      -0.01471536 </v>
    <v>       0.00000000       0.00000000       0.00737792      -0.00000000      -0.00000000      -0.04525437      -0.00000000      -0.00000000      -2.79046853       0.00000000       0.00000000       0.00737792       0.00000000      -0.00000000       0.00666365       0.00000000       0.00000000       0.00367398      -0.00000000      -0.00000000       0.01052859      -0.00000000       0.00000000       0.00666365      -0.02296538       0.02296538       0.58062104      -0.00700862       0.00017969      -0.01170213      -0.00017969       0.00700862      -0.01170213      -0.01471536       0.01471536       0.02730110      -0.00700862       0.00700862      -0.00484265      -0.00614736       0.01471536       0.00518401      -0.01471536       0.00614736       0.00518401      -0.00257319       0.00257319      -0.00251773      -0.04897739       0.10524287       0.10207882      -0.00249954      -0.00667895       0.00609977       0.04897739      -0.10524287       0.10207882       0.00249954       0.00667895       0.00609977      -0.04897739      -0.10524287       0.10207882      -0.00249954       0.00667895       0.00609977       0.04897739       0.10524287       0.10207882       0.00249954      -0.00667895       0.00609977       0.00017969       0.00700862      -0.01170213       0.01471536       0.01471536       0.02730110       0.02296538       0.02296538       0.58062104       0.00700862       0.00017969      -0.01170213       0.01471536       0.00614736       0.00518401       0.00257319       0.00257319      -0.00251773       0.00700862       0.00700862      -0.00484265       0.00614736       0.01471536       0.00518401      -0.00667895      -0.00249954       0.00609977       0.00667895       0.00249954       0.00609977       0.10524287      -0.04897739       0.10207882      -0.10524287       0.04897739       0.10207882       0.00667895      -0.00249954       0.00609977      -0.00667895       0.00249954       0.00609977      -0.10524287      -0.04897739       0.10207882       0.10524287       0.04897739       0.10207882      -0.02296538      -0.02296538       0.58062104      -0.00700862      -0.00017969      -0.01170213      -0.00017969      -0.00700862      -0.01170213      -0.01471536      -0.01471536       0.02730110      -0.00700862      -0.00700862      -0.00484265      -0.00614736      -0.01471536       0.00518401      -0.01471536      -0.00614736       0.00518401      -0.00257319      -0.00257319      -0.00251773       0.04897739       0.04897739      -0.10216026       0.04897739      -0.04897739      -0.10216026      -0.04897739       0.04897739      -0.10216026      -0.04897739      -0.04897739      -0.10216026       0.00249954       0.00249954      -0.00336315       0.00249954      -0.00249954      -0.00336315      -0.00249954       0.00249954      -0.00336315      -0.00249954      -0.00249954      -0.00336315       0.00017969      -0.00700862      -0.01170213       0.01471536      -0.01471536       0.02730110       0.02296538      -0.02296538       0.58062104       0.00700862      -0.00017969      -0.01170213       0.01471536      -0.00614736       0.00518401       0.00257319      -0.00257319      -0.00251773       0.00700862      -0.00700862      -0.00484265       0.00614736      -0.01471536       0.00518401 </v>
[...]
      </set>
     </set>
    </set>
   </array>
  </eigenvalues>
  <separator name="orbital magnetization" >
   <v name="MAGDIPOLOUT">      0.00000000      0.00000000      0.00000000</v>
  </separator>
  <dos>
   <i name="efermi">      8.20799448 </i>
   <total>
    <array>
     <dimension dim="1">gridpoints</dimension>
     <dimension dim="2">spin</dimension>
     <field>energy</field>
     <field>total</field>
     <field>integrated</field>
     <set>
      <set comment="spin 1">
       <r>   -13.3613     0.0000     0.0000 </r>
       <r>   -13.2507     0.0000     0.0000 </r>
       <r>   -13.1401     0.0000     0.0000 </r>
       <r>   -13.0296     0.0000     0.0000 </r>
       <r>   -12.9190     0.0000     0.0000 </r>
       <r>   -12.8084     0.0000     0.0000 </r>
       <r>   -12.6978     0.0000     0.0000 </r>
       <r>   -12.5873     0.0000     0.0000 </r>
       <r>   -12.4767     0.0000     0.0000 </r>
       <r>   -12.3661     0.0000     0.0000 </r>
       <r>   -12.2555     0.0000     0.0000 </r>
       <r>   -12.1450     0.0000     0.0000 </r>
       <r>   -12.0344     0.0000     0.0000 </r>
       <r>   -11.9238     0.0047     0.0005 </r>
       <r>   -11.8132     0.2693     0.0303 </r>
       <r>   -11.7026     1.3031     0.1744 </r>
       <r>   -11.5921     1.5658     0.3475 </r>
       <r>   -11.4815     2.9986     0.6791 </r>
       <r>   -11.3709     1.7396     0.8715 </r>
       <r>   -11.2603     3.7921     1.2908 </r>
       <r>   -11.1498     3.1394     1.6379 </r>
       <r>   -11.0392     4.1025     2.0916 </r>
       <r>   -10.9286     2.6329     2.3827 </r>
       <r>   -10.8180     4.9249     2.9273 </r>
       <r>   -10.7075     4.7766     3.4555 </r>
       <r>   -10.5969     5.3971     4.0522 </r>
       <r>   -10.4863     2.6818     4.3488 </r>
       <r>   -10.3757     5.0456     4.9067 </r>
       <r>   -10.2652     6.8380     5.6628 </r>
       <r>   -10.1546     6.0504     6.3319 </r>
       <r>   -10.0440     4.8037     6.8631 </r>
       <r>    -9.9334     4.5589     7.3672 </r>
       <r>    -9.8228     7.4145     8.1870 </r>
       <r>    -9.7123     5.5855     8.8047 </r>
       <r>    -9.6017     5.9542     9.4631 </r>
       <r>    -9.4911     7.5800    10.3012 </r>
       <r>    -9.3805     7.9165    11.1766 </r>
       <r>    -9.2700     6.7859    11.9270 </r>
       <r>    -9.1594     5.7147    12.5589 </r>
       <r>    -9.0488     4.7210    13.0809 </r>
       <r>    -8.9382     9.7582    14.1599 </r>
       <r>    -8.8277     8.4695    15.0965 </r>
       <r>    -8.7171     9.8568    16.1864 </r>
       <r>    -8.6065     6.5751    16.9134 </r>
       <r>    -8.4959     7.0631    17.6944 </r>
       <r>    -8.3854     8.4653    18.6305 </r>
       <r>    -8.2748     7.6398    19.4753 </r>
       <r>    -8.1642     8.4444    20.4090 </r>
       <r>    -8.0536    11.1142    21.6380 </r>
       <r>    -7.9431    10.9589    22.8498 </r>
       <r>    -7.8325     5.1770    23.4223 </r>
       <r>    -7.7219    10.4051    24.5728 </r>
       <r>    -7.6113    14.6162    26.1890 </r>
       <r>    -7.5007     8.2326    27.0993 </r>
       <r>    -7.3902     6.1036    27.7743 </r>
       <r>    -7.2796    11.1115    29.0029 </r>
       <r>    -7.1690    10.9488    30.2136 </r>
       <r>    -7.0584    12.3091    31.5747 </r>
       <r>    -6.9479    14.4907    33.1770 </r>
       <r>    -6.8373    13.4220    34.6612 </r>
       <r>    -6.7267    14.9518    36.3145 </r>
       <r>    -6.6161    11.2169    37.5548 </r>
       <r>    -6.5056     8.0092    38.4405 </r>
       <r>    -6.3950    18.4931    40.4853 </r>
       <r>    -6.2844    14.6492    42.1052 </r>
       <r>    -6.1738     8.1875    43.0105 </r>
       <r>    -6.0633    12.1874    44.3582 </r>
       <r>    -5.9527    15.3909    46.0600 </r>
       <r>    -5.8421    13.0353    47.5014 </r>
       <r>    -5.7315     9.6631    48.5699 </r>
       <r>    -5.6210    10.2564    49.7041 </r>
       <r>    -5.5104    12.1101    51.0432 </r>
       <r>    -5.3998    11.7503    52.3425 </r>
       <r>    -5.2892     3.6751    52.7488 </r>
       <r>    -5.1786    12.6974    54.1529 </r>
       <r>    -5.0681     8.4490    55.0871 </r>
       <r>    -4.9575     5.4200    55.6864 </r>
       <r>    -4.8469    11.4933    56.9573 </r>
       <r>    -4.7363    12.3728    58.3255 </r>
       <r>    -4.6258    11.5418    59.6017 </r>
       <r>    -4.5152     6.5348    60.3243 </r>
       <r>    -4.4046     3.6460    60.7275 </r>
       <r>    -4.2940     5.7252    61.3606 </r>
       <r>    -4.1835     3.5979    61.7584 </r>
       <r>    -4.0729     2.1375    61.9948 </r>
       <r>    -3.9623     6.4655    62.7097 </r>
       <r>    -3.8517    11.6965    64.0030 </r>
       <r>    -3.7412     8.7051    64.9656 </r>
       <r>    -3.6306     8.4924    65.9047 </r>
       <r>    -3.5200     5.3527    66.4966 </r>
       <r>    -3.4094     9.8754    67.5886 </r>
       <r>    -3.2988    11.2137    68.8285 </r>
       <r>    -3.1883    10.0723    69.9423 </r>
       <r>    -3.0777     5.1738    70.5144 </r>
       <r>    -2.9671    15.3656    72.2134 </r>
       <r>    -2.8565    11.3380    73.4671 </r>
       <r>    -2.7460    21.6067    75.8563 </r>
       <r>    -2.6354    45.2870    80.8640 </r>
       <r>    -2.5248    28.4534    84.0103 </r>
       <r>    -2.4142    11.2436    85.2535 </r>
       <r>    -2.3037     8.5923    86.2036 </r>
       <r>    -2.1931    18.5038    88.2497 </r>
       <r>    -2.0825     9.3603    89.2848 </r>
       <r>    -1.9719     9.2955    90.3126 </r>
       <r>    -1.8614    15.3561    92.0106 </r>
       <r>    -1.7508    14.8943    93.6576 </r>
       <r>    -1.6402    12.5853    95.0492 </r>
       <r>    -1.5296    11.2502    96.2932 </r>
       <r>    -1.4191    11.1412    97.5252 </r>
       <r>    -1.3085    13.7004    99.0401 </r>
       <r>    -1.1979    13.6863   100.5535 </r>
       <r>    -1.0873     2.6559   100.8472 </r>
       <r>    -0.9767     5.7808   101.4864 </r>
       <r>    -0.8662     6.3395   102.1874 </r>
       <r>    -0.7556    12.8330   103.6064 </r>
       <r>    -0.6450     9.7600   104.6856 </r>
       <r>    -0.5344     6.0253   105.3519 </r>
       <r>    -0.4239     6.3570   106.0548 </r>
       <r>    -0.3133     9.9250   107.1523 </r>
       <r>    -0.2027    11.7017   108.4462 </r>
       <r>    -0.0921    16.9946   110.3254 </r>
       <r>     0.0184    10.6919   111.5077 </r>
       <r>     0.1290     9.5016   112.5583 </r>
       <r>     0.2396    18.5324   114.6076 </r>
       <r>     0.3502    19.5313   116.7673 </r>
       <r>     0.4607    20.0509   118.9844 </r>
       <r>     0.5713    23.1026   121.5390 </r>
       <r>     0.6819    16.1969   123.3300 </r>
       <r>     0.7925     8.6525   124.2868 </r>
       <r>     0.9030    28.1389   127.3983 </r>
       <r>     1.0136    20.7565   129.6935 </r>
       <r>     1.1242    10.9340   130.9025 </r>
       <r>     1.2348    20.0661   133.1213 </r>
       <r>     1.3454    27.3201   136.1423 </r>
       <r>     1.4559    19.3738   138.2846 </r>
       <r>     1.5665    12.1583   139.6290 </r>
       <r>     1.6771    13.2830   141.0978 </r>
       <r>     1.7877    21.1664   143.4383 </r>
       <r>     1.8982    28.3739   146.5758 </r>
       <r>     2.0088    22.1280   149.0226 </r>
       <r>     2.1194    27.7736   152.0937 </r>
       <r>     2.2300    18.0066   154.0848 </r>
       <r>     2.3405    29.9562   157.3972 </r>
       <r>     2.4511    23.8239   160.0316 </r>
       <r>     2.5617    26.6042   162.9734 </r>
       <r>     2.6723    16.5866   164.8075 </r>
       <r>     2.7828    34.0246   168.5698 </r>
       <r>     2.8934    34.6945   172.4062 </r>
       <r>     3.0040    38.8025   176.6968 </r>
       <r>     3.1146    21.1263   179.0329 </r>
       <r>     3.2252    14.2833   180.6123 </r>
       <r>     3.3357    26.7408   183.5692 </r>
       <r>     3.4463    32.5379   187.1671 </r>
       <r>     3.5569    21.4419   189.5381 </r>
       <r>     3.6675    32.1039   193.0880 </r>
       <r>     3.7780    25.9358   195.9559 </r>
       <r>     3.8886    25.0232   198.7228 </r>
       <r>     3.9992    20.7634   201.0188 </r>
       <r>     4.1098    26.1986   203.9157 </r>
       <r>     4.2203    27.3021   206.9347 </r>
       <r>     4.3309    22.3368   209.4046 </r>
       <r>     4.4415    30.6790   212.7970 </r>
       <r>     4.5521    15.1868   214.4763 </r>
       <r>     4.6626    23.3295   217.0560 </r>
       <r>     4.7732    25.6406   219.8912 </r>
       <r>     4.8838    27.1183   222.8898 </r>
       <r>     4.9944    29.6760   226.1713 </r>
       <r>     5.1049    18.3863   228.2044 </r>
       <r>     5.2155    14.8519   229.8467 </r>
       <r>     5.3261    20.5054   232.1141 </r>
       <r>     5.4367    24.7766   234.8538 </r>
       <r>     5.5473    33.2605   238.5316 </r>
       <r>     5.6578     9.3593   239.5665 </r>
       <r>     5.7684    12.0199   240.8956 </r>
       <r>     5.8790    14.8954   242.5427 </r>
       <r>     5.9896    12.2977   243.9025 </r>
       <r>     6.1001    10.2785   245.0391 </r>
       <r>     6.2107    15.4169   246.7438 </r>
       <r>     6.3213    10.0433   247.8544 </r>
       <r>     6.4319     7.0736   248.6365 </r>
       <r>     6.5424     8.9734   249.6288 </r>
       <r>     6.6530     8.7012   250.5909 </r>
       <r>     6.7636     6.9873   251.3636 </r>
       <r>     6.8742     7.0483   252.1429 </r>
       <r>     6.9847     4.6928   252.6618 </r>
       <r>     7.0953     6.2307   253.3508 </r>
       <r>     7.2059     7.1140   254.1375 </r>
       <r>     7.3165     4.0421   254.5844 </r>
       <r>     7.4270     1.7048   254.7729 </r>
       <r>     7.5376     4.0914   255.2253 </r>
       <r>     7.6482     3.9154   255.6583 </r>
       <r>     7.7588     1.7482   255.8516 </r>
       <r>     7.8694     1.0234   255.9648 </r>
       <r>     7.9799     0.3131   255.9994 </r>
       <r>     8.0905     0.0055   256.0000 </r>
       <r>     8.2011     0.0000   256.0000 </r>
       <r>     8.3117     0.0000   256.0000 </r>
       <r>     8.4222     0.0000   256.0000 </r>
       <r>     8.5328     0.0000   256.0000 </r>
       <r>     8.6434     0.0000   256.0000 </r>
       <r>     8.7540     0.0000   256.0000 </r>
       <r>     8.8645     0.0000   256.0000 </r>
       <r>     8.9751     0.0000   256.0000 </r>
       <r>     9.0857     0.0000   256.0000 </r>
       <r>     9.1963     0.0000   256.0000 </r>
       <r>     9.3068     0.0000   256.0000 </r>
       <r>     9.4174     0.0000   256.0000 </r>
       <r>     9.5280     0.0000   256.0000 </r>
       <r>     9.6386     0.0000   256.0000 </r>
       <r>     9.7492     0.0000   256.0000 </r>
       <r>     9.8597     0.0000   256.0000 </r>
       <r>     9.9703     0.0000   256.0000 </r>
       <r>    10.0809     0.0000   256.0000 </r>
       <r>    10.1915     0.0000   256.0000 </r>
       <r>    10.3020     0.0000   256.0000 </r>
       <r>    10.4126     0.0000   256.0000 </r>
       <r>    10.5232     0.0000   256.0000 </r>
       <r>    10.6338     0.0000   256.0000 </r>
       <r>    10.7443     0.0000   256.0000 </r>
       <r>    10.8549     0.0000   256.0000 </r>
       <r>    10.9655     0.0000   256.0000 </r>
       <r>    11.0761     0.0000   256.0000 </r>
       <r>    11.1866     0.0000   256.0000 </r>
       <r>    11.2972     0.0000   256.0000 </r>
       <r>    11.4078     0.0000   256.0000 </r>
       <r>    11.5184     0.0000   256.0000 </r>
       <r>    11.6289     0.0021   256.0002 </r>
       <r>    11.7395     0.3943   256.0438 </r>
       <r>    11.8501     1.1536   256.1714 </r>
       <r>    11.9607     1.1564   256.2993 </r>
       <r>    12.0713     5.1476   256.8685 </r>
       <r>    12.1818     5.0685   257.4289 </r>
       <r>    12.2924     7.6624   258.2762 </r>
       <r>    12.4030     5.1920   258.8503 </r>
       <r>    12.5136     4.5717   259.3558 </r>
       <r>    12.6241     3.0208   259.6899 </r>
       <r>    12.7347    15.2632   261.3776 </r>
       <r>    12.8453    20.2024   263.6115 </r>
       <r>    12.9559    10.6065   264.7843 </r>
       <r>    13.0664     9.4061   265.8244 </r>
       <r>    13.1770    11.9647   267.1474 </r>
       <r>    13.2876    16.7116   268.9953 </r>
       <r>    13.3982    12.5262   270.3804 </r>
       <r>    13.5087    14.7601   272.0126 </r>
       <r>    13.6193    22.3981   274.4892 </r>
       <r>    13.7299    20.5678   276.7636 </r>
       <r>    13.8405    22.8864   279.2942 </r>
       <r>    13.9510    14.2074   280.8653 </r>
       <r>    14.0616    20.4248   283.1237 </r>
       <r>    14.1722    22.3314   285.5931 </r>
       <r>    14.2828    26.0567   288.4743 </r>
       <r>    14.3934    20.9159   290.7871 </r>
       <r>    14.5039    17.4840   292.7204 </r>
       <r>    14.6145    25.0922   295.4951 </r>
       <r>    14.7251    29.3925   298.7452 </r>
       <r>    14.8357    17.1966   300.6467 </r>
       <r>    14.9462    29.1034   303.8649 </r>
       <r>    15.0568    50.2008   309.4159 </r>
       <r>    15.1674    49.2314   314.8597 </r>
       <r>    15.2780    39.5599   319.2341 </r>
       <r>    15.3885    32.4605   322.8234 </r>
       <r>    15.4991    29.5972   326.0962 </r>
       <r>    15.6097    29.1255   329.3168 </r>
       <r>    15.7203    43.4327   334.1194 </r>
       <r>    15.8308    39.1106   338.4441 </r>
       <r>    15.9414    47.7034   343.7190 </r>
       <r>    16.0520    37.3965   347.8542 </r>
       <r>    16.1626    40.4936   352.3318 </r>
       <r>    16.2732    27.9331   355.4205 </r>
       <r>    16.3837    29.2620   358.6562 </r>
       <r>    16.4943    19.1248   360.7710 </r>
       <r>    16.6049    23.2614   363.3431 </r>
       <r>    16.7155    30.9464   366.7651 </r>
       <r>    16.8260    39.0442   371.0824 </r>
       <r>    16.9366    23.2295   373.6511 </r>
       <r>    17.0472    20.5152   375.9196 </r>
       <r>    17.1578    17.1166   377.8122 </r>
       <r>    17.2683    19.2479   379.9406 </r>
       <r>    17.3789     9.2834   380.9671 </r>
       <r>    17.4895     7.7268   381.8215 </r>
       <r>    17.6001     7.1763   382.6150 </r>
       <r>    17.7106     3.8011   383.0354 </r>
       <r>    17.8212     0.8106   383.1250 </r>
       <r>    17.9318     1.7194   383.3151 </r>
       <r>    18.0424     0.8338   383.4073 </r>
       <r>    18.1529     0.8015   383.4960 </r>
       <r>    18.2635     2.6587   383.7899 </r>
       <r>    18.3741     1.8241   383.9916 </r>
       <r>    18.4847     0.0756   384.0000 </r>
       <r>    18.5953     0.0000   384.0000 </r>
       <r>    18.7058     0.0000   384.0000 </r>
       <r>    18.8164     0.0000   384.0000 </r>
       <r>    18.9270     0.0000   384.0000 </r>
       <r>    19.0376     0.0000   384.0000 </r>
       <r>    19.1481     0.0000   384.0000 </r>
       <r>    19.2587     0.0000   384.0000 </r>
       <r>    19.3693     0.0000   384.0000 </r>
       <r>    19.4799     0.0000   384.0000 </r>
       <r>    19.5904     0.0000   384.0000 </r>
       <r>    19.7010     0.0000   384.0000 </r>
       <r>    19.8116     0.0000   384.0000 </r>
      </set>
     </set>
    </array>
   </total>
  </dos>
 </calculation>
 <structure name="finalpos" >
  <crystal>
   <varray name="basis" >
    <v>       7.46167279       0.00000000       0.00000000 </v>
    <v>       0.00000000       7.46167279       0.00000000 </v>
    <v>       0.00000000       0.00000000       7.46167279 </v>
   </varray>
   <i name="volume">    415.44027952 </i>
   <varray name="rec_basis" >
    <v>       0.13401821       0.00000000       0.00000000 </v>
    <v>       0.00000000       0.13401821       0.00000000 </v>
    <v>       0.00000000       0.00000000       0.13401821 </v>
   </varray>
  </crystal>
  <varray name="positions" >
   <v>       0.12500000       0.37500000       0.12500000 </v>
   <v>       0.62500000       0.37500000       0.12500000 </v>
   <v>       0.12500000       0.87500000       0.12500000 </v>
   <v>       0.62500000       0.87500000       0.12500000 </v>
   <v>       0.12500000       0.37500000       0.62500000 </v>
   <v>       0.62500000       0.37500000       0.62500000 </v>
   <v>       0.12500000       0.87500000       0.62500000 </v>
   <v>       0.62500000       0.87500000       0.62500000 </v>
   <v>       0.00000000       0.00000000       0.25000000 </v>
   <v>       0.50000000       0.00000000       0.25000000 </v>
   <v>       0.00000000       0.50000000       0.25000000 </v>
   <v>       0.50000000       0.50000000       0.25000000 </v>
   <v>       0.00000000       0.00000000       0.75000000 </v>
   <v>       0.50000000       0.00000000       0.75000000 </v>
   <v>       0.00000000       0.50000000       0.75000000 </v>
   <v>       0.50000000       0.50000000       0.75000000 </v>
   <v>       0.12500000       0.12500000       0.37500000 </v>
   <v>       0.62500000       0.12500000       0.37500000 </v>
   <v>       0.12500000       0.62500000       0.37500000 </v>
   <v>       0.62500000       0.62500000       0.37500000 </v>
   <v>       0.12500000       0.12500000       0.87500000 </v>
   <v>       0.62500000       0.12500000       0.87500000 </v>
   <v>       0.12500000       0.62500000       0.87500000 </v>
   <v>       0.62500000       0.62500000       0.87500000 </v>
   <v>       0.00000000       0.25000000       0.00000000 </v>
   <v>       0.50000000       0.25000000       0.00000000 </v>
   <v>       0.00000000       0.75000000       0.00000000 </v>
   <v>       0.50000000       0.75000000       0.00000000 </v>
   <v>       0.00000000       0.25000000       0.50000000 </v>
   <v>       0.50000000       0.25000000       0.50000000 </v>
   <v>       0.00000000       0.75000000       0.50000000 </v>
   <v>       0.50000000       0.75000000       0.50000000 </v>
   <v>       0.37500000       0.37500000       0.37500000 </v>
   <v>       0.87500000       0.37500000       0.37500000 </v>
   <v>       0.37500000       0.87500000       0.37500000 </v>
   <v>       0.87500000       0.87500000       0.37500000 </v>
   <v>       0.37500000       0.37500000       0.87500000 </v>
   <v>       0.87500000       0.37500000       0.87500000 </v>
   <v>       0.37500000       0.87500000       0.87500000 </v>
   <v>       0.87500000       0.87500000       0.87500000 </v>
   <v>       0.25000000       0.00000000       0.00000000 </v>
   <v>       0.75000000       0.00000000       0.00000000 </v>
   <v>       0.25000000       0.50000000       0.00000000 </v>
   <v>       0.75000000       0.50000000       0.00000000 </v>
   <v>       0.25000000       0.00000000       0.50000000 </v>
   <v>       0.75000000       0.00000000       0.50000000 </v>
   <v>       0.25000000       0.50000000       0.50000000 </v>
   <v>       0.75000000       0.50000000       0.50000000 </v>
   <v>       0.37500000       0.12500000       0.12500000 </v>
   <v>       0.87500000       0.12500000       0.12500000 </v>
   <v>       0.37500000       0.62500000       0.12500000 </v>
   <v>       0.87500000       0.62500000       0.12500000 </v>
   <v>       0.37500000       0.12500000       0.62500000 </v>
   <v>       0.87500000       0.12500000       0.62500000 </v>
   <v>       0.37500000       0.62500000       0.62500000 </v>
   <v>       0.87500000       0.62500000       0.62500000 </v>
   <v>       0.25000000       0.25000000       0.25000000 </v>
   <v>       0.75000000       0.25000000       0.25000000 </v>
   <v>       0.25000000       0.75000000       0.25000000 </v>
   <v>       0.75000000       0.75000000       0.25000000 </v>
   <v>       0.25000000       0.25000000       0.75000000 </v>
   <v>       0.75000000       0.25000000       0.75000000 </v>
   <v>       0.25000000       0.75000000       0.75000000 </v>
   <v>       0.75000000       0.75000000       0.75000000 </v>
  </varray>
 </structure>
</modeling>
