   8   8   0   0
  0.6226254E+01  0.3679360E-09  0.3679360E-09  0.3679360E-09  0.2000000E-16
  1.000000000000000E-004
  CAR 
 unknown system                          
     20.86719511    -13.37137451  301      8.45571362      1.00000000
    -13.371  0.0000E+00  0.0000E+00
    -13.257  0.0000E+00  0.0000E+00
    -13.143  0.0000E+00  0.0000E+00
    -13.029  0.0000E+00  0.0000E+00
    -12.915  0.0000E+00  0.0000E+00
    -12.801  0.0000E+00  0.0000E+00
    -12.687  0.0000E+00  0.0000E+00
    -12.572  0.0000E+00  0.0000E+00
    -12.458  0.0000E+00  0.0000E+00
    -12.344  0.0000E+00  0.0000E+00
    -12.230  0.0000E+00  0.0000E+00
    -12.116  0.0000E+00  0.0000E+00
    -12.002  0.0000E+00  0.0000E+00
    -11.888  0.0000E+00  0.0000E+00
    -11.774  0.3673E-01  0.5081E-03
    -11.659  0.1633E+00  0.1484E-01
    -11.545  0.2561E+00  0.3874E-01
    -11.431  0.2896E+00  0.6957E-01
    -11.317  0.3399E+00  0.1055E+00
    -11.203  0.3831E+00  0.1472E+00
    -11.089  0.4139E+00  0.1926E+00
    -10.975  0.4468E+00  0.2416E+00
    -10.861  0.4876E+00  0.2949E+00
    -10.746  0.5125E+00  0.3522E+00
    -10.632  0.5376E+00  0.4121E+00
    -10.518  0.5651E+00  0.4750E+00
    -10.404  0.5954E+00  0.5412E+00
    -10.290  0.6248E+00  0.6109E+00
    -10.176  0.6452E+00  0.6833E+00
    -10.062  0.6667E+00  0.7582E+00
     -9.948  0.6902E+00  0.8356E+00
     -9.833  0.7147E+00  0.9158E+00
     -9.719  0.7409E+00  0.9988E+00
     -9.605  0.7643E+00  0.1085E+01
     -9.491  0.7836E+00  0.1173E+01
     -9.377  0.8027E+00  0.1264E+01
     -9.263  0.8246E+00  0.1357E+01
     -9.149  0.8470E+00  0.1452E+01
     -9.034  0.8705E+00  0.1550E+01
     -8.920  0.8948E+00  0.1651E+01
     -8.806  0.9140E+00  0.1754E+01
     -8.692  0.9336E+00  0.1859E+01
     -8.578  0.9544E+00  0.1967E+01
     -8.464  0.9760E+00  0.2077E+01
     -8.350  0.9979E+00  0.2190E+01
     -8.236  0.1038E+01  0.2305E+01
     -8.121  0.1094E+01  0.2428E+01
     -8.007  0.1134E+01  0.2554E+01
     -7.893  0.1173E+01  0.2687E+01
     -7.779  0.1169E+01  0.2821E+01
     -7.665  0.1139E+01  0.2953E+01
     -7.551  0.1122E+01  0.3081E+01
     -7.437  0.1156E+01  0.3212E+01
     -7.323  0.1173E+01  0.3345E+01
     -7.208  0.1185E+01  0.3479E+01
     -7.094  0.1230E+01  0.3616E+01
     -6.980  0.1310E+01  0.3761E+01
     -6.866  0.1365E+01  0.3913E+01
     -6.752  0.1514E+01  0.4077E+01
     -6.638  0.1617E+01  0.4255E+01
     -6.524  0.1739E+01  0.4448E+01
     -6.410  0.1659E+01  0.4645E+01
     -6.295  0.1706E+01  0.4838E+01
     -6.181  0.1590E+01  0.5028E+01
     -6.067  0.1515E+01  0.5204E+01
     -5.953  0.1532E+01  0.5375E+01
     -5.839  0.1543E+01  0.5553E+01
     -5.725  0.1440E+01  0.5723E+01
     -5.611  0.1441E+01  0.5888E+01
     -5.497  0.1337E+01  0.6046E+01
     -5.382  0.1305E+01  0.6195E+01
     -5.268  0.1277E+01  0.6343E+01
     -5.154  0.1274E+01  0.6492E+01
     -5.040  0.1169E+01  0.6631E+01
     -4.926  0.1110E+01  0.6760E+01
     -4.812  0.1124E+01  0.6890E+01
     -4.698  0.1098E+01  0.7021E+01
     -4.583  0.1048E+01  0.7144E+01
     -4.469  0.1065E+01  0.7263E+01
     -4.355  0.1084E+01  0.7384E+01
     -4.241  0.9408E+00  0.7499E+01
     -4.127  0.8421E+00  0.7601E+01
     -4.013  0.7427E+00  0.7691E+01
     -3.899  0.6601E+00  0.7771E+01
     -3.785  0.7771E+00  0.7848E+01
     -3.670  0.7679E+00  0.7936E+01
     -3.556  0.8398E+00  0.8036E+01
     -3.442  0.7604E+00  0.8129E+01
     -3.328  0.7958E+00  0.8217E+01
     -3.214  0.9916E+00  0.8318E+01
     -3.100  0.1080E+01  0.8435E+01
     -2.986  0.1203E+01  0.8563E+01
     -2.872  0.1394E+01  0.8711E+01
     -2.757  0.1697E+01  0.8887E+01
     -2.643  0.1970E+01  0.9094E+01
     -2.529  0.2409E+01  0.9343E+01
     -2.415  0.3379E+01  0.9667E+01
     -2.301  0.3074E+01  0.1010E+02
     -2.187  0.2351E+01  0.1041E+02
     -2.073  0.2048E+01  0.1066E+02
     -1.959  0.1850E+01  0.1088E+02
     -1.844  0.1725E+01  0.1108E+02
     -1.730  0.1619E+01  0.1127E+02
     -1.616  0.1538E+01  0.1145E+02
     -1.502  0.1501E+01  0.1163E+02
     -1.388  0.1459E+01  0.1179E+02
     -1.274  0.1433E+01  0.1196E+02
     -1.160  0.1397E+01  0.1212E+02
     -1.045  0.1218E+01  0.1227E+02
     -0.931  0.1173E+01  0.1241E+02
     -0.817  0.1147E+01  0.1254E+02
     -0.703  0.1123E+01  0.1267E+02
     -0.589  0.1097E+01  0.1280E+02
     -0.475  0.1055E+01  0.1292E+02
     -0.361  0.1003E+01  0.1304E+02
     -0.247  0.9932E+00  0.1315E+02
     -0.132  0.1091E+01  0.1327E+02
     -0.018  0.1220E+01  0.1340E+02
      0.096  0.1465E+01  0.1355E+02
      0.210  0.1657E+01  0.1373E+02
      0.324  0.1892E+01  0.1393E+02
      0.438  0.2356E+01  0.1417E+02
      0.552  0.2443E+01  0.1445E+02
      0.666  0.2489E+01  0.1473E+02
      0.781  0.2791E+01  0.1503E+02
      0.895  0.2065E+01  0.1532E+02
      1.009  0.1467E+01  0.1552E+02
      1.123  0.1262E+01  0.1567E+02
      1.237  0.1847E+01  0.1586E+02
      1.351  0.2226E+01  0.1609E+02
      1.465  0.2322E+01  0.1636E+02
      1.579  0.2407E+01  0.1663E+02
      1.694  0.2542E+01  0.1691E+02
      1.808  0.2525E+01  0.1720E+02
      1.922  0.2469E+01  0.1748E+02
      2.036  0.2429E+01  0.1776E+02
      2.150  0.2708E+01  0.1805E+02
      2.264  0.3041E+01  0.1838E+02
      2.378  0.3645E+01  0.1875E+02
      2.492  0.3031E+01  0.1913E+02
      2.607  0.2562E+01  0.1944E+02
      2.721  0.2649E+01  0.1971E+02
      2.835  0.3120E+01  0.2005E+02
      2.949  0.3017E+01  0.2039E+02
      3.063  0.3813E+01  0.2076E+02
      3.177  0.4534E+01  0.2125E+02
      3.291  0.3785E+01  0.2174E+02
      3.406  0.3101E+01  0.2212E+02
      3.520  0.2693E+01  0.2245E+02
      3.634  0.2698E+01  0.2276E+02
      3.748  0.3522E+01  0.2310E+02
      3.862  0.2887E+01  0.2347E+02
      3.976  0.3268E+01  0.2382E+02
      4.090  0.3146E+01  0.2419E+02
      4.204  0.3134E+01  0.2455E+02
      4.319  0.3202E+01  0.2491E+02
      4.433  0.3327E+01  0.2528E+02
      4.547  0.3295E+01  0.2567E+02
      4.661  0.2768E+01  0.2601E+02
      4.775  0.2547E+01  0.2631E+02
      4.889  0.2548E+01  0.2661E+02
      5.003  0.2633E+01  0.2690E+02
      5.117  0.2947E+01  0.2722E+02
      5.232  0.3064E+01  0.2757E+02
      5.346  0.3010E+01  0.2792E+02
      5.460  0.2917E+01  0.2825E+02
      5.574  0.2696E+01  0.2858E+02
      5.688  0.2562E+01  0.2889E+02
      5.802  0.2724E+01  0.2918E+02
      5.916  0.2856E+01  0.2955E+02
      6.030  0.1997E+01  0.2981E+02
      6.145  0.1813E+01  0.3003E+02
      6.259  0.1687E+01  0.3023E+02
      6.373  0.1522E+01  0.3041E+02
      6.487  0.1432E+01  0.3058E+02
      6.601  0.1347E+01  0.3074E+02
      6.715  0.1266E+01  0.3089E+02
      6.829  0.1136E+01  0.3103E+02
      6.944  0.1024E+01  0.3115E+02
      7.058  0.9610E+00  0.3126E+02
      7.172  0.8966E+00  0.3137E+02
      7.286  0.8467E+00  0.3147E+02
      7.400  0.7595E+00  0.3156E+02
      7.514  0.6798E+00  0.3164E+02
      7.628  0.6040E+00  0.3171E+02
      7.742  0.5729E+00  0.3178E+02
      7.857  0.4438E+00  0.3184E+02
      7.971  0.3687E+00  0.3189E+02
      8.085  0.4132E+00  0.3193E+02
      8.199  0.2218E+00  0.3197E+02
      8.313  0.1549E+00  0.3199E+02
      8.427  0.3658E-02  0.3200E+02
      8.541  0.0000E+00  0.3200E+02
      8.655  0.0000E+00  0.3200E+02
      8.770  0.0000E+00  0.3200E+02
      8.884  0.0000E+00  0.3200E+02
      8.998  0.0000E+00  0.3200E+02
      9.112  0.0000E+00  0.3200E+02
      9.226  0.0000E+00  0.3200E+02
      9.340  0.0000E+00  0.3200E+02
      9.454  0.0000E+00  0.3200E+02
      9.568  0.0000E+00  0.3200E+02
      9.683  0.0000E+00  0.3200E+02
      9.797  0.0000E+00  0.3200E+02
      9.911  0.0000E+00  0.3200E+02
     10.025  0.0000E+00  0.3200E+02
     10.139  0.0000E+00  0.3200E+02
     10.253  0.0000E+00  0.3200E+02
     10.367  0.0000E+00  0.3200E+02
     10.481  0.0000E+00  0.3200E+02
     10.596  0.0000E+00  0.3200E+02
     10.710  0.0000E+00  0.3200E+02
     10.824  0.0000E+00  0.3200E+02
     10.938  0.0000E+00  0.3200E+02
     11.052  0.0000E+00  0.3200E+02
     11.166  0.0000E+00  0.3200E+02
     11.280  0.0000E+00  0.3200E+02
     11.395  0.0000E+00  0.3200E+02
     11.509  0.0000E+00  0.3200E+02
     11.623  0.0000E+00  0.3200E+02
     11.737  0.0000E+00  0.3200E+02
     11.851  0.0000E+00  0.3200E+02
     11.965  0.0000E+00  0.3200E+02
     12.079  0.0000E+00  0.3200E+02
     12.193  0.0000E+00  0.3200E+02
     12.308  0.0000E+00  0.3200E+02
     12.422  0.1603E-01  0.3200E+02
     12.536  0.1517E+00  0.3201E+02
     12.650  0.3675E+00  0.3204E+02
     12.764  0.5658E+00  0.3209E+02
     12.878  0.6493E+00  0.3216E+02
     12.992  0.6508E+00  0.3224E+02
     13.106  0.8398E+00  0.3232E+02
     13.221  0.9826E+00  0.3243E+02
     13.335  0.1100E+01  0.3254E+02
     13.449  0.1830E+01  0.3271E+02
     13.563  0.1535E+01  0.3289E+02
     13.677  0.1514E+01  0.3306E+02
     13.791  0.1611E+01  0.3324E+02
     13.905  0.1640E+01  0.3343E+02
     14.019  0.1811E+01  0.3362E+02
     14.134  0.1978E+01  0.3384E+02
     14.248  0.2169E+01  0.3407E+02
     14.362  0.2329E+01  0.3432E+02
     14.476  0.2479E+01  0.3460E+02
     14.590  0.2230E+01  0.3487E+02
     14.704  0.2214E+01  0.3512E+02
     14.818  0.2253E+01  0.3538E+02
     14.933  0.2377E+01  0.3564E+02
     15.047  0.2536E+01  0.3592E+02
     15.161  0.2739E+01  0.3622E+02
     15.275  0.2956E+01  0.3655E+02
     15.389  0.3065E+01  0.3689E+02
     15.503  0.3109E+01  0.3724E+02
     15.617  0.3238E+01  0.3761E+02
     15.731  0.3607E+01  0.3800E+02
     15.846  0.3830E+01  0.3842E+02
     15.960  0.4292E+01  0.3888E+02
     16.074  0.5074E+01  0.3941E+02
     16.188  0.5773E+01  0.4005E+02
     16.302  0.4721E+01  0.4065E+02
     16.416  0.3966E+01  0.4116E+02
     16.530  0.4628E+01  0.4169E+02
     16.644  0.3783E+01  0.4216E+02
     16.759  0.3811E+01  0.4258E+02
     16.873  0.4006E+01  0.4304E+02
     16.987  0.4270E+01  0.4350E+02
     17.101  0.3541E+01  0.4395E+02
     17.215  0.2908E+01  0.4431E+02
     17.329  0.2728E+01  0.4463E+02
     17.443  0.2612E+01  0.4494E+02
     17.557  0.2678E+01  0.4524E+02
     17.672  0.2982E+01  0.4556E+02
     17.786  0.2946E+01  0.4589E+02
     17.900  0.2937E+01  0.4622E+02
     18.014  0.2917E+01  0.4656E+02
     18.128  0.2837E+01  0.4689E+02
     18.242  0.2369E+01  0.4719E+02
     18.356  0.1912E+01  0.4743E+02
     18.470  0.1491E+01  0.4762E+02
     18.585  0.9519E+00  0.4777E+02
     18.699  0.5906E+00  0.4785E+02
     18.813  0.3437E+00  0.4790E+02
     18.927  0.2695E+00  0.4794E+02
     19.041  0.2055E+00  0.4797E+02
     19.155  0.1466E+00  0.4799E+02
     19.269  0.6386E-01  0.4800E+02
     19.384  0.0000E+00  0.4800E+02
     19.498  0.0000E+00  0.4800E+02
     19.612  0.0000E+00  0.4800E+02
     19.726  0.0000E+00  0.4800E+02
     19.840  0.0000E+00  0.4800E+02
     19.954  0.0000E+00  0.4800E+02
     20.068  0.0000E+00  0.4800E+02
     20.182  0.0000E+00  0.4800E+02
     20.297  0.0000E+00  0.4800E+02
     20.411  0.0000E+00  0.4800E+02
     20.525  0.0000E+00  0.4800E+02
     20.639  0.0000E+00  0.4800E+02
     20.753  0.0000E+00  0.4800E+02
     20.867  0.0000E+00  0.4800E+02
