       N       E                     dE             d eps       ncg     rms          rms(c)
DAV:   1     0.577354642787E+02    0.57735E+02   -0.14275E+04  4040   0.105E+03
DAV:   2    -0.697614275272E+02   -0.12750E+03   -0.12077E+03  5616   0.216E+02
DAV:   3    -0.741145081749E+02   -0.43531E+01   -0.43303E+01  5224   0.375E+01
DAV:   4    -0.741619652100E+02   -0.47457E-01   -0.47413E-01  5184   0.428E+00
DAV:   5    -0.741630361449E+02   -0.10709E-02   -0.10702E-02  5200   0.589E-01    0.848E+00
DAV:   6    -0.727623310640E+02    0.14007E+01   -0.94815E-01  4728   0.537E+00    0.473E+00
DAV:   7    -0.722877530043E+02    0.47458E+00   -0.10999E+00  4824   0.596E+00    0.665E-01
DAV:   8    -0.722941192004E+02   -0.63662E-02   -0.22717E-02  5184   0.860E-01    0.750E-02
DAV:   9    -0.722943421625E+02   -0.22296E-03   -0.43534E-04  4944   0.137E-01    0.270E-02
DAV:  10    -0.722943991114E+02   -0.56949E-04   -0.55569E-05  5056   0.546E-02    0.258E-03
DAV:  11    -0.722943994960E+02   -0.38466E-06   -0.11429E-06  3832   0.709E-03
   1 F= -.72294399E+02 E0= -.72294399E+02  d E =0.000000E+00
