   8   8   0   0
  0.5610894E+01  0.3553918E-09  0.3553918E-09  0.3553918E-09  0.2000000E-16
  1.000000000000000E-004
  CAR 
 unknown system                          
     23.39087464    -13.38157400  301     10.03787922      1.00000000
    -13.382  0.0000E+00  0.0000E+00
    -13.259  0.0000E+00  0.0000E+00
    -13.136  0.0000E+00  0.0000E+00
    -13.014  0.0000E+00  0.0000E+00
    -12.891  0.0000E+00  0.0000E+00
    -12.769  0.0000E+00  0.0000E+00
    -12.646  0.0000E+00  0.0000E+00
    -12.524  0.0000E+00  0.0000E+00
    -12.401  0.0000E+00  0.0000E+00
    -12.278  0.0000E+00  0.0000E+00
    -12.156  0.0000E+00  0.0000E+00
    -12.033  0.0000E+00  0.0000E+00
    -11.911  0.0000E+00  0.0000E+00
    -11.788  0.0000E+00  0.0000E+00
    -11.666  0.3411E-01  0.5068E-03
    -11.543  0.1518E+00  0.1481E-01
    -11.420  0.2379E+00  0.3866E-01
    -11.298  0.2689E+00  0.6942E-01
    -11.175  0.3155E+00  0.1053E+00
    -11.053  0.3557E+00  0.1469E+00
    -10.930  0.3842E+00  0.1921E+00
    -10.808  0.4144E+00  0.2410E+00
    -10.685  0.4521E+00  0.2941E+00
    -10.562  0.4753E+00  0.3511E+00
    -10.440  0.4983E+00  0.4108E+00
    -10.317  0.5234E+00  0.4733E+00
    -10.195  0.5512E+00  0.5392E+00
    -10.072  0.5784E+00  0.6085E+00
     -9.949  0.5970E+00  0.6805E+00
     -9.827  0.6166E+00  0.7549E+00
     -9.704  0.6380E+00  0.8318E+00
     -9.582  0.6602E+00  0.9113E+00
     -9.459  0.6839E+00  0.9937E+00
     -9.337  0.7055E+00  0.1079E+01
     -9.214  0.7228E+00  0.1166E+01
     -9.091  0.7399E+00  0.1256E+01
     -8.969  0.7595E+00  0.1348E+01
     -8.846  0.7795E+00  0.1442E+01
     -8.724  0.8005E+00  0.1539E+01
     -8.601  0.8222E+00  0.1639E+01
     -8.479  0.8394E+00  0.1740E+01
     -8.356  0.8566E+00  0.1844E+01
     -8.233  0.8746E+00  0.1950E+01
     -8.111  0.8934E+00  0.2059E+01
     -7.988  0.9124E+00  0.2170E+01
     -7.866  0.9330E+00  0.2283E+01
     -7.743  0.9953E+00  0.2402E+01
     -7.621  0.1020E+01  0.2525E+01
     -7.498  0.1068E+01  0.2654E+01
     -7.375  0.1070E+01  0.2786E+01
     -7.253  0.1045E+01  0.2915E+01
     -7.130  0.1014E+01  0.3042E+01
     -7.008  0.1045E+01  0.3168E+01
     -6.885  0.1057E+01  0.3297E+01
     -6.763  0.1063E+01  0.3427E+01
     -6.640  0.1085E+01  0.3558E+01
     -6.517  0.1142E+01  0.3694E+01
     -6.395  0.1179E+01  0.3838E+01
     -6.272  0.1280E+01  0.3990E+01
     -6.150  0.1324E+01  0.4151E+01
     -6.027  0.1373E+01  0.4315E+01
     -5.905  0.1545E+01  0.4494E+01
     -5.782  0.1627E+01  0.4690E+01
     -5.659  0.1518E+01  0.4880E+01
     -5.537  0.1468E+01  0.5065E+01
     -5.414  0.1378E+01  0.5238E+01
     -5.292  0.1395E+01  0.5411E+01
     -5.169  0.1373E+01  0.5579E+01
     -5.046  0.1386E+01  0.5750E+01
     -4.924  0.1273E+01  0.5914E+01
     -4.801  0.1200E+01  0.6065E+01
     -4.679  0.1188E+01  0.6212E+01
     -4.556  0.1155E+01  0.6356E+01
     -4.434  0.1230E+01  0.6499E+01
     -4.311  0.1076E+01  0.6638E+01
     -4.188  0.1085E+01  0.6769E+01
     -4.066  0.1094E+01  0.6901E+01
     -3.943  0.9980E+00  0.7028E+01
     -3.821  0.9529E+00  0.7147E+01
     -3.698  0.9620E+00  0.7263E+01
     -3.576  0.9422E+00  0.7380E+01
     -3.453  0.9318E+00  0.7496E+01
     -3.330  0.1013E+01  0.7619E+01
     -3.208  0.1001E+01  0.7739E+01
     -3.085  0.1013E+01  0.7866E+01
     -2.963  0.9652E+00  0.7986E+01
     -2.840  0.1049E+01  0.8114E+01
     -2.718  0.9928E+00  0.8241E+01
     -2.595  0.9740E+00  0.8363E+01
     -2.472  0.9630E+00  0.8480E+01
     -2.350  0.1029E+01  0.8602E+01
     -2.227  0.1196E+01  0.8737E+01
     -2.105  0.1344E+01  0.8892E+01
     -1.982  0.1556E+01  0.9069E+01
     -1.860  0.1788E+01  0.9274E+01
     -1.737  0.2269E+01  0.9518E+01
     -1.614  0.2837E+01  0.9833E+01
     -1.492  0.2895E+01  0.1019E+02
     -1.369  0.2250E+01  0.1051E+02
     -1.247  0.1812E+01  0.1076E+02
     -1.124  0.1657E+01  0.1097E+02
     -1.002  0.1547E+01  0.1117E+02
     -0.879  0.1461E+01  0.1135E+02
     -0.756  0.1392E+01  0.1152E+02
     -0.634  0.1355E+01  0.1169E+02
     -0.511  0.1323E+01  0.1186E+02
     -0.389  0.1286E+01  0.1202E+02
     -0.266  0.1278E+01  0.1217E+02
     -0.143  0.1432E+01  0.1233E+02
     -0.021  0.1114E+01  0.1247E+02
      0.102  0.1097E+01  0.1261E+02
      0.224  0.1088E+01  0.1274E+02
      0.347  0.1087E+01  0.1288E+02
      0.469  0.1027E+01  0.1301E+02
      0.592  0.1129E+01  0.1313E+02
      0.715  0.1428E+01  0.1329E+02
      0.837  0.1689E+01  0.1348E+02
      0.960  0.2079E+01  0.1370E+02
      1.082  0.2324E+01  0.1397E+02
      1.205  0.2191E+01  0.1424E+02
      1.327  0.2072E+01  0.1451E+02
      1.450  0.2166E+01  0.1477E+02
      1.573  0.2227E+01  0.1503E+02
      1.695  0.2056E+01  0.1530E+02
      1.818  0.1695E+01  0.1553E+02
      1.940  0.1427E+01  0.1572E+02
      2.063  0.1617E+01  0.1590E+02
      2.185  0.1936E+01  0.1612E+02
      2.308  0.2142E+01  0.1637E+02
      2.431  0.2311E+01  0.1665E+02
      2.553  0.2287E+01  0.1693E+02
      2.676  0.2332E+01  0.1721E+02
      2.798  0.2316E+01  0.1750E+02
      2.921  0.2396E+01  0.1779E+02
      3.043  0.2699E+01  0.1810E+02
      3.166  0.3068E+01  0.1845E+02
      3.289  0.2822E+01  0.1882E+02
      3.411  0.2531E+01  0.1915E+02
      3.534  0.2357E+01  0.1945E+02
      3.656  0.2848E+01  0.1977E+02
      3.779  0.2699E+01  0.2011E+02
      3.901  0.2878E+01  0.2045E+02
      4.024  0.3605E+01  0.2085E+02
      4.147  0.4067E+01  0.2133E+02
      4.269  0.3412E+01  0.2178E+02
      4.392  0.2830E+01  0.2216E+02
      4.514  0.2545E+01  0.2249E+02
      4.637  0.2580E+01  0.2280E+02
      4.760  0.2970E+01  0.2315E+02
      4.882  0.2677E+01  0.2349E+02
      5.005  0.2891E+01  0.2383E+02
      5.127  0.2941E+01  0.2419E+02
      5.250  0.2915E+01  0.2455E+02
      5.372  0.2950E+01  0.2491E+02
      5.495  0.3052E+01  0.2527E+02
      5.618  0.2960E+01  0.2565E+02
      5.740  0.2581E+01  0.2599E+02
      5.863  0.2354E+01  0.2629E+02
      5.985  0.2314E+01  0.2657E+02
      6.108  0.2365E+01  0.2686E+02
      6.230  0.2733E+01  0.2717E+02
      6.353  0.2768E+01  0.2751E+02
      6.476  0.2704E+01  0.2785E+02
      6.598  0.2654E+01  0.2818E+02
      6.721  0.2456E+01  0.2850E+02
      6.843  0.2358E+01  0.2879E+02
      6.966  0.2352E+01  0.2908E+02
      7.088  0.3134E+01  0.2943E+02
      7.211  0.1886E+01  0.2972E+02
      7.334  0.1702E+01  0.2994E+02
      7.456  0.1579E+01  0.3014E+02
      7.579  0.1430E+01  0.3033E+02
      7.701  0.1338E+01  0.3050E+02
      7.824  0.1268E+01  0.3066E+02
      7.946  0.1189E+01  0.3081E+02
      8.069  0.1099E+01  0.3095E+02
      8.192  0.9837E+00  0.3108E+02
      8.314  0.8897E+00  0.3119E+02
      8.437  0.8524E+00  0.3130E+02
      8.559  0.8088E+00  0.3140E+02
      8.682  0.7422E+00  0.3149E+02
      8.804  0.6725E+00  0.3158E+02
      8.927  0.5972E+00  0.3166E+02
      9.050  0.5333E+00  0.3173E+02
      9.172  0.5092E+00  0.3179E+02
      9.295  0.3926E+00  0.3185E+02
      9.417  0.3454E+00  0.3189E+02
      9.540  0.3757E+00  0.3194E+02
      9.662  0.1884E+00  0.3197E+02
      9.785  0.1268E+00  0.3199E+02
      9.908  0.4592E-02  0.3200E+02
     10.030  0.0000E+00  0.3200E+02
     10.153  0.0000E+00  0.3200E+02
     10.275  0.0000E+00  0.3200E+02
     10.398  0.0000E+00  0.3200E+02
     10.521  0.0000E+00  0.3200E+02
     10.643  0.0000E+00  0.3200E+02
     10.766  0.0000E+00  0.3200E+02
     10.888  0.0000E+00  0.3200E+02
     11.011  0.0000E+00  0.3200E+02
     11.133  0.0000E+00  0.3200E+02
     11.256  0.0000E+00  0.3200E+02
     11.379  0.0000E+00  0.3200E+02
     11.501  0.0000E+00  0.3200E+02
     11.624  0.0000E+00  0.3200E+02
     11.746  0.0000E+00  0.3200E+02
     11.869  0.0000E+00  0.3200E+02
     11.991  0.0000E+00  0.3200E+02
     12.114  0.0000E+00  0.3200E+02
     12.237  0.0000E+00  0.3200E+02
     12.359  0.0000E+00  0.3200E+02
     12.482  0.0000E+00  0.3200E+02
     12.604  0.0000E+00  0.3200E+02
     12.727  0.0000E+00  0.3200E+02
     12.849  0.0000E+00  0.3200E+02
     12.972  0.0000E+00  0.3200E+02
     13.095  0.0000E+00  0.3200E+02
     13.217  0.0000E+00  0.3200E+02
     13.340  0.0000E+00  0.3200E+02
     13.462  0.0000E+00  0.3200E+02
     13.585  0.0000E+00  0.3200E+02
     13.707  0.0000E+00  0.3200E+02
     13.830  0.0000E+00  0.3200E+02
     13.953  0.0000E+00  0.3200E+02
     14.075  0.4324E-04  0.3200E+02
     14.198  0.9488E-01  0.3200E+02
     14.320  0.2746E+00  0.3203E+02
     14.443  0.5026E+00  0.3208E+02
     14.565  0.5952E+00  0.3214E+02
     14.688  0.5889E+00  0.3222E+02
     14.811  0.7749E+00  0.3230E+02
     14.933  0.8843E+00  0.3240E+02
     15.056  0.9990E+00  0.3252E+02
     15.178  0.1563E+01  0.3268E+02
     15.301  0.1436E+01  0.3286E+02
     15.424  0.1423E+01  0.3303E+02
     15.546  0.1510E+01  0.3321E+02
     15.669  0.1498E+01  0.3340E+02
     15.791  0.1633E+01  0.3359E+02
     15.914  0.1773E+01  0.3379E+02
     16.036  0.1883E+01  0.3402E+02
     16.159  0.2103E+01  0.3426E+02
     16.282  0.2343E+01  0.3454E+02
     16.404  0.2084E+01  0.3481E+02
     16.527  0.2043E+01  0.3506E+02
     16.649  0.2064E+01  0.3531E+02
     16.772  0.2148E+01  0.3557E+02
     16.894  0.2268E+01  0.3584E+02
     17.017  0.2441E+01  0.3613E+02
     17.140  0.2587E+01  0.3644E+02
     17.262  0.2753E+01  0.3677E+02
     17.385  0.2763E+01  0.3711E+02
     17.507  0.2866E+01  0.3745E+02
     17.630  0.3049E+01  0.3781E+02
     17.752  0.3427E+01  0.3821E+02
     17.875  0.3657E+01  0.3863E+02
     17.998  0.4110E+01  0.3911E+02
     18.120  0.4460E+01  0.3964E+02
     18.243  0.4573E+01  0.4019E+02
     18.365  0.3546E+01  0.4070E+02
     18.488  0.2894E+01  0.4108E+02
     18.610  0.3351E+01  0.4145E+02
     18.733  0.3759E+01  0.4189E+02
     18.856  0.3683E+01  0.4237E+02
     18.978  0.3496E+01  0.4281E+02
     19.101  0.3716E+01  0.4325E+02
     19.223  0.3678E+01  0.4371E+02
     19.346  0.3182E+01  0.4413E+02
     19.468  0.2756E+01  0.4449E+02
     19.591  0.2577E+01  0.4481E+02
     19.714  0.2516E+01  0.4512E+02
     19.836  0.2661E+01  0.4544E+02
     19.959  0.2868E+01  0.4578E+02
     20.081  0.2699E+01  0.4612E+02
     20.204  0.2795E+01  0.4646E+02
     20.327  0.2664E+01  0.4679E+02
     20.449  0.2539E+01  0.4712E+02
     20.572  0.1988E+01  0.4739E+02
     20.694  0.1531E+01  0.4761E+02
     20.817  0.1110E+01  0.4777E+02
     20.939  0.5111E+00  0.4786E+02
     21.062  0.3458E+00  0.4791E+02
     21.185  0.2102E+00  0.4795E+02
     21.307  0.1577E+00  0.4797E+02
     21.430  0.1076E+00  0.4798E+02
     21.552  0.5997E-01  0.4800E+02
     21.675  0.1450E-01  0.4800E+02
     21.797  0.0000E+00  0.4800E+02
     21.920  0.0000E+00  0.4800E+02
     22.043  0.0000E+00  0.4800E+02
     22.165  0.0000E+00  0.4800E+02
     22.288  0.0000E+00  0.4800E+02
     22.410  0.0000E+00  0.4800E+02
     22.533  0.0000E+00  0.4800E+02
     22.655  0.0000E+00  0.4800E+02
     22.778  0.0000E+00  0.4800E+02
     22.901  0.0000E+00  0.4800E+02
     23.023  0.0000E+00  0.4800E+02
     23.146  0.0000E+00  0.4800E+02
     23.268  0.0000E+00  0.4800E+02
     23.391  0.0000E+00  0.4800E+02
