       N       E                     dE             d eps       ncg     rms          rms(c)
DAV:   1     0.576320512408E+02    0.57632E+02   -0.14407E+04  4040   0.105E+03
DAV:   2    -0.713059230455E+02   -0.12894E+03   -0.12260E+03  5616   0.222E+02
DAV:   3    -0.753139078899E+02   -0.40080E+01   -0.39888E+01  5176   0.364E+01
DAV:   4    -0.753523390091E+02   -0.38431E-01   -0.38397E-01  5088   0.390E+00
DAV:   5    -0.753530730943E+02   -0.73409E-03   -0.73374E-03  5168   0.487E-01    0.963E+00
DAV:   6    -0.733895564869E+02    0.19635E+01   -0.12961E+00  4536   0.650E+00    0.527E+00
DAV:   7    -0.727266209633E+02    0.66294E+00   -0.14594E+00  4672   0.709E+00    0.700E-01
DAV:   8    -0.727341771361E+02   -0.75562E-02   -0.28283E-02  5160   0.981E-01    0.802E-02
DAV:   9    -0.727343882661E+02   -0.21113E-03   -0.42035E-04  4800   0.139E-01    0.285E-02
DAV:  10    -0.727344421735E+02   -0.53907E-04   -0.45642E-05  5088   0.516E-02    0.266E-03
DAV:  11    -0.727344427623E+02   -0.58884E-06   -0.10426E-06  3688   0.715E-03
   1 F= -.72734443E+02 E0= -.72734443E+02  d E =0.000000E+00
