 vasp.5.4.4.18Apr17-6-g9f103f2a35 (build Mar 12 2022 03:36:41) complex          
  
 executed on IFC19.0.3.199_CrayMP date 2022.12.01  10:40:02
 running on   16 total cores
 distrk:  each k-point on   16 cores,    1 groups
 distr:  one band on NCORES_PER_BAND=   4 cores,    4 groups


--------------------------------------------------------------------------------------------------------


 INCAR:
 POTCAR:   PAW_PBE C 08Apr2002                    
 POTCAR:   PAW_PBE C 08Apr2002                    
   VRHFIN =C: s2p2                                                              
   LEXCH  = PE                                                                  
   EATOM  =   147.1560 eV,   10.8157 Ry                                         
                                                                                
   TITEL  = PAW_PBE C 08Apr2002                                                 
   LULTRA =        F    use ultrasoft PP ?                                      
   IUNSCR =        0    unscreen: 0-lin 1-nonlin 2-no                           
   RPACOR =     .000    partial core radius                                     
   POMASS =   12.011; ZVAL   =    4.000    mass and valenz                      
   RCORE  =    1.500    outmost cutoff radius                                   
   RWIGS  =    1.630; RWIGS  =     .863    wigner-seitz radius (au A)           
   ENMAX  =  400.000; ENMIN  =  300.000 eV                                      
   ICORE  =        2    local potential                                         
   LCOR   =        T    correct aug charges                                     
   LPAW   =        T    paw PP                                                  
   EAUG   =  644.873                                                            
   DEXC   =     .000                                                            
   RMAX   =    2.266    core radius for proj-oper                               
   RAUG   =    1.300    factor for augmentation sphere                          
   RDEP   =    1.501    radius for radial grids                                 
   RDEPT  =    1.300    core radius for aug-charge                              
   QCUT   =   -5.516; QGAM   =   11.032    optimization parameters              
                                                                                
   Description                                                                  
     l     E      TYP  RCUT    TYP  RCUT                                        
     0   .000     23  1.200                                                     
     0   .000     23  1.200                                                     
     1   .000     23  1.500                                                     
     1  2.500     23  1.500                                                     
     2   .000      7  1.500                                                     
  local pseudopotential read in
  atomic valenz-charges read in
  non local Contribution for L=           0  read in
    real space projection operators read in
  non local Contribution for L=           0  read in
    real space projection operators read in
  non local Contribution for L=           1  read in
    real space projection operators read in
  non local Contribution for L=           1  read in
    real space projection operators read in
    PAW grid and wavefunctions read in
 
   number of l-projection  operators is LMAX  =           4
   number of lm-projection operators is LMMAX =           8
 
 PAW_PBE C 08Apr2002                    :
 energy of atom  1       EATOM= -147.1560
 kinetic energy error for atom=    0.0288 (will be added to EATOM!!)
 
 
 POSCAR: C8                                      
  positions in direct lattice
  No initial velocities read in
 exchange correlation table for  LEXCH =        8
   RHO(1)=    0.500       N(1)  =     2000
   RHO(2)=  100.500       N(2)  =     4000
 


--------------------------------------------------------------------------------------------------------


 ion  position               nearest neighbor table
   1  0.250  0.750  0.250-   2 1.54   4 1.54   6 1.54   8 1.54
   2  0.000  0.000  0.500-   1 1.54   3 1.54   5 1.54   7 1.54
   3  0.250  0.250  0.750-   2 1.54   4 1.54   6 1.54   8 1.54
   4  0.000  0.500  0.000-   1 1.54   3 1.54   5 1.54   7 1.54
   5  0.750  0.750  0.750-   2 1.54   4 1.54   6 1.54   8 1.54
   6  0.500  0.000  0.000-   1 1.54   3 1.54   5 1.54   7 1.54
   7  0.750  0.250  0.250-   2 1.54   4 1.54   6 1.54   8 1.54
   8  0.500  0.500  0.500-   1 1.54   3 1.54   5 1.54   7 1.54
 
  LATTYP: Found a simple cubic cell.
 ALAT       =     3.5539176408
  
  Lattice vectors:
  
 A1 = (   3.5539176408,   0.0000000000,   0.0000000000)
 A2 = (   0.0000000000,   3.5539176408,   0.0000000000)
 A3 = (   0.0000000000,   0.0000000000,   3.5539176408)


Analysis of symmetry for initial positions (statically):
=====================================================================
 Subroutine PRICEL returns following result:
 
  LATTYP: Found a face centered cubic cell.
 ALAT       =     3.5539176408
  
  Lattice vectors:
  
 A1 = (   1.7769588204,   1.7769588204,   0.0000000000)
 A2 = (   1.7769588204,   0.0000000000,  -1.7769588204)
 A3 = (   0.0000000000,   1.7769588204,  -1.7769588204)
 
   4 primitive cells build up your supercell.
 

 Routine SETGRP: Setting up the symmetry group for a 
 simple cubic supercell.


 Subroutine GETGRP returns: Found 48 space group operations
 (whereof 24 operations were pure point group operations)
 out of a pool of 48 trial point group operations.


The static configuration has the point symmetry T_d .
 The point group associated with its full space group is O_h .


Analysis of symmetry for dynamics (positions and initial velocities):
=====================================================================
 Subroutine PRICEL returns following result:
 
  LATTYP: Found a face centered cubic cell.
 ALAT       =     3.5539176408
  
  Lattice vectors:
  
 A1 = (   1.7769588204,   1.7769588204,   0.0000000000)
 A2 = (   1.7769588204,   0.0000000000,  -1.7769588204)
 A3 = (   0.0000000000,   1.7769588204,  -1.7769588204)
 
   4 primitive cells build up your supercell.
 

 Routine SETGRP: Setting up the symmetry group for a 
 simple cubic supercell.


 Subroutine GETGRP returns: Found 48 space group operations
 (whereof 24 operations were pure point group operations)
 out of a pool of 48 trial point group operations.


The dynamic configuration has the point symmetry T_d .
 The point group associated with its full space group is O_h .


 Subroutine INISYM returns: Found 48 space group operations
 (whereof 24 operations are pure point group operations),
 and found     4 'primitive' translations

 
 
 KPOINTS: kpt_density=1000                        

Automatic generation of k-mesh.
Space group operators:
 irot       det(A)        alpha          n_x          n_y          n_z        tau_x        tau_y        tau_z
    1     1.000000     0.000000     1.000000     0.000000     0.000000     0.000000     0.000000     0.000000
    2     1.000000   120.000000    -0.577350    -0.577350    -0.577350     0.000000     0.000000     0.000000
    3     1.000000   120.000000     0.577350     0.577350     0.577350     0.000000     0.000000     0.000000
    4    -1.000000    90.000000     0.000000     0.000000    -1.000000     0.000000     0.000000     0.000000
    5    -1.000000   180.000000     0.000000     0.707107     0.707107     0.000000     0.000000     0.000000
    6    -1.000000    90.000000     0.000000     1.000000     0.000000     0.000000     0.000000     0.000000
    7     1.000000   180.000000     0.000000     0.000000     1.000000     0.000000     0.000000     0.000000
    8     1.000000   120.000000    -0.577350     0.577350     0.577350     0.000000     0.000000     0.000000
    9     1.000000   120.000000    -0.577350     0.577350    -0.577350     0.000000     0.000000     0.000000
   10    -1.000000    90.000000     0.000000     0.000000     1.000000     0.000000     0.000000     0.000000
   11    -1.000000    90.000000    -1.000000     0.000000     0.000000     0.000000     0.000000     0.000000
   12    -1.000000   180.000000     0.707107     0.000000     0.707107     0.000000     0.000000     0.000000
   13     1.000000   120.000000     0.577350    -0.577350     0.577350     0.000000     0.000000     0.000000
   14     1.000000   120.000000    -0.577350    -0.577350     0.577350     0.000000     0.000000     0.000000
   15     1.000000   180.000000     1.000000     0.000000     0.000000     0.000000     0.000000     0.000000
   16    -1.000000    90.000000     0.000000    -1.000000     0.000000     0.000000     0.000000     0.000000
   17    -1.000000   180.000000     0.707107     0.707107     0.000000     0.000000     0.000000     0.000000
   18    -1.000000    90.000000     1.000000     0.000000     0.000000     0.000000     0.000000     0.000000
   19     1.000000   120.000000     0.577350    -0.577350    -0.577350     0.000000     0.000000     0.000000
   20     1.000000   180.000000     0.000000     1.000000     0.000000     0.000000     0.000000     0.000000
   21     1.000000   120.000000     0.577350     0.577350    -0.577350     0.000000     0.000000     0.000000
   22    -1.000000   180.000000     0.000000    -0.707107     0.707107     0.000000     0.000000     0.000000
   23    -1.000000   180.000000     0.707107    -0.707107     0.000000     0.000000     0.000000     0.000000
   24    -1.000000   180.000000     0.707107     0.000000    -0.707107     0.000000     0.000000     0.000000
   25    -1.000000     0.000000     1.000000     0.000000     0.000000     0.750000     0.750000    -0.750000
   26    -1.000000   120.000000    -0.577350    -0.577350    -0.577350     0.750000     0.750000    -0.750000
   27    -1.000000   120.000000     0.577350     0.577350     0.577350     0.750000     0.750000    -0.750000
   28     1.000000    90.000000     0.000000     0.000000    -1.000000     0.750000     0.750000    -0.750000
   29     1.000000   180.000000     0.000000     0.707107     0.707107     0.750000     0.750000    -0.750000
   30     1.000000    90.000000     0.000000     1.000000     0.000000     0.750000     0.750000    -0.750000
   31    -1.000000   180.000000     0.000000     0.000000     1.000000     0.750000     0.750000    -0.750000
   32    -1.000000   120.000000    -0.577350     0.577350     0.577350     0.750000     0.750000    -0.750000
   33    -1.000000   120.000000    -0.577350     0.577350    -0.577350     0.750000     0.750000    -0.750000
   34     1.000000    90.000000     0.000000     0.000000     1.000000     0.750000     0.750000    -0.750000
   35     1.000000    90.000000    -1.000000     0.000000     0.000000     0.750000     0.750000    -0.750000
   36     1.000000   180.000000     0.707107     0.000000     0.707107     0.750000     0.750000    -0.750000
   37    -1.000000   120.000000     0.577350    -0.577350     0.577350     0.750000     0.750000    -0.750000
   38    -1.000000   120.000000    -0.577350    -0.577350     0.577350     0.750000     0.750000    -0.750000
   39    -1.000000   180.000000     1.000000     0.000000     0.000000     0.750000     0.750000    -0.750000
   40     1.000000    90.000000     0.000000    -1.000000     0.000000     0.750000     0.750000    -0.750000
   41     1.000000   180.000000     0.707107     0.707107     0.000000     0.750000     0.750000    -0.750000
   42     1.000000    90.000000     1.000000     0.000000     0.000000     0.750000     0.750000    -0.750000
   43    -1.000000   120.000000     0.577350    -0.577350    -0.577350     0.750000     0.750000    -0.750000
   44    -1.000000   180.000000     0.000000     1.000000     0.000000     0.750000     0.750000    -0.750000
   45    -1.000000   120.000000     0.577350     0.577350    -0.577350     0.750000     0.750000    -0.750000
   46     1.000000   180.000000     0.000000    -0.707107     0.707107     0.750000     0.750000    -0.750000
   47     1.000000   180.000000     0.707107    -0.707107     0.000000     0.750000     0.750000    -0.750000
   48     1.000000   180.000000     0.707107     0.000000    -0.707107     0.750000     0.750000    -0.750000
 
 Subroutine IBZKPT returns following result:
 ===========================================
 
 Found     84 irreducible k-points:
 
 Following reciprocal coordinates:
            Coordinates               Weight
  0.000000  0.000000  0.000000      1.000000
  0.083333  0.000000  0.000000      6.000000
  0.166667  0.000000  0.000000      6.000000
  0.250000  0.000000  0.000000      6.000000
  0.333333  0.000000  0.000000      6.000000
  0.416667  0.000000  0.000000      6.000000
  0.500000  0.000000  0.000000      3.000000
  0.083333  0.083333  0.000000     12.000000
  0.166667  0.083333  0.000000     24.000000
  0.250000  0.083333  0.000000     24.000000
  0.333333  0.083333  0.000000     24.000000
  0.416667  0.083333  0.000000     24.000000
  0.500000  0.083333  0.000000     12.000000
  0.166667  0.166667  0.000000     12.000000
  0.250000  0.166667  0.000000     24.000000
  0.333333  0.166667  0.000000     24.000000
  0.416667  0.166667  0.000000     24.000000
  0.500000  0.166667  0.000000     12.000000
  0.250000  0.250000  0.000000     12.000000
  0.333333  0.250000  0.000000     24.000000
  0.416667  0.250000  0.000000     24.000000
  0.500000  0.250000  0.000000     12.000000
  0.333333  0.333333  0.000000     12.000000
  0.416667  0.333333  0.000000     24.000000
  0.500000  0.333333  0.000000     12.000000
  0.416667  0.416667  0.000000     12.000000
  0.500000  0.416667  0.000000     12.000000
  0.500000  0.500000  0.000000      3.000000
  0.083333  0.083333  0.083333      8.000000
  0.166667  0.083333  0.083333     24.000000
  0.250000  0.083333  0.083333     24.000000
  0.333333  0.083333  0.083333     24.000000
  0.416667  0.083333  0.083333     24.000000
  0.500000  0.083333  0.083333     12.000000
  0.166667  0.166667  0.083333     24.000000
  0.250000  0.166667  0.083333     48.000000
  0.333333  0.166667  0.083333     48.000000
  0.416667  0.166667  0.083333     48.000000
  0.500000  0.166667  0.083333     24.000000
  0.250000  0.250000  0.083333     24.000000
  0.333333  0.250000  0.083333     48.000000
  0.416667  0.250000  0.083333     48.000000
  0.500000  0.250000  0.083333     24.000000
  0.333333  0.333333  0.083333     24.000000
  0.416667  0.333333  0.083333     48.000000
  0.500000  0.333333  0.083333     24.000000
  0.416667  0.416667  0.083333     24.000000
  0.500000  0.416667  0.083333     24.000000
  0.500000  0.500000  0.083333      6.000000
  0.166667  0.166667  0.166667      8.000000
  0.250000  0.166667  0.166667     24.000000
  0.333333  0.166667  0.166667     24.000000
  0.416667  0.166667  0.166667     24.000000
  0.500000  0.166667  0.166667     12.000000
  0.250000  0.250000  0.166667     24.000000
  0.333333  0.250000  0.166667     48.000000
  0.416667  0.250000  0.166667     48.000000
  0.500000  0.250000  0.166667     24.000000
  0.333333  0.333333  0.166667     24.000000
  0.416667  0.333333  0.166667     48.000000
  0.500000  0.333333  0.166667     24.000000
  0.416667  0.416667  0.166667     24.000000
  0.500000  0.416667  0.166667     24.000000
  0.500000  0.500000  0.166667      6.000000
  0.250000  0.250000  0.250000      8.000000
  0.333333  0.250000  0.250000     24.000000
  0.416667  0.250000  0.250000     24.000000
  0.500000  0.250000  0.250000     12.000000
  0.333333  0.333333  0.250000     24.000000
  0.416667  0.333333  0.250000     48.000000
  0.500000  0.333333  0.250000     24.000000
  0.416667  0.416667  0.250000     24.000000
  0.500000  0.416667  0.250000     24.000000
  0.500000  0.500000  0.250000      6.000000
  0.333333  0.333333  0.333333      8.000000
  0.416667  0.333333  0.333333     24.000000
  0.500000  0.333333  0.333333     12.000000
  0.416667  0.416667  0.333333     24.000000
  0.500000  0.416667  0.333333     24.000000
  0.500000  0.500000  0.333333      6.000000
  0.416667  0.416667  0.416667      8.000000
  0.500000  0.416667  0.416667     12.000000
  0.500000  0.500000  0.416667      6.000000
  0.500000  0.500000  0.500000      1.000000
 
 Following cartesian coordinates:
            Coordinates               Weight
  0.000000  0.000000  0.000000      1.000000
  0.023555  0.000000  0.000000      6.000000
  0.047110  0.000000  0.000000      6.000000
  0.070666  0.000000  0.000000      6.000000
  0.094221  0.000000  0.000000      6.000000
  0.117776  0.000000  0.000000      6.000000
  0.141331  0.000000  0.000000      3.000000
  0.023555  0.023555  0.000000     12.000000
  0.047110  0.023555  0.000000     24.000000
  0.070666  0.023555  0.000000     24.000000
  0.094221  0.023555  0.000000     24.000000
  0.117776  0.023555  0.000000     24.000000
  0.141331  0.023555  0.000000     12.000000
  0.047110  0.047110  0.000000     12.000000
  0.070666  0.047110  0.000000     24.000000
  0.094221  0.047110  0.000000     24.000000
  0.117776  0.047110  0.000000     24.000000
  0.141331  0.047110  0.000000     12.000000
  0.070666  0.070666  0.000000     12.000000
  0.094221  0.070666  0.000000     24.000000
  0.117776  0.070666  0.000000     24.000000
  0.141331  0.070666  0.000000     12.000000
  0.094221  0.094221  0.000000     12.000000
  0.117776  0.094221  0.000000     24.000000
  0.141331  0.094221  0.000000     12.000000
  0.117776  0.117776  0.000000     12.000000
  0.141331  0.117776  0.000000     12.000000
  0.141331  0.141331  0.000000      3.000000
  0.023555  0.023555  0.023555      8.000000
  0.047110  0.023555  0.023555     24.000000
  0.070666  0.023555  0.023555     24.000000
  0.094221  0.023555  0.023555     24.000000
  0.117776  0.023555  0.023555     24.000000
  0.141331  0.023555  0.023555     12.000000
  0.047110  0.047110  0.023555     24.000000
  0.070666  0.047110  0.023555     48.000000
  0.094221  0.047110  0.023555     48.000000
  0.117776  0.047110  0.023555     48.000000
  0.141331  0.047110  0.023555     24.000000
  0.070666  0.070666  0.023555     24.000000
  0.094221  0.070666  0.023555     48.000000
  0.117776  0.070666  0.023555     48.000000
  0.141331  0.070666  0.023555     24.000000
  0.094221  0.094221  0.023555     24.000000
  0.117776  0.094221  0.023555     48.000000
  0.141331  0.094221  0.023555     24.000000
  0.117776  0.117776  0.023555     24.000000
  0.141331  0.117776  0.023555     24.000000
  0.141331  0.141331  0.023555      6.000000
  0.047110  0.047110  0.047110      8.000000
  0.070666  0.047110  0.047110     24.000000
  0.094221  0.047110  0.047110     24.000000
  0.117776  0.047110  0.047110     24.000000
  0.141331  0.047110  0.047110     12.000000
  0.070666  0.070666  0.047110     24.000000
  0.094221  0.070666  0.047110     48.000000
  0.117776  0.070666  0.047110     48.000000
  0.141331  0.070666  0.047110     24.000000
  0.094221  0.094221  0.047110     24.000000
  0.117776  0.094221  0.047110     48.000000
  0.141331  0.094221  0.047110     24.000000
  0.117776  0.117776  0.047110     24.000000
  0.141331  0.117776  0.047110     24.000000
  0.141331  0.141331  0.047110      6.000000
  0.070666  0.070666  0.070666      8.000000
  0.094221  0.070666  0.070666     24.000000
  0.117776  0.070666  0.070666     24.000000
  0.141331  0.070666  0.070666     12.000000
  0.094221  0.094221  0.070666     24.000000
  0.117776  0.094221  0.070666     48.000000
  0.141331  0.094221  0.070666     24.000000
  0.117776  0.117776  0.070666     24.000000
  0.141331  0.117776  0.070666     24.000000
  0.141331  0.141331  0.070666      6.000000
  0.094221  0.094221  0.094221      8.000000
  0.117776  0.094221  0.094221     24.000000
  0.141331  0.094221  0.094221     12.000000
  0.117776  0.117776  0.094221     24.000000
  0.141331  0.117776  0.094221     24.000000
  0.141331  0.141331  0.094221      6.000000
  0.117776  0.117776  0.117776      8.000000
  0.141331  0.117776  0.117776     12.000000
  0.141331  0.141331  0.117776      6.000000
  0.141331  0.141331  0.141331      1.000000
 
 TETIRR: Found    854 inequivalent tetrahedra from    10368


--------------------------------------------------------------------------------------------------------




 Dimension of arrays:
   k-points           NKPTS =     84   k-points in BZ     NKDIM =     84   number of bands    NBANDS=     24
   number of dos      NEDOS =    301   number of ions     NIONS =      8
   non local maximal  LDIM  =      4   non local SUM 2l+1 LMDIM =      8
   total plane-waves  NPLWV =  13824
   max r-space proj   IRMAX =      1   max aug-charges    IRDMAX=   3833
   dimension x,y,z NGX =    24 NGY =   24 NGZ =   24
   dimension x,y,z NGXF=    48 NGYF=   48 NGZF=   48
   support grid    NGXF=    48 NGYF=   48 NGZF=   48
   ions per type =               8
   NGX,Y,Z   is equivalent  to a cutoff of  11.23, 11.23, 11.23 a.u.
   NGXF,Y,Z  is equivalent  to a cutoff of  22.45, 22.45, 22.45 a.u.

 SYSTEM =  unknown system                          
 POSCAR =  C8                                      

 Startparameter for this run:
   NWRITE =      2    write-flag & timer
   PREC   = accura    normal or accurate (medium, high low for compatibility)
   ISTART =      0    job   : 0-new  1-cont  2-samecut
   ICHARG =      2    charge: 1-file 2-atom 10-const
   ISPIN  =      1    spin polarized calculation?
   LNONCOLLINEAR =      F non collinear calculations
   LSORBIT =      F    spin-orbit coupling
   INIWAV =      1    electr: 0-lowe 1-rand  2-diag
   LASPH  =      F    aspherical Exc in radial PAW
   METAGGA=      F    non-selfconsistent MetaGGA calc.

 Electronic Relaxation 1
   ENCUT  =  400.0 eV  29.40 Ry    5.42 a.u.   5.80  5.80  5.80*2*pi/ulx,y,z
   ENINI  =  400.0     initial cutoff
   ENAUG  =  644.9 eV  augmentation charge cutoff
   NELM   =     60;   NELMIN=  2; NELMDL= -5     # of ELM steps 
   EDIFF  = 0.1E-05   stopping-criterion for ELM
   LREAL  =      F    real-space projection
   NLSPLINE    = F    spline interpolate recip. space projectors
   LCOMPAT=      F    compatible to vasp.4.4
   GGA_COMPAT  = T    GGA compatible to vasp.4.4-vasp.4.6
   LMAXPAW     = -100 max onsite density
   LMAXMIX     =    2 max onsite mixed and CHGCAR
   VOSKOWN=      0    Vosko Wilk Nusair interpolation
   ROPT   =    0.00000
 Ionic relaxation
   EDIFFG = 0.1E-04   stopping-criterion for IOM
   NSW    =      0    number of steps for IOM
   NBLOCK =      1;   KBLOCK =      1    inner block; outer block 
   IBRION =     -1    ionic relax: 0-MD 1-quasi-New 2-CG
   NFREE  =      0    steps in history (QN), initial steepest desc. (CG)
   ISIF   =      2    stress and relaxation
   IWAVPR =     10    prediction:  0-non 1-charg 2-wave 3-comb
   ISYM   =      2    0-nonsym 1-usesym 2-fastsym
   LCORR  =      T    Harris-Foulkes like correction to forces

   POTIM  = 0.0200    time-step for ionic-motion
   TEIN   =    0.0    initial temperature
   TEBEG  =    0.0;   TEEND  =   0.0 temperature during run
   SMASS  =  -3.00    Nose mass-parameter (am)
   estimated Nose-frequenzy (Omega)   =  0.10E-29 period in steps =****** mass=  -0.289E-27a.u.
   SCALEE = 1.0000    scale energy and forces
   NPACO  =    256;   APACO  = 16.0  distance and # of slots for P.C.
   PSTRESS=    0.0 pullay stress

  Mass of Ions in am
   POMASS =  12.01
  Ionic Valenz
   ZVAL   =   4.00
  Atomic Wigner-Seitz radii
   RWIGS  =  -1.00
  virtual crystal weights 
   VCA    =   1.00
   NELECT =      32.0000    total number of electrons
   NUPDOWN=      -1.0000    fix difference up-down

 DOS related values:
   EMIN   =  10.00;   EMAX   =-10.00  energy-range for DOS
   EFERMI =   0.00
   ISMEAR =    -5;   SIGMA  =   0.06  broadening in eV -4-tet -1-fermi 0-gaus

 Electronic relaxation 2 (details)
   IALGO  =     38    algorithm
   LDIAG  =      T    sub-space diagonalisation (order eigenvalues)
   LSUBROT=      F    optimize rotation matrix (better conditioning)
   TURBO    =      0    0=normal 1=particle mesh
   IRESTART =      0    0=no restart 2=restart with 2 vectors
   NREBOOT  =      0    no. of reboots
   NMIN     =      0    reboot dimension
   EREF     =   0.00    reference energy to select bands
   IMIX   =      4    mixing-type and parameters
     AMIX     =   0.40;   BMIX     =  1.00
     AMIX_MAG =   1.60;   BMIX_MAG =  1.00
     AMIN     =   0.10
     WC   =   100.;   INIMIX=   1;  MIXPRE=   1;  MAXMIX= -45

 Intra band minimization:
   WEIMIN = 0.0000     energy-eigenvalue tresh-hold
   EBREAK =  0.10E-07  absolut break condition
   DEPER  =   0.30     relativ break condition  

   TIME   =   0.40     timestep for ELM

  volume/ion in A,a.u.               =       5.61        37.86
  Fermi-wavevector in a.u.,A,eV,Ry     =   1.462460  2.763650 29.100012  2.138791
  Thomas-Fermi vector in A             =   2.578671
 
 Write flags
   LWAVE        =      F    write WAVECAR
   LDOWNSAMPLE  =      F    k-point downsampling of WAVECAR
   LCHARG       =      F    write CHGCAR
   LVTOT        =      F    write LOCPOT, total local potential
   LVHAR        =      F    write LOCPOT, Hartree potential only
   LELF         =      F    write electronic localiz. function (ELF)
   LORBIT       =      0    0 simple, 1 ext, 2 COOP (PROOUT), +10 PAW based schemes


 Dipole corrections
   LMONO  =      F    monopole corrections only (constant potential shift)
   LDIPOL =      F    correct potential (dipole corrections)
   IDIPOL =      0    1-x, 2-y, 3-z, 4-all directions 
   EPSILON=  1.0000000 bulk dielectric constant

 Exchange correlation treatment:
   GGA     =    --    GGA type
   LEXCH   =     8    internal setting for exchange type
   VOSKOWN=      0    Vosko Wilk Nusair interpolation
   LHFCALC =     F    Hartree Fock is set to
   LHFONE  =     F    Hartree Fock one center treatment
   AEXX    =    0.0000 exact exchange contribution

 Linear response parameters
   LEPSILON=     F    determine dielectric tensor
   LRPA    =     F    only Hartree local field effects (RPA)
   LNABLA  =     F    use nabla operator in PAW spheres
   LVEL    =     F    velocity operator in full k-point grid
   LINTERFAST=   F  fast interpolation
   KINTER  =     0    interpolate to denser k-point grid
   CSHIFT  =0.1000    complex shift for real part using Kramers Kronig
   OMEGAMAX=  -1.0    maximum frequency
   DEG_THRESHOLD= 0.2000000E-02 threshold for treating states as degnerate
   RTIME   =   -0.100 relaxation time in fs
  (WPLASMAI=    0.000 imaginary part of plasma frequency in eV, 0.658/RTIME)
   DFIELD  = 0.0000000 0.0000000 0.0000000 field for delta impulse in time
 
 Orbital magnetization related:
   ORBITALMAG=     F  switch on orbital magnetization
   LCHIMAG   =     F  perturbation theory with respect to B field
   DQ        =  0.001000  dq finite difference perturbation B field
   LLRAUG    =     F  two centre corrections for induced B field



--------------------------------------------------------------------------------------------------------


 Static calculation
 charge density and potential will be updated during run
 non-spin polarized calculation
 Variant of blocked Davidson
 Davidson routine will perform the subspace rotation
 perform sub-space diagonalisation
    after iterative eigenvector-optimisation
 modified Broyden-mixing scheme, WC =      100.0
 initial mixing is a Kerker type mixing with AMIX =  0.4000 and BMIX =      1.0000
 Hartree-type preconditioning will be used
 using additional bands            8
 reciprocal scheme for non local part
 calculate Harris-corrections to forces 
   (improved forces if not selfconsistent)
 use gradient corrections 
 use of overlap-Matrix (Vanderbilt PP)
 Fermi weights with tetrahedron method with Bloechl corrections


--------------------------------------------------------------------------------------------------------


  energy-cutoff  :      400.00
  volume of cell :       44.89
      direct lattice vectors                 reciprocal lattice vectors
     3.553917641  0.000000000  0.000000000     0.281379621  0.000000000  0.000000000
     0.000000000  3.553917641  0.000000000     0.000000000  0.281379621  0.000000000
     0.000000000  0.000000000  3.553917641     0.000000000  0.000000000  0.281379621

  length of vectors
     3.553917641  3.553917641  3.553917641     0.281379621  0.281379621  0.281379621


 
 k-points in units of 2pi/SCALE and weight: kpt_density=1000                        
   0.00000000  0.00000000  0.00000000       0.001
   0.02355518  0.00000000  0.00000000       0.003
   0.04711036  0.00000000  0.00000000       0.003
   0.07066555  0.00000000  0.00000000       0.003
   0.09422073  0.00000000  0.00000000       0.003
   0.11777591  0.00000000  0.00000000       0.003
   0.14133109  0.00000000  0.00000000       0.002
   0.02355518  0.02355518  0.00000000       0.007
   0.04711036  0.02355518  0.00000000       0.014
   0.07066555  0.02355518  0.00000000       0.014
   0.09422073  0.02355518  0.00000000       0.014
   0.11777591  0.02355518  0.00000000       0.014
   0.14133109  0.02355518  0.00000000       0.007
   0.04711036  0.04711036  0.00000000       0.007
   0.07066555  0.04711036  0.00000000       0.014
   0.09422073  0.04711036  0.00000000       0.014
   0.11777591  0.04711036  0.00000000       0.014
   0.14133109  0.04711036  0.00000000       0.007
   0.07066555  0.07066555  0.00000000       0.007
   0.09422073  0.07066555  0.00000000       0.014
   0.11777591  0.07066555  0.00000000       0.014
   0.14133109  0.07066555  0.00000000       0.007
   0.09422073  0.09422073  0.00000000       0.007
   0.11777591  0.09422073  0.00000000       0.014
   0.14133109  0.09422073  0.00000000       0.007
   0.11777591  0.11777591  0.00000000       0.007
   0.14133109  0.11777591  0.00000000       0.007
   0.14133109  0.14133109  0.00000000       0.002
   0.02355518  0.02355518  0.02355518       0.005
   0.04711036  0.02355518  0.02355518       0.014
   0.07066555  0.02355518  0.02355518       0.014
   0.09422073  0.02355518  0.02355518       0.014
   0.11777591  0.02355518  0.02355518       0.014
   0.14133109  0.02355518  0.02355518       0.007
   0.04711036  0.04711036  0.02355518       0.014
   0.07066555  0.04711036  0.02355518       0.028
   0.09422073  0.04711036  0.02355518       0.028
   0.11777591  0.04711036  0.02355518       0.028
   0.14133109  0.04711036  0.02355518       0.014
   0.07066555  0.07066555  0.02355518       0.014
   0.09422073  0.07066555  0.02355518       0.028
   0.11777591  0.07066555  0.02355518       0.028
   0.14133109  0.07066555  0.02355518       0.014
   0.09422073  0.09422073  0.02355518       0.014
   0.11777591  0.09422073  0.02355518       0.028
   0.14133109  0.09422073  0.02355518       0.014
   0.11777591  0.11777591  0.02355518       0.014
   0.14133109  0.11777591  0.02355518       0.014
   0.14133109  0.14133109  0.02355518       0.003
   0.04711036  0.04711036  0.04711036       0.005
   0.07066555  0.04711036  0.04711036       0.014
   0.09422073  0.04711036  0.04711036       0.014
   0.11777591  0.04711036  0.04711036       0.014
   0.14133109  0.04711036  0.04711036       0.007
   0.07066555  0.07066555  0.04711036       0.014
   0.09422073  0.07066555  0.04711036       0.028
   0.11777591  0.07066555  0.04711036       0.028
   0.14133109  0.07066555  0.04711036       0.014
   0.09422073  0.09422073  0.04711036       0.014
   0.11777591  0.09422073  0.04711036       0.028
   0.14133109  0.09422073  0.04711036       0.014
   0.11777591  0.11777591  0.04711036       0.014
   0.14133109  0.11777591  0.04711036       0.014
   0.14133109  0.14133109  0.04711036       0.003
   0.07066555  0.07066555  0.07066555       0.005
   0.09422073  0.07066555  0.07066555       0.014
   0.11777591  0.07066555  0.07066555       0.014
   0.14133109  0.07066555  0.07066555       0.007
   0.09422073  0.09422073  0.07066555       0.014
   0.11777591  0.09422073  0.07066555       0.028
   0.14133109  0.09422073  0.07066555       0.014
   0.11777591  0.11777591  0.07066555       0.014
   0.14133109  0.11777591  0.07066555       0.014
   0.14133109  0.14133109  0.07066555       0.003
   0.09422073  0.09422073  0.09422073       0.005
   0.11777591  0.09422073  0.09422073       0.014
   0.14133109  0.09422073  0.09422073       0.007
   0.11777591  0.11777591  0.09422073       0.014
   0.14133109  0.11777591  0.09422073       0.014
   0.14133109  0.14133109  0.09422073       0.003
   0.11777591  0.11777591  0.11777591       0.005
   0.14133109  0.11777591  0.11777591       0.007
   0.14133109  0.14133109  0.11777591       0.003
   0.14133109  0.14133109  0.14133109       0.001
 
 k-points in reciprocal lattice and weights: kpt_density=1000                        
   0.00000000  0.00000000  0.00000000       0.001
   0.08333333  0.00000000  0.00000000       0.003
   0.16666667  0.00000000  0.00000000       0.003
   0.25000000  0.00000000  0.00000000       0.003
   0.33333333  0.00000000  0.00000000       0.003
   0.41666667  0.00000000  0.00000000       0.003
   0.50000000  0.00000000  0.00000000       0.002
   0.08333333  0.08333333  0.00000000       0.007
   0.16666667  0.08333333  0.00000000       0.014
   0.25000000  0.08333333  0.00000000       0.014
   0.33333333  0.08333333  0.00000000       0.014
   0.41666667  0.08333333  0.00000000       0.014
   0.50000000  0.08333333  0.00000000       0.007
   0.16666667  0.16666667  0.00000000       0.007
   0.25000000  0.16666667  0.00000000       0.014
   0.33333333  0.16666667  0.00000000       0.014
   0.41666667  0.16666667  0.00000000       0.014
   0.50000000  0.16666667  0.00000000       0.007
   0.25000000  0.25000000  0.00000000       0.007
   0.33333333  0.25000000  0.00000000       0.014
   0.41666667  0.25000000  0.00000000       0.014
   0.50000000  0.25000000  0.00000000       0.007
   0.33333333  0.33333333  0.00000000       0.007
   0.41666667  0.33333333  0.00000000       0.014
   0.50000000  0.33333333  0.00000000       0.007
   0.41666667  0.41666667  0.00000000       0.007
   0.50000000  0.41666667  0.00000000       0.007
   0.50000000  0.50000000  0.00000000       0.002
   0.08333333  0.08333333  0.08333333       0.005
   0.16666667  0.08333333  0.08333333       0.014
   0.25000000  0.08333333  0.08333333       0.014
   0.33333333  0.08333333  0.08333333       0.014
   0.41666667  0.08333333  0.08333333       0.014
   0.50000000  0.08333333  0.08333333       0.007
   0.16666667  0.16666667  0.08333333       0.014
   0.25000000  0.16666667  0.08333333       0.028
   0.33333333  0.16666667  0.08333333       0.028
   0.41666667  0.16666667  0.08333333       0.028
   0.50000000  0.16666667  0.08333333       0.014
   0.25000000  0.25000000  0.08333333       0.014
   0.33333333  0.25000000  0.08333333       0.028
   0.41666667  0.25000000  0.08333333       0.028
   0.50000000  0.25000000  0.08333333       0.014
   0.33333333  0.33333333  0.08333333       0.014
   0.41666667  0.33333333  0.08333333       0.028
   0.50000000  0.33333333  0.08333333       0.014
   0.41666667  0.41666667  0.08333333       0.014
   0.50000000  0.41666667  0.08333333       0.014
   0.50000000  0.50000000  0.08333333       0.003
   0.16666667  0.16666667  0.16666667       0.005
   0.25000000  0.16666667  0.16666667       0.014
   0.33333333  0.16666667  0.16666667       0.014
   0.41666667  0.16666667  0.16666667       0.014
   0.50000000  0.16666667  0.16666667       0.007
   0.25000000  0.25000000  0.16666667       0.014
   0.33333333  0.25000000  0.16666667       0.028
   0.41666667  0.25000000  0.16666667       0.028
   0.50000000  0.25000000  0.16666667       0.014
   0.33333333  0.33333333  0.16666667       0.014
   0.41666667  0.33333333  0.16666667       0.028
   0.50000000  0.33333333  0.16666667       0.014
   0.41666667  0.41666667  0.16666667       0.014
   0.50000000  0.41666667  0.16666667       0.014
   0.50000000  0.50000000  0.16666667       0.003
   0.25000000  0.25000000  0.25000000       0.005
   0.33333333  0.25000000  0.25000000       0.014
   0.41666667  0.25000000  0.25000000       0.014
   0.50000000  0.25000000  0.25000000       0.007
   0.33333333  0.33333333  0.25000000       0.014
   0.41666667  0.33333333  0.25000000       0.028
   0.50000000  0.33333333  0.25000000       0.014
   0.41666667  0.41666667  0.25000000       0.014
   0.50000000  0.41666667  0.25000000       0.014
   0.50000000  0.50000000  0.25000000       0.003
   0.33333333  0.33333333  0.33333333       0.005
   0.41666667  0.33333333  0.33333333       0.014
   0.50000000  0.33333333  0.33333333       0.007
   0.41666667  0.41666667  0.33333333       0.014
   0.50000000  0.41666667  0.33333333       0.014
   0.50000000  0.50000000  0.33333333       0.003
   0.41666667  0.41666667  0.41666667       0.005
   0.50000000  0.41666667  0.41666667       0.007
   0.50000000  0.50000000  0.41666667       0.003
   0.50000000  0.50000000  0.50000000       0.001
 
 position of ions in fractional coordinates (direct lattice) 
   0.25000000  0.75000000  0.25000000
   0.00000000  0.00000000  0.50000000
   0.25000000  0.25000000  0.75000000
   0.00000000  0.50000000  0.00000000
   0.75000000  0.75000000  0.75000000
   0.50000000  0.00000000  0.00000000
   0.75000000  0.25000000  0.25000000
   0.50000000  0.50000000  0.50000000
 
 position of ions in cartesian coordinates  (Angst):
   0.88847941  2.66543823  0.88847941
   0.00000000  0.00000000  1.77695882
   0.88847941  0.88847941  2.66543823
   0.00000000  1.77695882  0.00000000
   2.66543823  2.66543823  2.66543823
   1.77695882  0.00000000  0.00000000
   2.66543823  0.88847941  0.88847941
   1.77695882  1.77695882  1.77695882
 


--------------------------------------------------------------------------------------------------------


 k-point  1 :   0.0000 0.0000 0.0000  plane waves:     799
 k-point  2 :   0.0833 0.0000 0.0000  plane waves:     807
 k-point  3 :   0.1667 0.0000 0.0000  plane waves:     807
 k-point  4 :   0.2500 0.0000 0.0000  plane waves:     812
 k-point  5 :   0.3333 0.0000 0.0000  plane waves:     820
 k-point  6 :   0.4167 0.0000 0.0000  plane waves:     816
 k-point  7 :   0.5000 0.0000 0.0000  plane waves:     820
 k-point  8 :   0.0833 0.0833 0.0000  plane waves:     803
 k-point  9 :   0.1667 0.0833 0.0000  plane waves:     809
 k-point 10 :   0.2500 0.0833 0.0000  plane waves:     815
 k-point 11 :   0.3333 0.0833 0.0000  plane waves:     814
 k-point 12 :   0.4167 0.0833 0.0000  plane waves:     823
 k-point 13 :   0.5000 0.0833 0.0000  plane waves:     816
 k-point 14 :   0.1667 0.1667 0.0000  plane waves:     806
 k-point 15 :   0.2500 0.1667 0.0000  plane waves:     810
 k-point 16 :   0.3333 0.1667 0.0000  plane waves:     822
 k-point 17 :   0.4167 0.1667 0.0000  plane waves:     827
 k-point 18 :   0.5000 0.1667 0.0000  plane waves:     812
 k-point 19 :   0.2500 0.2500 0.0000  plane waves:     812
 k-point 20 :   0.3333 0.2500 0.0000  plane waves:     817
 k-point 21 :   0.4167 0.2500 0.0000  plane waves:     819
 k-point 22 :   0.5000 0.2500 0.0000  plane waves:     814
 k-point 23 :   0.3333 0.3333 0.0000  plane waves:     824
 k-point 24 :   0.4167 0.3333 0.0000  plane waves:     817
 k-point 25 :   0.5000 0.3333 0.0000  plane waves:     814
 k-point 26 :   0.4167 0.4167 0.0000  plane waves:     818
 k-point 27 :   0.5000 0.4167 0.0000  plane waves:     812
 k-point 28 :   0.5000 0.5000 0.0000  plane waves:     840
 k-point 29 :   0.0833 0.0833 0.0833  plane waves:     805
 k-point 30 :   0.1667 0.0833 0.0833  plane waves:     808
 k-point 31 :   0.2500 0.0833 0.0833  plane waves:     816
 k-point 32 :   0.3333 0.0833 0.0833  plane waves:     815
 k-point 33 :   0.4167 0.0833 0.0833  plane waves:     817
 k-point 34 :   0.5000 0.0833 0.0833  plane waves:     820
 k-point 35 :   0.1667 0.1667 0.0833  plane waves:     814
 k-point 36 :   0.2500 0.1667 0.0833  plane waves:     813
 k-point 37 :   0.3333 0.1667 0.0833  plane waves:     818
 k-point 38 :   0.4167 0.1667 0.0833  plane waves:     818
 k-point 39 :   0.5000 0.1667 0.0833  plane waves:     814
 k-point 40 :   0.2500 0.2500 0.0833  plane waves:     814
 k-point 41 :   0.3333 0.2500 0.0833  plane waves:     817
 k-point 42 :   0.4167 0.2500 0.0833  plane waves:     820
 k-point 43 :   0.5000 0.2500 0.0833  plane waves:     812
 k-point 44 :   0.3333 0.3333 0.0833  plane waves:     820
 k-point 45 :   0.4167 0.3333 0.0833  plane waves:     816
 k-point 46 :   0.5000 0.3333 0.0833  plane waves:     818
 k-point 47 :   0.4167 0.4167 0.0833  plane waves:     816
 k-point 48 :   0.5000 0.4167 0.0833  plane waves:     818
 k-point 49 :   0.5000 0.5000 0.0833  plane waves:     812
 k-point 50 :   0.1667 0.1667 0.1667  plane waves:     820
 k-point 51 :   0.2500 0.1667 0.1667  plane waves:     815
 k-point 52 :   0.3333 0.1667 0.1667  plane waves:     819
 k-point 53 :   0.4167 0.1667 0.1667  plane waves:     813
 k-point 54 :   0.5000 0.1667 0.1667  plane waves:     800
 k-point 55 :   0.2500 0.2500 0.1667  plane waves:     815
 k-point 56 :   0.3333 0.2500 0.1667  plane waves:     816
 k-point 57 :   0.4167 0.2500 0.1667  plane waves:     813
 k-point 58 :   0.5000 0.2500 0.1667  plane waves:     812
 k-point 59 :   0.3333 0.3333 0.1667  plane waves:     822
 k-point 60 :   0.4167 0.3333 0.1667  plane waves:     813
 k-point 61 :   0.5000 0.3333 0.1667  plane waves:     810
 k-point 62 :   0.4167 0.4167 0.1667  plane waves:     818
 k-point 63 :   0.5000 0.4167 0.1667  plane waves:     816
 k-point 64 :   0.5000 0.5000 0.1667  plane waves:     820
 k-point 65 :   0.2500 0.2500 0.2500  plane waves:     811
 k-point 66 :   0.3333 0.2500 0.2500  plane waves:     819
 k-point 67 :   0.4167 0.2500 0.2500  plane waves:     814
 k-point 68 :   0.5000 0.2500 0.2500  plane waves:     812
 k-point 69 :   0.3333 0.3333 0.2500  plane waves:     814
 k-point 70 :   0.4167 0.3333 0.2500  plane waves:     814
 k-point 71 :   0.5000 0.3333 0.2500  plane waves:     808
 k-point 72 :   0.4167 0.4167 0.2500  plane waves:     817
 k-point 73 :   0.5000 0.4167 0.2500  plane waves:     818
 k-point 74 :   0.5000 0.5000 0.2500  plane waves:     824
 k-point 75 :   0.3333 0.3333 0.3333  plane waves:     814
 k-point 76 :   0.4167 0.3333 0.3333  plane waves:     819
 k-point 77 :   0.5000 0.3333 0.3333  plane waves:     818
 k-point 78 :   0.4167 0.4167 0.3333  plane waves:     815
 k-point 79 :   0.5000 0.4167 0.3333  plane waves:     822
 k-point 80 :   0.5000 0.5000 0.3333  plane waves:     816
 k-point 81 :   0.4167 0.4167 0.4167  plane waves:     822
 k-point 82 :   0.5000 0.4167 0.4167  plane waves:     818
 k-point 83 :   0.5000 0.5000 0.4167  plane waves:     832
 k-point 84 :   0.5000 0.5000 0.5000  plane waves:     840

 maximum and minimum number of plane-waves per node :       222      183

 maximum number of plane-waves:       840
 maximum index in each direction: 
   IXMAX=    5   IYMAX=    5   IZMAX=    5
   IXMIN=   -6   IYMIN=   -6   IZMIN=   -6


 parallel 3D FFT for wavefunctions:
    minimum data exchange during FFTs selected (reduces bandwidth)
 parallel 3D FFT for charge:
    minimum data exchange during FFTs selected (reduces bandwidth)


 total amount of memory used by VASP MPI-rank0    33836. kBytes
=======================================================================

   base      :      30000. kBytes
   nonl-proj :       1166. kBytes
   fftplans  :        345. kBytes
   grid      :        481. kBytes
   one-center:          6. kBytes
   wavefun   :       1838. kBytes
 
     INWAV:  cpu time    0.0004: real time    0.0005
 Broyden mixing: mesh for mixing (old mesh)
   NGX = 11   NGY = 11   NGZ = 11
  (NGX  = 48   NGY  = 48   NGZ  = 48)
  gives a total of   1331 points

 initial charge density was supplied:
 charge density of overlapping atoms calculated
 number of electron      32.0000000 magnetization 
 keeping initial charge density in first step


--------------------------------------------------------------------------------------------------------


 Maximum index for augmentation-charges          285 (set IRDMAX)


--------------------------------------------------------------------------------------------------------


 First call to EWALD:  gamma=   0.499
 Maximum number of real-space cells 3x 3x 3
 Maximum number of reciprocal cells 3x 3x 3

    FEWALD:  cpu time    0.0053: real time    0.0053


--------------------------------------- Iteration      1(   1)  ---------------------------------------


    POTLOK:  cpu time    0.0257: real time    0.0299
    SETDIJ:  cpu time    0.0064: real time    0.0064
     EDDAV:  cpu time    3.7969: real time    3.8053
 BZINTS: Fermi energy: 18.734811; 32.000000 electrons
         Band energy: 125.372703;  BLOECHL correction: -0.127768
       DOS:  cpu time    0.1612: real time    0.1612
    --------------------------------------------
      LOOP:  cpu time    3.9903: real time    4.0029

 eigenvalue-minimisations  :  4040
 total energy-change (2. order) : 0.5763205E+02  (-0.1440737E+04)
 number of electron      32.0000000 magnetization 
 augmentation part       32.0000000 magnetization 

 Free energy of the ion-electron system (eV)
  ---------------------------------------------------
  alpha Z        PSCENC =       116.17422687
  Ewald energy   TEWEN  =     -1396.88097516
  -Hartree energ DENC   =       -69.50886977
  -exchange      EXHF   =         0.00000000
  -V(xc)+E(xc)   XCENC  =       114.66101272
  PAW double counting   =       302.65154477     -311.85538214
  entropy T*S    EENTRO =         0.00000000
  eigenvalues    EBANDS =       125.37270297
  atomic energy  EATOM  =      1177.01779097
  Solvation  Ediel_sol  =         0.00000000
  ---------------------------------------------------
  free energy    TOTEN  =        57.63205124 eV

  energy without entropy =       57.63205124  energy(sigma->0) =       57.63205124


--------------------------------------------------------------------------------------------------------




--------------------------------------- Iteration      1(   2)  ---------------------------------------


     EDDAV:  cpu time    4.6487: real time    4.6496
 BZINTS: Fermi energy:  9.243176; 32.000000 electrons
         Band energy:  -3.565271;  BLOECHL correction:  0.000000
       DOS:  cpu time    0.0446: real time    0.0446
    --------------------------------------------
      LOOP:  cpu time    4.6933: real time    4.6941

 eigenvalue-minimisations  :  5616
 total energy-change (2. order) :-0.1289380E+03  (-0.1226042E+03)
 number of electron      32.0000000 magnetization 
 augmentation part       32.0000000 magnetization 

 Free energy of the ion-electron system (eV)
  ---------------------------------------------------
  alpha Z        PSCENC =       116.17422687
  Ewald energy   TEWEN  =     -1396.88097516
  -Hartree energ DENC   =       -69.50886977
  -exchange      EXHF   =         0.00000000
  -V(xc)+E(xc)   XCENC  =       114.66101272
  PAW double counting   =       302.65154477     -311.85538214
  entropy T*S    EENTRO =         0.00000000
  eigenvalues    EBANDS =        -3.56527132
  atomic energy  EATOM  =      1177.01779097
  Solvation  Ediel_sol  =         0.00000000
  ---------------------------------------------------
  free energy    TOTEN  =       -71.30592305 eV

  energy without entropy =      -71.30592305  energy(sigma->0) =      -71.30592305


--------------------------------------------------------------------------------------------------------




--------------------------------------- Iteration      1(   3)  ---------------------------------------


     EDDAV:  cpu time    4.4009: real time    4.4036
 BZINTS: Fermi energy:  8.506245; 32.000000 electrons
         Band energy:  -7.573256;  BLOECHL correction:  0.000000
       DOS:  cpu time    0.0359: real time    0.0359
    --------------------------------------------
      LOOP:  cpu time    4.4367: real time    4.4395

 eigenvalue-minimisations  :  5176
 total energy-change (2. order) :-0.4007985E+01  (-0.3988775E+01)
 number of electron      32.0000000 magnetization 
 augmentation part       32.0000000 magnetization 

 Free energy of the ion-electron system (eV)
  ---------------------------------------------------
  alpha Z        PSCENC =       116.17422687
  Ewald energy   TEWEN  =     -1396.88097516
  -Hartree energ DENC   =       -69.50886977
  -exchange      EXHF   =         0.00000000
  -V(xc)+E(xc)   XCENC  =       114.66101272
  PAW double counting   =       302.65154477     -311.85538214
  entropy T*S    EENTRO =         0.00000000
  eigenvalues    EBANDS =        -7.57325616
  atomic energy  EATOM  =      1177.01779097
  Solvation  Ediel_sol  =         0.00000000
  ---------------------------------------------------
  free energy    TOTEN  =       -75.31390789 eV

  energy without entropy =      -75.31390789  energy(sigma->0) =      -75.31390789


--------------------------------------------------------------------------------------------------------




--------------------------------------- Iteration      1(   4)  ---------------------------------------


     EDDAV:  cpu time    4.5194: real time    4.5201
 BZINTS: Fermi energy:  8.547616; 32.000000 electrons
         Band energy:  -7.611687;  BLOECHL correction:  0.000000
       DOS:  cpu time    0.0359: real time    0.0359
    --------------------------------------------
      LOOP:  cpu time    4.5553: real time    4.5560

 eigenvalue-minimisations  :  5088
 total energy-change (2. order) :-0.3843112E-01  (-0.3839717E-01)
 number of electron      32.0000000 magnetization 
 augmentation part       32.0000000 magnetization 

 Free energy of the ion-electron system (eV)
  ---------------------------------------------------
  alpha Z        PSCENC =       116.17422687
  Ewald energy   TEWEN  =     -1396.88097516
  -Hartree energ DENC   =       -69.50886977
  -exchange      EXHF   =         0.00000000
  -V(xc)+E(xc)   XCENC  =       114.66101272
  PAW double counting   =       302.65154477     -311.85538214
  entropy T*S    EENTRO =         0.00000000
  eigenvalues    EBANDS =        -7.61168728
  atomic energy  EATOM  =      1177.01779097
  Solvation  Ediel_sol  =         0.00000000
  ---------------------------------------------------
  free energy    TOTEN  =       -75.35233901 eV

  energy without entropy =      -75.35233901  energy(sigma->0) =      -75.35233901


--------------------------------------------------------------------------------------------------------




--------------------------------------- Iteration      1(   5)  ---------------------------------------


     EDDAV:  cpu time    4.3834: real time    4.3842
 BZINTS: Fermi energy:  8.510861; 32.000000 electrons
         Band energy:  -7.612421;  BLOECHL correction:  0.000000
       DOS:  cpu time    0.0359: real time    0.0359
    CHARGE:  cpu time    0.1165: real time    0.1165
    MIXING:  cpu time    0.0016: real time    0.0016
    --------------------------------------------
      LOOP:  cpu time    4.5374: real time    4.5382

 eigenvalue-minimisations  :  5168
 total energy-change (2. order) :-0.7340853E-03  (-0.7337395E-03)
 number of electron      32.0000020 magnetization 
 augmentation part        0.7980617 magnetization 

 Broyden mixing:
  rms(total) = 0.96293E+00    rms(broyden)= 0.96275E+00
  rms(prec ) = 0.22836E+01
  weight for this iteration     100.00

 Free energy of the ion-electron system (eV)
  ---------------------------------------------------
  alpha Z        PSCENC =       116.17422687
  Ewald energy   TEWEN  =     -1396.88097516
  -Hartree energ DENC   =       -69.50886977
  -exchange      EXHF   =         0.00000000
  -V(xc)+E(xc)   XCENC  =       114.66101272
  PAW double counting   =       302.65154477     -311.85538214
  entropy T*S    EENTRO =         0.00000000
  eigenvalues    EBANDS =        -7.61242137
  atomic energy  EATOM  =      1177.01779097
  Solvation  Ediel_sol  =         0.00000000
  ---------------------------------------------------
  free energy    TOTEN  =       -75.35307309 eV

  energy without entropy =      -75.35307309  energy(sigma->0) =      -75.35307309


--------------------------------------------------------------------------------------------------------




--------------------------------------- Iteration      1(   6)  ---------------------------------------


    POTLOK:  cpu time    0.0199: real time    0.0205
    SETDIJ:  cpu time    0.0056: real time    0.0056
     EDDAV:  cpu time    4.0948: real time    4.0951
 BZINTS: Fermi energy:  9.243923; 32.000000 electrons
         Band energy:   8.799107;  BLOECHL correction:  0.000000
       DOS:  cpu time    0.0357: real time    0.0357
    CHARGE:  cpu time    0.1207: real time    0.1207
    MIXING:  cpu time    0.0017: real time    0.0017
    --------------------------------------------
      LOOP:  cpu time    4.2785: real time    4.2794

 eigenvalue-minimisations  :  4536
 total energy-change (2. order) : 0.1963517E+01  (-0.1296110E+00)
 number of electron      32.0000020 magnetization 
 augmentation part        0.7798212 magnetization 

 Broyden mixing:
  rms(total) = 0.52674E+00    rms(broyden)= 0.52672E+00
  rms(prec ) = 0.12326E+01
  weight for this iteration     100.00

 eigenvalues of (default mixing * dielectric matrix)
  average eigenvalue GAMMA=   2.1619
  2.1619

 Free energy of the ion-electron system (eV)
  ---------------------------------------------------
  alpha Z        PSCENC =       116.17422687
  Ewald energy   TEWEN  =     -1396.88097516
  -Hartree energ DENC   =       -84.83673661
  -exchange      EXHF   =         0.00000000
  -V(xc)+E(xc)   XCENC  =       116.09840159
  PAW double counting   =       396.20130555     -405.96267661
  entropy T*S    EENTRO =         0.00000000
  eigenvalues    EBANDS =         8.79910691
  atomic energy  EATOM  =      1177.01779097
  Solvation  Ediel_sol  =         0.00000000
  ---------------------------------------------------
  free energy    TOTEN  =       -73.38955649 eV

  energy without entropy =      -73.38955649  energy(sigma->0) =      -73.38955649


--------------------------------------------------------------------------------------------------------




--------------------------------------- Iteration      1(   7)  ---------------------------------------


    POTLOK:  cpu time    0.0198: real time    0.0202
    SETDIJ:  cpu time    0.0058: real time    0.0058
     EDDAV:  cpu time    4.0607: real time    4.0610
 BZINTS: Fermi energy: 10.043142; 32.000000 electrons
         Band energy:  27.705072;  BLOECHL correction:  0.000000
       DOS:  cpu time    0.0406: real time    0.0406
    CHARGE:  cpu time    0.1128: real time    0.1128
    MIXING:  cpu time    0.0019: real time    0.0019
    --------------------------------------------
      LOOP:  cpu time    4.2416: real time    4.2425

 eigenvalue-minimisations  :  4672
 total energy-change (2. order) : 0.6629355E+00  (-0.1459353E+00)
 number of electron      32.0000019 magnetization 
 augmentation part        0.7601047 magnetization 

 Broyden mixing:
  rms(total) = 0.69951E-01    rms(broyden)= 0.69620E-01
  rms(prec ) = 0.12195E+00
  weight for this iteration     100.00

 eigenvalues of (default mixing * dielectric matrix)
  average eigenvalue GAMMA=   2.2691
  2.0035  2.5347

 Free energy of the ion-electron system (eV)
  ---------------------------------------------------
  alpha Z        PSCENC =       116.17422687
  Ewald energy   TEWEN  =     -1396.88097516
  -Hartree energ DENC   =      -104.40512219
  -exchange      EXHF   =         0.00000000
  -V(xc)+E(xc)   XCENC  =       117.95351302
  PAW double counting   =       523.73328678     -534.02441371
  entropy T*S    EENTRO =         0.00000000
  eigenvalues    EBANDS =        27.70507245
  atomic energy  EATOM  =      1177.01779097
  Solvation  Ediel_sol  =         0.00000000
  ---------------------------------------------------
  free energy    TOTEN  =       -72.72662096 eV

  energy without entropy =      -72.72662096  energy(sigma->0) =      -72.72662096


--------------------------------------------------------------------------------------------------------




--------------------------------------- Iteration      1(   8)  ---------------------------------------


    POTLOK:  cpu time    0.0196: real time    0.0200
    SETDIJ:  cpu time    0.0058: real time    0.0058
     EDDAV:  cpu time    4.4177: real time    4.4181
 BZINTS: Fermi energy: 10.047832; 32.000000 electrons
         Band energy:  28.033108;  BLOECHL correction:  0.000000
       DOS:  cpu time    0.0403: real time    0.0403
    CHARGE:  cpu time    0.1229: real time    0.1229
    MIXING:  cpu time    0.0020: real time    0.0020
    --------------------------------------------
      LOOP:  cpu time    4.6083: real time    4.6091

 eigenvalue-minimisations  :  5160
 total energy-change (2. order) :-0.7556173E-02  (-0.2828329E-02)
 number of electron      32.0000019 magnetization 
 augmentation part        0.7604127 magnetization 

 Broyden mixing:
  rms(total) = 0.80231E-02    rms(broyden)= 0.79175E-02
  rms(prec ) = 0.13940E-01
  weight for this iteration     100.00

 eigenvalues of (default mixing * dielectric matrix)
  average eigenvalue GAMMA=   2.0995
  1.4517  2.6811  2.1658

 Free energy of the ion-electron system (eV)
  ---------------------------------------------------
  alpha Z        PSCENC =       116.17422687
  Ewald energy   TEWEN  =     -1396.88097516
  -Hartree energ DENC   =      -104.92256475
  -exchange      EXHF   =         0.00000000
  -V(xc)+E(xc)   XCENC  =       118.00647119
  PAW double counting   =       533.92407266     -544.08630709
  entropy T*S    EENTRO =         0.00000000
  eigenvalues    EBANDS =        28.03310818
  atomic energy  EATOM  =      1177.01779097
  Solvation  Ediel_sol  =         0.00000000
  ---------------------------------------------------
  free energy    TOTEN  =       -72.73417714 eV

  energy without entropy =      -72.73417714  energy(sigma->0) =      -72.73417714


--------------------------------------------------------------------------------------------------------




--------------------------------------- Iteration      1(   9)  ---------------------------------------


    POTLOK:  cpu time    0.0195: real time    0.0198
    SETDIJ:  cpu time    0.0057: real time    0.0057
     EDDAV:  cpu time    4.1424: real time    4.1428
 BZINTS: Fermi energy: 10.041024; 32.000000 electrons
         Band energy:  27.929335;  BLOECHL correction:  0.000000
       DOS:  cpu time    0.0406: real time    0.0406
    CHARGE:  cpu time    0.1109: real time    0.1109
    MIXING:  cpu time    0.0018: real time    0.0018
    --------------------------------------------
      LOOP:  cpu time    4.3209: real time    4.3215

 eigenvalue-minimisations  :  4800
 total energy-change (2. order) :-0.2111300E-03  (-0.4203534E-04)
 number of electron      32.0000019 magnetization 
 augmentation part        0.7603668 magnetization 

 Broyden mixing:
  rms(total) = 0.28506E-02    rms(broyden)= 0.28428E-02
  rms(prec ) = 0.50254E-02
  weight for this iteration     100.00

 eigenvalues of (default mixing * dielectric matrix)
  average eigenvalue GAMMA=   2.0495
  0.9762  2.7648  2.4609  1.9960

 Free energy of the ion-electron system (eV)
  ---------------------------------------------------
  alpha Z        PSCENC =       116.17422687
  Ewald energy   TEWEN  =     -1396.88097516
  -Hartree energ DENC   =      -104.82436316
  -exchange      EXHF   =         0.00000000
  -V(xc)+E(xc)   XCENC  =       117.99702380
  PAW double counting   =       533.21611553     -543.36354227
  entropy T*S    EENTRO =         0.00000000
  eigenvalues    EBANDS =        27.92933515
  atomic energy  EATOM  =      1177.01779097
  Solvation  Ediel_sol  =         0.00000000
  ---------------------------------------------------
  free energy    TOTEN  =       -72.73438827 eV

  energy without entropy =      -72.73438827  energy(sigma->0) =      -72.73438827


--------------------------------------------------------------------------------------------------------




--------------------------------------- Iteration      1(  10)  ---------------------------------------


    POTLOK:  cpu time    0.0190: real time    0.0194
    SETDIJ:  cpu time    0.0057: real time    0.0057
     EDDAV:  cpu time    4.3138: real time    4.3143
 BZINTS: Fermi energy: 10.039553; 32.000000 electrons
         Band energy:  27.963845;  BLOECHL correction:  0.000000
       DOS:  cpu time    0.0403: real time    0.0403
    CHARGE:  cpu time    0.1186: real time    0.1186
    MIXING:  cpu time    0.0018: real time    0.0018
    --------------------------------------------
      LOOP:  cpu time    4.4992: real time    4.5000

 eigenvalue-minimisations  :  5088
 total energy-change (2. order) :-0.5390736E-04  (-0.4564237E-05)
 number of electron      32.0000019 magnetization 
 augmentation part        0.7603438 magnetization 

 Broyden mixing:
  rms(total) = 0.26602E-03    rms(broyden)= 0.26111E-03
  rms(prec ) = 0.62835E-03
  weight for this iteration     100.00

 eigenvalues of (default mixing * dielectric matrix)
  average eigenvalue GAMMA=   1.9558
  2.9173  2.5545  2.0607  0.9930  1.2537

 Free energy of the ion-electron system (eV)
  ---------------------------------------------------
  alpha Z        PSCENC =       116.17422687
  Ewald energy   TEWEN  =     -1396.88097516
  -Hartree energ DENC   =      -104.86081469
  -exchange      EXHF   =         0.00000000
  -V(xc)+E(xc)   XCENC  =       118.00007710
  PAW double counting   =       532.63047043     -542.77906265
  entropy T*S    EENTRO =         0.00000000
  eigenvalues    EBANDS =        27.96384496
  atomic energy  EATOM  =      1177.01779097
  Solvation  Ediel_sol  =         0.00000000
  ---------------------------------------------------
  free energy    TOTEN  =       -72.73444217 eV

  energy without entropy =      -72.73444217  energy(sigma->0) =      -72.73444217


--------------------------------------------------------------------------------------------------------




--------------------------------------- Iteration      1(  11)  ---------------------------------------


    POTLOK:  cpu time    0.0199: real time    0.0205
    SETDIJ:  cpu time    0.0058: real time    0.0058
     EDDAV:  cpu time    3.5709: real time    3.5712
 BZINTS: Fermi energy: 10.037879; 32.000000 electrons
         Band energy:  27.976093;  BLOECHL correction:  0.000000
       DOS:  cpu time    0.0406: real time    0.0406
    --------------------------------------------
      LOOP:  cpu time    3.6372: real time    3.6381

 eigenvalue-minimisations  :  3688
 total energy-change (2. order) :-0.5888396E-06  (-0.1042561E-06)
 number of electron      32.0000019 magnetization 
 augmentation part        0.7603438 magnetization 

 Free energy of the ion-electron system (eV)
  ---------------------------------------------------
  alpha Z        PSCENC =       116.17422687
  Ewald energy   TEWEN  =     -1396.88097516
  -Hartree energ DENC   =      -104.87361645
  -exchange      EXHF   =         0.00000000
  -V(xc)+E(xc)   XCENC  =       118.00125976
  PAW double counting   =       532.65545519     -542.80467647
  entropy T*S    EENTRO =         0.00000000
  eigenvalues    EBANDS =        27.97609251
  atomic energy  EATOM  =      1177.01779097
  Solvation  Ediel_sol  =         0.00000000
  ---------------------------------------------------
  free energy    TOTEN  =       -72.73444276 eV

  energy without entropy =      -72.73444276  energy(sigma->0) =      -72.73444276


--------------------------------------------------------------------------------------------------------




 average (electrostatic) potential at core
  the test charge radii are     0.6991
  (the norm of the test charge is              1.0000)
       1 -45.2183       2 -45.2183       3 -45.2183       4 -45.2183       5 -45.2183
       6 -45.2183       7 -45.2183       8 -45.2183
 
 
 
 E-fermi :  10.0379     XC(G=0): -13.2775     alpha+bet :-17.8920


 k-point     1 :       0.0000    0.0000    0.0000
  band No.  band energies     occupation 
      1     -11.7101      2.00000
      2      -2.9288      2.00000
      3      -2.9288      2.00000
      4      -2.9288      2.00000
      5      -2.9288      2.00000
      6      -2.9288      2.00000
      7      -2.9288      2.00000
      8       3.5511      2.00000
      9       3.5511      2.00000
     10       3.5511      2.00000
     11       3.5511      2.00000
     12       3.5511      2.00000
     13       3.5511      2.00000
     14       9.9361      2.00000
     15       9.9361      2.00000
     16       9.9361      2.00000
     17      14.6973      0.00000
     18      14.6973      0.00000
     19      14.6973      0.00000
     20      14.6973      0.00000
     21      14.6973      0.00000
     22      14.6973      0.00000
     23      15.5535      0.00000
     24      15.5535      0.00000

 k-point     2 :       0.0833    0.0000    0.0000
  band No.  band energies     occupation 
      1     -11.6455      2.00000
      2      -4.2406      2.00000
      3      -2.8874      2.00000
      4      -2.8874      2.00000
      5      -2.8874      2.00000
      6      -2.8874      2.00000
      7      -1.5554      2.00000
      8       3.4082      2.00000
      9       3.4082      2.00000
     10       3.4082      2.00000
     11       3.4082      2.00000
     12       3.6131      2.00000
     13       3.6131      2.00000
     14       9.6686      2.00000
     15       9.6686      2.00000
     16       9.7777      2.00000
     17      14.3585      0.00000
     18      14.9630      0.00000
     19      14.9630      0.00000
     20      14.9630      0.00000
     21      14.9630      0.00000
     22      15.1896      0.00000
     23      15.5018      0.00000
     24      15.8782      0.00000

 k-point     3 :       0.1667    0.0000    0.0000
  band No.  band energies     occupation 
      1     -11.4518      2.00000
      2      -5.4744      2.00000
      3      -2.7669      2.00000
      4      -2.7669      2.00000
      5      -2.7669      2.00000
      6      -2.7669      2.00000
      7      -0.1425      2.00000
      8       3.0280      2.00000
      9       3.0280      2.00000
     10       3.0280      2.00000
     11       3.0280      2.00000
     12       3.8017      2.00000
     13       3.8017      2.00000
     14       9.0088      2.00000
     15       9.0088      2.00000
     16       9.3126      2.00000
     17      14.1556      0.00000
     18      15.3472      0.00000
     19      15.7138      0.00000
     20      15.7138      0.00000
     21      15.7138      0.00000
     22      15.7138      0.00000
     23      15.8437      0.00000
     24      16.7047      0.00000

 k-point     4 :       0.2500    0.0000    0.0000
  band No.  band energies     occupation 
      1     -11.1298      2.00000
      2      -6.6171      2.00000
      3      -2.5848      2.00000
      4      -2.5848      2.00000
      5      -2.5848      2.00000
      6      -2.5848      2.00000
      7       1.2862      2.00000
      8       2.5234      2.00000
      9       2.5234      2.00000
     10       2.5234      2.00000
     11       2.5234      2.00000
     12       4.1141      2.00000
     13       4.1141      2.00000
     14       8.1796      2.00000
     15       8.1796      2.00000
     16       8.5948      2.00000
     17      14.0732      0.00000
     18      15.1366      0.00000
     19      16.6776      0.00000
     20      16.8331      0.00000
     21      16.8331      0.00000
     22      16.8331      0.00000
     23      16.8331      0.00000
     24      17.8057      0.00000

 k-point     5 :       0.3333    0.0000    0.0000
  band No.  band energies     occupation 
      1     -10.6806      2.00000
      2      -7.6586      2.00000
      3      -2.3743      2.00000
      4      -2.3743      2.00000
      5      -2.3743      2.00000
      6      -2.3743      2.00000
      7       2.0204      2.00000
      8       2.0204      2.00000
      9       2.0204      2.00000
     10       2.0204      2.00000
     11       2.7033      2.00000
     12       4.5487      2.00000
     13       4.5487      2.00000
     14       7.3177      2.00000
     15       7.3177      2.00000
     16       7.6706      2.00000
     17      14.0966      0.00000
     18      14.8818      0.00000
     19      17.6986      0.00000
     20      18.1945      0.00000
     21      18.1945      0.00000
     22      18.1945      0.00000
     23      18.1945      0.00000
     24      19.0403      0.00000

 k-point     6 :       0.4167    0.0000    0.0000
  band No.  band energies     occupation 
      1     -10.1060      2.00000
      2      -8.5911      2.00000
      3      -2.1942      2.00000
      4      -2.1942      2.00000
      5      -2.1942      2.00000
      6      -2.1942      2.00000
      7       1.6426      2.00000
      8       1.6426      2.00000
      9       1.6426      2.00000
     10       1.6426      2.00000
     11       4.0775      2.00000
     12       5.0962      2.00000
     13       5.0962      2.00000
     14       6.4974      2.00000
     15       6.4974      2.00000
     16       6.5904      2.00000
     17      14.2045      0.00000
     18      14.6232      0.00000
     19      18.8987      0.00000
     20      19.6487      0.00000
     21      19.6487      0.00000
     22      19.6487      0.00000
     23      19.6507      0.00000
     24      20.3351      0.00000

 k-point     7 :       0.5000    0.0000    0.0000
  band No.  band energies     occupation 
      1      -9.4084      2.00000
      2      -9.4084      2.00000
      3      -2.1208      2.00000
      4      -2.1208      2.00000
      5      -2.1208      2.00000
      6      -2.1208      2.00000
      7       1.4981      2.00000
      8       1.4981      2.00000
      9       1.4981      2.00000
     10       1.4981      2.00000
     11       5.3829      2.00000
     12       5.3829      2.00000
     13       5.7501      2.00000
     14       5.7501      2.00000
     15       5.7501      2.00000
     16       5.7501      2.00000
     17      14.3901      0.00000
     18      14.3901      0.00000
     19      20.2378      0.00000
     20      20.2378      0.00000
     21      20.6042      0.00000
     22      20.6042      0.00000
     23      20.6042      0.00000
     24      20.6042      0.00000

 k-point     8 :       0.0833    0.0833    0.0000
  band No.  band energies     occupation 
      1     -11.5809      2.00000
      2      -4.1909      2.00000
      3      -4.1909      2.00000
      4      -2.8818      2.00000
      5      -2.8131      2.00000
      6      -1.5275      2.00000
      7      -1.5275      2.00000
      8       2.9172      2.00000
      9       3.4585      2.00000
     10       3.4585      2.00000
     11       3.4894      2.00000
     12       3.4894      2.00000
     13       3.6592      2.00000
     14       9.2192      2.00000
     15       9.4112      2.00000
     16       9.8568      2.00000
     17      14.6312      0.00000
     18      14.6312      0.00000
     19      14.8024      0.00000
     20      15.4453      0.00000
     21      15.4453      0.00000
     22      15.6146      0.00000
     23      15.6856      0.00000
     24      15.9607      0.00000

 k-point     9 :       0.1667    0.0833    0.0000
  band No.  band energies     occupation 
      1     -11.3874      2.00000
      2      -5.4198      2.00000
      3      -4.0449      2.00000
      4      -2.8127      2.00000
      5      -2.6563      2.00000
      6      -1.4512      2.00000
      7      -0.1373      2.00000
      8       2.2984      2.00000
      9       3.0429      2.00000
     10       3.1632      2.00000
     11       3.6250      2.00000
     12       3.6369      2.00000
     13       3.7056      2.00000
     14       8.4729      2.00000
     15       8.7695      2.00000
     16       9.5826      2.00000
     17      14.4329      0.00000
     18      15.1697      0.00000
     19      15.3959      0.00000
     20      15.6115      0.00000
     21      16.0912      0.00000
     22      16.1741      0.00000
     23      16.6491      0.00000
     24      16.7011      0.00000

 k-point    10 :       0.2500    0.0833    0.0000
  band No.  band energies     occupation 
      1     -11.0656      2.00000
      2      -6.5593      2.00000
      3      -3.8117      2.00000
      4      -2.7123      2.00000
      5      -2.4228      2.00000
      6      -1.3560      2.00000
      7       1.2491      2.00000
      8       1.6805      2.00000
      9       2.4795      2.00000
     10       2.7509      2.00000
     11       3.3557      2.00000
     12       3.9414      2.00000
     13       4.0649      2.00000
     14       7.6090      2.00000
     15       7.9574      2.00000
     16       8.9808      2.00000
     17      14.3537      0.00000
     18      15.4069      0.00000
     19      16.0076      0.00000
     20      16.5354      0.00000
     21      16.9127      0.00000
     22      17.2620      0.00000
     23      17.7901      0.00000
     24      17.8262      0.00000

 k-point    11 :       0.3333    0.0833    0.0000
  band No.  band energies     occupation 
      1     -10.6168      2.00000
      2      -7.5986      2.00000
      3      -3.5101      2.00000
      4      -2.6413      2.00000
      5      -2.1304      2.00000
      6      -1.2960      2.00000
      7       1.1909      2.00000
      8       1.8879      2.00000
      9       2.3933      2.00000
     10       2.5846      2.00000
     11       2.9634      2.00000
     12       4.3671      2.00000
     13       4.5824      2.00000
     14       6.7094      2.00000
     15       7.1088      2.00000
     16       8.1539      2.00000
     17      14.3788      0.00000
     18      15.1603      0.00000
     19      17.1919      0.00000
     20      17.9193      0.00000
     21      17.9280      0.00000
     22      18.5718      0.00000
     23      18.9679      0.00000
     24      19.0270      0.00000

 k-point    12 :       0.4167    0.0833    0.0000
  band No.  band energies     occupation 
      1     -10.0427      2.00000
      2      -8.5296      2.00000
      3      -3.1767      2.00000
      4      -2.6803      2.00000
      5      -1.8126      2.00000
      6      -1.3410      2.00000
      7       0.9508      2.00000
      8       1.3700      2.00000
      9       2.2183      2.00000
     10       2.5699      2.00000
     11       3.8027      2.00000
     12       4.9078      2.00000
     13       5.2862      2.00000
     14       5.8024      2.00000
     15       6.2958      2.00000
     16       7.1828      2.00000
     17      14.4882      0.00000
     18      14.9037      0.00000
     19      18.5734      0.00000
     20      19.1028      0.00000
     21      19.4523      0.00000
     22      19.8469      0.00000
     23      20.1808      0.00000
     24      20.3179      0.00000

 k-point    13 :       0.5000    0.0833    0.0000
  band No.  band energies     occupation 
      1      -9.3458      2.00000
      2      -9.3458      2.00000
      3      -2.8732      2.00000
      4      -2.8732      2.00000
      5      -1.5258      2.00000
      6      -1.5258      2.00000
      7       1.0252      2.00000
      8       1.0252      2.00000
      9       2.2897      2.00000
     10       2.2897      2.00000
     11       4.8605      2.00000
     12       4.8605      2.00000
     13       5.5561      2.00000
     14       5.5561      2.00000
     15       6.1840      2.00000
     16       6.1840      2.00000
     17      14.6725      0.00000
     18      14.6725      0.00000
     19      19.8745      0.00000
     20      19.8745      0.00000
     21      20.4236      0.00000
     22      20.4236      0.00000
     23      20.9022      0.00000
     24      20.9051      0.00000

 k-point    14 :       0.1667    0.1667    0.0000
  band No.  band energies     occupation 
      1     -11.1943      2.00000
      2      -5.2576      2.00000
      3      -5.2576      2.00000
      4      -2.8252      2.00000
      5      -2.4666      2.00000
      6      -0.1366      2.00000
      7      -0.1366      2.00000
      8       1.5652      2.00000
      9       3.1962      2.00000
     10       3.1962      2.00000
     11       3.4652      2.00000
     12       3.4652      2.00000
     13       3.9793      2.00000
     14       7.6629      2.00000
     15       8.1645      2.00000
     16       9.6060      2.00000
     17      15.1139      0.00000
     18      15.2082      0.00000
     19      15.2082      0.00000
     20      16.0768      0.00000
     21      16.7935      0.00000
     22      16.7935      0.00000
     23      16.8970      0.00000
     24      17.2450      0.00000

 k-point    15 :       0.2500    0.1667    0.0000
  band No.  band energies     occupation 
      1     -10.8733      2.00000
      2      -6.3868      2.00000
      3      -4.9934      2.00000
      4      -2.8652      2.00000
      5      -2.1959      2.00000
      6      -0.1862      2.00000
      7       0.9600      2.00000
      8       1.1184      2.00000
      9       2.5949      2.00000
     10       3.2015      2.00000
     11       3.4798      2.00000
     12       3.9631      2.00000
     13       4.0502      2.00000
     14       6.7799      2.00000
     15       7.3827      2.00000
     16       9.2470      2.00000
     17      15.1348      0.00000
     18      15.5755      0.00000
     19      16.0852      0.00000
     20      16.3584      0.00000
     21      17.5798      0.00000
     22      17.7809      0.00000
     23      17.8402      0.00000
     24      17.9182      0.00000

 k-point    16 :       0.3333    0.1667    0.0000
  band No.  band energies     occupation 
      1     -10.4256      2.00000
      2      -7.4192      2.00000
      3      -4.6384      2.00000
      4      -3.0167      2.00000
      5      -1.8515      2.00000
      6      -0.3458      2.00000
      7       0.6109      2.00000
      8       1.9473      2.00000
      9       2.2503      2.00000
     10       3.0504      2.00000
     11       3.8849      2.00000
     12       3.8882      2.00000
     13       4.6875      2.00000
     14       5.8838      2.00000
     15       6.5586      2.00000
     16       8.5716      2.00000
     17      15.1612      0.00000
     18      15.8887      0.00000
     19      16.4858      0.00000
     20      17.7603      0.00000
     21      18.5442      0.00000
     22      18.7869      0.00000
     23      18.9778      0.00000
     24      19.0550      0.00000

 k-point    17 :       0.4167    0.1667    0.0000
  band No.  band energies     occupation 
      1      -9.8531      2.00000
      2      -8.3455      2.00000
      3      -4.2131      2.00000
      4      -3.3280      2.00000
      5      -1.4519      2.00000
      6      -0.6398      2.00000
      7       0.5903      2.00000
      8       1.3449      2.00000
      9       3.0878      2.00000
     10       3.2360      2.00000
     11       3.5959      2.00000
     12       4.4129      2.00000
     13       5.0017      2.00000
     14       5.6177      2.00000
     15       5.7665      2.00000
     16       7.6758      2.00000
     17      15.2677      0.00000
     18      15.6617      0.00000
     19      17.7066      0.00000
     20      19.3038      0.00000
     21      19.6762      0.00000
     22      19.7921      0.00000
     23      19.8753      0.00000
     24      20.2847      0.00000

 k-point    18 :       0.5000    0.1667    0.0000
  band No.  band energies     occupation 
      1      -9.1584      2.00000
      2      -9.1584      2.00000
      3      -3.7547      2.00000
      4      -3.7547      2.00000
      5      -1.0302      2.00000
      6      -1.0302      2.00000
      7       0.8654      2.00000
      8       0.8654      2.00000
      9       3.2973      2.00000
     10       3.2973      2.00000
     11       4.1308      2.00000
[...]

 k-point    72 :       0.4167    0.4167    0.2500
  band No.  band energies     occupation 
      1      -7.9989      2.00000
      2      -6.5976      2.00000
      3      -6.5976      2.00000
      4      -5.4675      2.00000
      5      -2.7218      2.00000
      6      -1.6289      2.00000
      7      -1.6289      2.00000
      8      -0.2805      2.00000
      9       4.3954      2.00000
     10       5.1720      2.00000
     11       5.1720      2.00000
     12       6.2774      2.00000
     13       6.2931      2.00000
     14       6.4738      2.00000
     15       6.4738      2.00000
     16       7.5643      2.00000
     17      17.5070      0.00000
     18      18.0333      0.00000
     19      18.0333      0.00000
     20      18.3827      0.00000
     21      18.5866      0.00000
     22      19.1235      0.00000
     23      19.1235      0.00000
     24      19.3224      0.00000

 k-point    73 :       0.5000    0.4167    0.2500
  band No.  band energies     occupation 
      1      -7.3443      2.00000
      2      -7.3443      2.00000
      3      -6.0290      2.00000
      4      -6.0290      2.00000
      5      -2.2852      2.00000
      6      -2.2852      2.00000
      7      -1.0178      2.00000
      8      -1.0178      2.00000
      9       4.8021      2.00000
     10       4.8021      2.00000
     11       5.7529      2.00000
     12       5.7529      2.00000
     13       6.5117      2.00000
     14       6.5117      2.00000
     15       7.1479      2.00000
     16       7.1479      2.00000
     17      18.0226      0.00000
     18      18.0226      0.00000
     19      18.2895      0.00000
     20      18.2895      0.00000
     21      18.7663      0.00000
     22      18.7663      0.00000
     23      19.3506      0.00000
     24      19.3507      0.00000

 k-point    74 :       0.5000    0.5000    0.2500
  band No.  band energies     occupation 
      1      -6.7187      2.00000
      2      -6.7187      2.00000
      3      -6.7187      2.00000
      4      -6.7187      2.00000
      5      -1.7279      2.00000
      6      -1.7279      2.00000
      7      -1.7279      2.00000
      8      -1.7279      2.00000
      9       5.2938      2.00000
     10       5.2938      2.00000
     11       5.2938      2.00000
     12       5.2938      2.00000
     13       6.9808      2.00000
     14       6.9808      2.00000
     15       6.9808      2.00000
     16       6.9808      2.00000
     17      18.1875      0.00000
     18      18.1875      0.00000
     19      18.1875      0.00000
     20      18.1875      0.00000
     21      19.1546      0.00000
     22      19.1546      0.00000
     23      19.1547      0.00000
     24      19.1547      0.00000

 k-point    75 :       0.3333    0.3333    0.3333
  band No.  band energies     occupation 
      1      -8.6705      2.00000
      2      -5.9054      2.00000
      3      -5.9054      2.00000
      4      -5.9054      2.00000
      5      -2.1965      2.00000
      6      -2.1965      2.00000
      7      -2.1965      2.00000
      8       0.4699      2.00000
      9       4.8882      2.00000
     10       4.8882      2.00000
     11       4.8882      2.00000
     12       5.9098      2.00000
     13       5.9098      2.00000
     14       5.9098      2.00000
     15       7.5777      2.00000
     16       7.5777      2.00000
     17      17.0663      0.00000
     18      17.0663      0.00000
     19      17.0663      0.00000
     20      18.2550      0.00000
     21      18.2550      0.00000
     22      18.6085      0.00000
     23      20.7356      0.00000
     24      20.7357      0.00000

 k-point    76 :       0.4167    0.3333    0.3333
  band No.  band energies     occupation 
      1      -8.1218      2.00000
      2      -6.7153      2.00000
      3      -5.5763      2.00000
      4      -5.5763      2.00000
      5      -2.8445      2.00000
      6      -2.8445      2.00000
      7      -1.7404      2.00000
      8      -0.3817      2.00000
      9       5.1006      2.00000
     10       5.1006      2.00000
     11       6.0034      2.00000
     12       6.1318      2.00000
     13       6.1318      2.00000
     14       6.2838      2.00000
     15       7.1471      2.00000
     16       7.4498      2.00000
     17      17.4126      0.00000
     18      17.6044      0.00000
     19      17.6044      0.00000
     20      18.0429      0.00000
     21      18.7079      0.00000
     22      18.8773      0.00000
     23      19.7672      0.00000
     24      19.7697      0.00000

 k-point    77 :       0.5000    0.3333    0.3333
  band No.  band energies     occupation 
      1      -7.4650      2.00000
      2      -7.4650      2.00000
      3      -5.4190      2.00000
      4      -5.4190      2.00000
      5      -3.1096      2.00000
      6      -3.1096      2.00000
      7      -1.1251      2.00000
      8      -1.1251      2.00000
      9       5.1729      2.00000
     10       5.1729      2.00000
     11       6.2064      2.00000
     12       6.2064      2.00000
     13       6.7057      2.00000
     14       6.7057      2.00000
     15       6.8948      2.00000
     16       6.8948      2.00000
     17      17.7549      0.00000
     18      17.7549      0.00000
     19      18.1640      0.00000
     20      18.1640      0.00000
     21      19.0154      0.00000
     22      19.0155      0.00000
     23      19.2859      0.00000
     24      19.2896      0.00000

 k-point    78 :       0.4167    0.4167    0.3333
  band No.  band energies     occupation 
      1      -7.5873      2.00000
      2      -6.2605      2.00000
      3      -6.2605      2.00000
      4      -5.5323      2.00000
      5      -3.2251      2.00000
      6      -2.5134      2.00000
      7      -2.5134      2.00000
      8      -1.2264      2.00000
      9       5.5183      2.00000
     10       5.9882      2.00000
     11       5.9882      2.00000
     12       6.5011      2.00000
     13       6.5765      2.00000
     14       6.5765      2.00000
     15       6.9398      2.00000
     16       7.4130      2.00000
     17      17.7749      0.00000
     18      17.9120      0.00000
     19      17.9120      0.00000
     20      18.3261      0.00000
     21      18.5442      0.00000
     22      18.9222      0.00000
     23      19.1925      0.00000
     24      19.1928      0.00000

 k-point    79 :       0.5000    0.4167    0.3333
  band No.  band energies     occupation 
      1      -6.9567      2.00000
      2      -6.9567      2.00000
      3      -5.8084      2.00000
      4      -5.8084      2.00000
      5      -3.0674      2.00000
      6      -3.0674      2.00000
      7      -1.9486      2.00000
      8      -1.9486      2.00000
      9       5.8032      2.00000
     10       5.8032      2.00000
     11       6.5425      2.00000
     12       6.5425      2.00000
     13       6.6709      2.00000
     14       6.6709      2.00000
     15       7.1042      2.00000
     16       7.1042      2.00000
     17      18.1913      0.00000
     18      18.1913      0.00000
     19      18.1956      0.00000
     20      18.1956      0.00000
     21      18.7798      0.00000
     22      18.7799      0.00000
     23      18.9229      0.00000
     24      18.9229      0.00000

 k-point    80 :       0.5000    0.5000    0.3333
  band No.  band energies     occupation 
      1      -6.3794      2.00000
      2      -6.3794      2.00000
      3      -6.3794      2.00000
      4      -6.3794      2.00000
      5      -2.6221      2.00000
      6      -2.6221      2.00000
      7      -2.6221      2.00000
      8      -2.6221      2.00000
      9       6.2255      2.00000
     10       6.2255      2.00000
     11       6.2255      2.00000
     12       6.2255      2.00000
     13       7.0371      2.00000
     14       7.0371      2.00000
     15       7.0371      2.00000
     16       7.0371      2.00000
     17      18.3360      0.00000
     18      18.3360      0.00000
     19      18.3360      0.00000
     20      18.3360      0.00000
     21      18.7809      0.00000
     22      18.7809      0.00000
     23      18.7809      0.00000
     24      18.7809      0.00000

 k-point    81 :       0.4167    0.4167    0.4167
  band No.  band energies     occupation 
      1      -7.0769      2.00000
      2      -5.9227      2.00000
      3      -5.9227      2.00000
      4      -5.9227      2.00000
      5      -3.1853      2.00000
      6      -3.1853      2.00000
      7      -3.1853      2.00000
      8      -2.0576      2.00000
      9       6.4396      2.00000
     10       6.4396      2.00000
     11       6.4396      2.00000
     12       6.7399      2.00000
     13       6.7399      2.00000
     14       6.7399      2.00000
     15       7.2151      2.00000
     16       7.2151      2.00000
     17      18.0469      0.00000
     18      18.0469      0.00000
     19      18.0469      0.00000
     20      18.4115      0.00000
     21      18.4115      0.00000
     22      18.8344      0.00000
     23      19.0773      0.00000
     24      19.0773      0.00000

 k-point    82 :       0.5000    0.4167    0.4167
  band No.  band energies     occupation 
      1      -6.4968      2.00000
      2      -6.4968      2.00000
      3      -5.7598      2.00000
      4      -5.7598      2.00000
      5      -3.4602      2.00000
      6      -3.4602      2.00000
      7      -2.7366      2.00000
      8      -2.7366      2.00000
      9       6.5273      2.00000
     10       6.5273      2.00000
     11       6.8678      2.00000
     12       6.8678      2.00000
     13       6.9856      2.00000
     14       6.9856      2.00000
     15       7.0406      2.00000
     16       7.0406      2.00000
     17      18.2670      0.00000
     18      18.2670      0.00000
     19      18.3216      0.00000
     20      18.3216      0.00000
     21      18.6670      0.00000
     22      18.6672      0.00000
     23      18.6802      0.00000
     24      18.6804      0.00000

 k-point    83 :       0.5000    0.5000    0.4167
  band No.  band energies     occupation 
      1      -6.0387      2.00000
      2      -6.0387      2.00000
      3      -6.0387      2.00000
      4      -6.0387      2.00000
      5      -3.3013      2.00000
      6      -3.3013      2.00000
      7      -3.3013      2.00000
      8      -3.3013      2.00000
      9       6.8644      2.00000
     10       6.8644      2.00000
     11       6.8644      2.00000
     12       6.8644      2.00000
     13       7.0777      2.00000
     14       7.0777      2.00000
     15       7.0777      2.00000
     16       7.0777      2.00000
     17      18.4192      0.00000
     18      18.4192      0.00000
     19      18.4192      0.00000
     20      18.4193      0.00000
     21      18.5193      0.00000
     22      18.5193      0.00000
     23      18.5193      0.00000
     24      18.5196      0.00000

 k-point    84 :       0.5000    0.5000    0.5000
  band No.  band energies     occupation 
      1      -5.8739      2.00000
      2      -5.8739      2.00000
      3      -5.8739      2.00000
      4      -5.8739      2.00000
      5      -3.5796      2.00000
      6      -3.5796      2.00000
      7      -3.5796      2.00000
      8      -3.5796      2.00000
      9       7.0927      2.00000
     10       7.0927      2.00000
     11       7.0927      2.00000
     12       7.0927      2.00000
     13       7.0927      2.00000
     14       7.0927      2.00000
     15       7.0927      2.00000
     16       7.0927      2.00000
     17      18.4274      0.00000
     18      18.4274      0.00000
     19      18.4274      0.00000
     20      18.4274      0.00000
     21      18.4274      0.00000
     22      18.4274      0.00000
     23      18.4275      0.00000
     24      18.4280      0.00000


--------------------------------------------------------------------------------------------------------


 soft charge-density along one line, spin component           1
         0         1         2         3         4         5         6         7         8         9
 total charge-density along one line
 
 pseudopotential strength for first ion, spin component:           1
  9.430  -0.005   0.000   0.000   0.000  -0.000  -0.000  -0.000
 -0.005  -0.002  -0.000  -0.000  -0.000  -0.000  -0.000  -0.000
  0.000  -0.000  -3.650   0.000  -0.000  -0.009   0.000  -0.000
  0.000  -0.000   0.000  -3.650   0.000   0.000  -0.009   0.000
  0.000  -0.000  -0.000   0.000  -3.650  -0.000   0.000  -0.009
 -0.000  -0.000  -0.009   0.000  -0.000  -0.757   0.000  -0.000
 -0.000  -0.000   0.000  -0.009   0.000   0.000  -0.757   0.000
 -0.000  -0.000  -0.000   0.000  -0.009  -0.000   0.000  -0.757
 total augmentation occupancy for first ion, spin component:           1
  1.425  -1.052   0.000   0.000  -0.000   0.000   0.000  -0.000
 -1.052   1.060  -0.000   0.000   0.000  -0.000  -0.000  -0.000
 -0.000  -0.000   1.106  -0.000  -0.000   0.187  -0.000  -0.000
  0.000  -0.000  -0.000   1.106   0.000  -0.000   0.187  -0.000
 -0.000  -0.000  -0.000  -0.000   1.106   0.000   0.000   0.187
  0.000  -0.000   0.187   0.000   0.000   0.037   0.000   0.000
  0.000  -0.000  -0.000   0.187  -0.000  -0.000   0.037  -0.000
 -0.000   0.000  -0.000   0.000   0.187  -0.000  -0.000   0.037


------------------------ aborting loop because EDIFF is reached ----------------------------------------


    CHARGE:  cpu time    0.1208: real time    0.1208
    FORLOC:  cpu time    0.0021: real time    0.0021
    FORNL :  cpu time    0.1838: real time    0.1838
    STRESS:  cpu time    0.4372: real time    0.4374
    FORHAR:  cpu time    0.0053: real time    0.0053
    MIXING:  cpu time    0.0020: real time    0.0020
    OFIELD:  cpu time    0.0001: real time    0.0001

  FORCE on cell =-STRESS in cart. coord.  units (eV):
  Direction    XX          YY          ZZ          XY          YZ          ZX
  --------------------------------------------------------------------------------------
  Alpha Z   116.17423   116.17423   116.17423
  Ewald    -465.62779  -465.62779  -465.62779    -0.00000     0.00000    -0.00000
  Hartree    34.95715    34.95715    34.95715    -0.00000    -0.00000    -0.00000
  E(xc)    -120.01417  -120.01417  -120.01417     0.00000     0.00000     0.00000
  Local     -45.90248   -45.90248   -45.90248    -0.00000    -0.00000     0.00000
  n-local   -28.50909   -29.30131   -28.79378     0.66258     0.80179     0.38321
  augment    -2.89018    -2.89018    -2.89018     0.00000     0.00000     0.00000
  Kinetic   501.76628   517.88188   519.50318    -4.67147    -6.50974    -3.24507
  Fock        0.00000     0.00000     0.00000     0.00000     0.00000     0.00000
  -------------------------------------------------------------------------------------
  Total       0.87915     0.87915     0.87915     0.00000     0.00000    -0.00000
  in kB      31.37991    31.37991    31.37991     0.00000     0.00000    -0.00000
  external pressure =       31.38 kB  Pullay stress =        0.00 kB


 VOLUME and BASIS-vectors are now :
 -----------------------------------------------------------------------------
  energy-cutoff  :      400.00
  volume of cell :       44.89
      direct lattice vectors                 reciprocal lattice vectors
     3.553917641  0.000000000  0.000000000     0.281379621  0.000000000  0.000000000
     0.000000000  3.553917641  0.000000000     0.000000000  0.281379621  0.000000000
     0.000000000  0.000000000  3.553917641     0.000000000  0.000000000  0.281379621

  length of vectors
     3.553917641  3.553917641  3.553917641     0.281379621  0.281379621  0.281379621


 FORCES acting on ions
    electron-ion (+dipol)            ewald-force                    non-local-force                 convergence-correction
 -----------------------------------------------------------------------------------------------
   0.800E-14 -.153E-12 -.268E-13   0.213E-13 0.711E-14 0.000E+00   0.739E-17 -.244E-16 0.440E-16   -.194E-14 0.281E-14 0.487E-15
   0.800E-14 -.398E-14 -.141E-13   0.136E-13 0.143E-13 -.710E-14   -.205E-16 0.281E-17 -.399E-16   -.315E-14 0.606E-15 0.137E-13
   0.800E-14 -.171E-12 -.914E-14   0.711E-14 -.711E-14 -.711E-14   0.150E-16 -.796E-17 0.599E-16   -.227E-14 0.381E-14 -.300E-15
   0.800E-14 0.199E-13 -.324E-13   0.331E-15 0.264E-16 -.149E-13   -.345E-16 0.986E-18 -.376E-16   -.224E-14 0.123E-14 0.123E-13
   0.240E-13 0.205E-12 0.358E-12   0.711E-14 0.000E+00 0.142E-13   0.213E-16 0.676E-17 0.394E-16   0.325E-14 0.315E-14 -.354E-15
   0.400E-13 -.349E-14 -.447E-12   -.143E-13 0.519E-14 0.637E-14   -.560E-17 0.533E-17 -.372E-16   0.103E-13 0.715E-15 0.132E-13
   0.160E-13 -.190E-12 -.329E-13   -.142E-13 -.142E-13 0.711E-14   0.218E-16 0.986E-18 0.334E-16   0.254E-14 0.253E-14 0.641E-15
   0.320E-13 0.384E-12 -.127E-13   -.356E-13 -.719E-14 0.105E-15   -.157E-16 0.282E-17 -.571E-16   0.950E-14 0.101E-14 0.137E-13
 -----------------------------------------------------------------------------------------------
   0.144E-12 0.877E-13 -.216E-12   -.146E-13 -.188E-14 -.136E-14   -.108E-16 -.126E-16 0.492E-17   0.160E-13 0.159E-13 0.534E-13
 
 
 POSITION                                       TOTAL-FORCE (eV/Angst)
 -----------------------------------------------------------------------------------
      0.88848      2.66544      0.88848        -0.000000      0.000000     -0.000000
      0.00000      0.00000      1.77696         0.000000     -0.000000      0.000000
      0.88848      0.88848      2.66544        -0.000000      0.000000     -0.000000
      0.00000      1.77696      0.00000         0.000000      0.000000     -0.000000
      2.66544      2.66544      2.66544         0.000000     -0.000000     -0.000000
      1.77696      0.00000      0.00000         0.000000      0.000000      0.000000
      2.66544      0.88848      0.88848        -0.000000     -0.000000      0.000000
      1.77696      1.77696      1.77696         0.000000     -0.000000      0.000000
 -----------------------------------------------------------------------------------
    total drift:                                0.000000      0.000000     -0.000000


--------------------------------------------------------------------------------------------------------



  FREE ENERGIE OF THE ION-ELECTRON SYSTEM (eV)
  ---------------------------------------------------
  free  energy   TOTEN  =       -72.73444276 eV

  energy  without entropy=      -72.73444276  energy(sigma->0) =      -72.73444276
 


--------------------------------------------------------------------------------------------------------


    POTLOK:  cpu time    0.0272: real time    0.0272


--------------------------------------------------------------------------------------------------------


     LOOP+:  cpu time   48.6306: real time   48.6610
    4ORBIT:  cpu time    0.0000: real time    0.0000
 BZINTS: Fermi energy: 10.037879; 32.000000 electrons
         Band energy:  27.976093;  BLOECHL correction:  0.000000

 total amount of memory used by VASP MPI-rank0    33836. kBytes
=======================================================================

   base      :      30000. kBytes
   nonl-proj :       1166. kBytes
   fftplans  :        345. kBytes
   grid      :        481. kBytes
   one-center:          6. kBytes
   wavefun   :       1838. kBytes
 
  
  
 General timing and accounting informations for this job:
 ========================================================
  
                  Total CPU time used (sec):       50.968
                            User time (sec):       49.072
                          System time (sec):        1.896
                         Elapsed time (sec):       51.084
  
                   Maximum memory used (kb):      189604.
                   Average memory used (kb):           0.
  
                          Minor page faults:        36892
                          Major page faults:           36
                 Voluntary context switches:          786
