   8   8   0   0
  0.6672403E+01  0.3765223E-09  0.3765223E-09  0.3765223E-09  0.2000000E-16
  1.000000000000000E-004
  CAR 
 unknown system                          
     19.18175792    -13.35664287  301      7.58995264      1.00000000
    -13.357  0.0000E+00  0.0000E+00
    -13.248  0.0000E+00  0.0000E+00
    -13.140  0.0000E+00  0.0000E+00
    -13.031  0.0000E+00  0.0000E+00
    -12.923  0.0000E+00  0.0000E+00
    -12.814  0.0000E+00  0.0000E+00
    -12.706  0.0000E+00  0.0000E+00
    -12.597  0.0000E+00  0.0000E+00
    -12.489  0.0000E+00  0.0000E+00
    -12.380  0.0000E+00  0.0000E+00
    -12.272  0.0000E+00  0.0000E+00
    -12.164  0.0000E+00  0.0000E+00
    -12.055  0.0000E+00  0.0000E+00
    -11.947  0.0000E+00  0.0000E+00
    -11.838  0.3852E-01  0.5064E-03
    -11.730  0.1716E+00  0.1481E-01
    -11.621  0.2690E+00  0.3866E-01
    -11.513  0.3043E+00  0.6945E-01
    -11.404  0.3572E+00  0.1053E+00
    -11.296  0.4029E+00  0.1470E+00
    -11.187  0.4353E+00  0.1924E+00
    -11.079  0.4699E+00  0.2414E+00
    -10.970  0.5130E+00  0.2947E+00
    -10.862  0.5394E+00  0.3519E+00
    -10.754  0.5659E+00  0.4119E+00
    -10.645  0.5951E+00  0.4748E+00
    -10.537  0.6270E+00  0.5411E+00
    -10.428  0.6583E+00  0.6108E+00
    -10.320  0.6801E+00  0.6833E+00
    -10.211  0.7030E+00  0.7584E+00
    -10.103  0.7279E+00  0.8359E+00
     -9.994  0.7540E+00  0.9163E+00
     -9.886  0.7819E+00  0.9996E+00
     -9.777  0.8070E+00  0.1086E+01
     -9.669  0.8277E+00  0.1175E+01
     -9.560  0.8482E+00  0.1265E+01
     -9.452  0.8718E+00  0.1359E+01
     -9.344  0.8960E+00  0.1454E+01
     -9.235  0.9213E+00  0.1553E+01
     -9.127  0.9475E+00  0.1654E+01
     -9.018  0.9685E+00  0.1758E+01
     -8.910  0.9900E+00  0.1865E+01
     -8.801  0.1013E+01  0.1973E+01
     -8.693  0.1036E+01  0.2084E+01
     -8.584  0.1061E+01  0.2198E+01
     -8.476  0.1111E+01  0.2315E+01
     -8.367  0.1166E+01  0.2439E+01
     -8.259  0.1215E+01  0.2567E+01
     -8.150  0.1251E+01  0.2702E+01
     -8.042  0.1244E+01  0.2838E+01
     -7.934  0.1211E+01  0.2971E+01
     -7.825  0.1203E+01  0.3101E+01
     -7.717  0.1240E+01  0.3234E+01
     -7.608  0.1261E+01  0.3370E+01
     -7.500  0.1280E+01  0.3507E+01
     -7.391  0.1341E+01  0.3649E+01
     -7.283  0.1437E+01  0.3799E+01
     -7.174  0.1517E+01  0.3957E+01
     -7.066  0.1736E+01  0.4133E+01
     -6.957  0.1881E+01  0.4331E+01
     -6.849  0.1750E+01  0.4534E+01
     -6.741  0.1787E+01  0.4725E+01
     -6.632  0.1752E+01  0.4921E+01
     -6.524  0.1635E+01  0.5103E+01
     -6.415  0.1595E+01  0.5278E+01
     -6.307  0.1683E+01  0.5451E+01
     -6.198  0.1552E+01  0.5633E+01
     -6.090  0.1491E+01  0.5796E+01
     -5.981  0.1510E+01  0.5959E+01
     -5.873  0.1387E+01  0.6115E+01
     -5.764  0.1380E+01  0.6265E+01
     -5.656  0.1393E+01  0.6414E+01
     -5.547  0.1279E+01  0.6562E+01
     -5.439  0.1203E+01  0.6696E+01
     -5.331  0.1144E+01  0.6823E+01
     -5.222  0.1182E+01  0.6951E+01
     -5.114  0.1124E+01  0.7081E+01
     -5.005  0.1118E+01  0.7204E+01
     -4.897  0.1126E+01  0.7327E+01
     -4.788  0.1048E+01  0.7447E+01
     -4.680  0.9388E+00  0.7555E+01
     -4.571  0.8240E+00  0.7650E+01
     -4.463  0.7313E+00  0.7735E+01
     -4.354  0.6280E+00  0.7808E+01
     -4.246  0.5224E+00  0.7871E+01
     -4.137  0.8793E+00  0.7926E+01
     -4.029  0.6209E+00  0.7985E+01
     -3.921  0.5554E+00  0.8049E+01
     -3.812  0.7454E+00  0.8120E+01
     -3.704  0.7916E+00  0.8201E+01
     -3.595  0.9638E+00  0.8296E+01
     -3.487  0.1258E+01  0.8420E+01
     -3.378  0.1414E+01  0.8566E+01
     -3.270  0.1630E+01  0.8730E+01
     -3.161  0.1954E+01  0.8921E+01
     -3.053  0.2427E+01  0.9158E+01
     -2.944  0.3595E+01  0.9466E+01
     -2.836  0.3453E+01  0.9930E+01
     -2.727  0.2684E+01  0.1025E+02
     -2.619  0.2304E+01  0.1052E+02
     -2.511  0.2066E+01  0.1076E+02
     -2.402  0.1895E+01  0.1097E+02
     -2.294  0.1768E+01  0.1117E+02
     -2.185  0.1665E+01  0.1136E+02
     -2.077  0.1624E+01  0.1153E+02
     -1.968  0.1577E+01  0.1171E+02
     -1.860  0.1566E+01  0.1188E+02
     -1.751  0.1614E+01  0.1204E+02
     -1.643  0.1308E+01  0.1219E+02
     -1.534  0.1248E+01  0.1233E+02
     -1.426  0.1218E+01  0.1247E+02
     -1.317  0.1191E+01  0.1260E+02
     -1.209  0.1159E+01  0.1272E+02
     -1.101  0.1105E+01  0.1285E+02
     -0.992  0.1054E+01  0.1296E+02
     -0.884  0.1021E+01  0.1308E+02
     -0.775  0.1035E+01  0.1319E+02
     -0.667  0.1030E+01  0.1330E+02
     -0.558  0.1060E+01  0.1341E+02
     -0.450  0.1154E+01  0.1353E+02
     -0.341  0.1247E+01  0.1366E+02
     -0.233  0.1374E+01  0.1380E+02
     -0.124  0.1645E+01  0.1396E+02
     -0.016  0.2075E+01  0.1417E+02
      0.093  0.2795E+01  0.1442E+02
      0.201  0.3104E+01  0.1474E+02
      0.309  0.3050E+01  0.1508E+02
      0.418  0.1753E+01  0.1536E+02
      0.526  0.1359E+01  0.1553E+02
      0.635  0.1303E+01  0.1567E+02
      0.743  0.2224E+01  0.1586E+02
      0.852  0.2493E+01  0.1613E+02
      0.960  0.2466E+01  0.1639E+02
      1.069  0.2554E+01  0.1666E+02
      1.177  0.2539E+01  0.1694E+02
      1.286  0.2587E+01  0.1722E+02
      1.394  0.2624E+01  0.1750E+02
      1.503  0.2533E+01  0.1778E+02
      1.611  0.2818E+01  0.1807E+02
      1.719  0.3199E+01  0.1839E+02
      1.828  0.3515E+01  0.1875E+02
      1.936  0.3236E+01  0.1915E+02
      2.045  0.2512E+01  0.1946E+02
      2.153  0.2450E+01  0.1972E+02
      2.262  0.3292E+01  0.2004E+02
      2.370  0.3301E+01  0.2040E+02
      2.479  0.4010E+01  0.2079E+02
      2.587  0.4595E+01  0.2128E+02
      2.696  0.3838E+01  0.2173E+02
      2.804  0.3267E+01  0.2212E+02
      2.913  0.2867E+01  0.2245E+02
      3.021  0.2879E+01  0.2276E+02
      3.129  0.4187E+01  0.2312E+02
      3.238  0.3070E+01  0.2349E+02
      3.346  0.3665E+01  0.2384E+02
      3.455  0.3321E+01  0.2422E+02
      3.563  0.3329E+01  0.2458E+02
      3.672  0.3420E+01  0.2494E+02
      3.780  0.3596E+01  0.2532E+02
      3.889  0.3395E+01  0.2572E+02
      3.997  0.2927E+01  0.2605E+02
      4.106  0.2795E+01  0.2636E+02
      4.214  0.2703E+01  0.2665E+02
      4.323  0.2851E+01  0.2695E+02
      4.431  0.3113E+01  0.2728E+02
      4.539  0.3297E+01  0.2763E+02
      4.648  0.3163E+01  0.2798E+02
      4.756  0.3122E+01  0.2832E+02
      4.865  0.2841E+01  0.2865E+02
      4.973  0.2692E+01  0.2896E+02
      5.082  0.3161E+01  0.2926E+02
      5.190  0.2748E+01  0.2963E+02
      5.299  0.2073E+01  0.2988E+02
      5.407  0.1891E+01  0.3009E+02
      5.516  0.1763E+01  0.3029E+02
      5.624  0.1598E+01  0.3048E+02
      5.733  0.1497E+01  0.3064E+02
      5.841  0.1401E+01  0.3080E+02
      5.949  0.1295E+01  0.3095E+02
      6.058  0.1173E+01  0.3108E+02
      6.166  0.1056E+01  0.3120E+02
      6.275  0.9962E+00  0.3131E+02
      6.383  0.9402E+00  0.3142E+02
      6.492  0.8379E+00  0.3151E+02
      6.600  0.7630E+00  0.3160E+02
      6.709  0.6904E+00  0.3168E+02
      6.817  0.6366E+00  0.3175E+02
      6.926  0.5397E+00  0.3182E+02
      7.034  0.4240E+00  0.3187E+02
      7.143  0.4433E+00  0.3191E+02
      7.251  0.3130E+00  0.3196E+02
      7.359  0.1633E+00  0.3198E+02
      7.468  0.4056E-01  0.3200E+02
      7.576  0.0000E+00  0.3200E+02
      7.685  0.0000E+00  0.3200E+02
      7.793  0.0000E+00  0.3200E+02
      7.902  0.0000E+00  0.3200E+02
      8.010  0.0000E+00  0.3200E+02
      8.119  0.0000E+00  0.3200E+02
      8.227  0.0000E+00  0.3200E+02
      8.336  0.0000E+00  0.3200E+02
      8.444  0.0000E+00  0.3200E+02
      8.553  0.0000E+00  0.3200E+02
      8.661  0.0000E+00  0.3200E+02
      8.769  0.0000E+00  0.3200E+02
      8.878  0.0000E+00  0.3200E+02
      8.986  0.0000E+00  0.3200E+02
      9.095  0.0000E+00  0.3200E+02
      9.203  0.0000E+00  0.3200E+02
      9.312  0.0000E+00  0.3200E+02
      9.420  0.0000E+00  0.3200E+02
      9.529  0.0000E+00  0.3200E+02
      9.637  0.0000E+00  0.3200E+02
      9.746  0.0000E+00  0.3200E+02
      9.854  0.0000E+00  0.3200E+02
      9.963  0.0000E+00  0.3200E+02
     10.071  0.0000E+00  0.3200E+02
     10.179  0.0000E+00  0.3200E+02
     10.288  0.0000E+00  0.3200E+02
     10.396  0.0000E+00  0.3200E+02
     10.505  0.0000E+00  0.3200E+02
     10.613  0.0000E+00  0.3200E+02
     10.722  0.0000E+00  0.3200E+02
     10.830  0.0000E+00  0.3200E+02
     10.939  0.0000E+00  0.3200E+02
     11.047  0.0000E+00  0.3200E+02
     11.156  0.0000E+00  0.3200E+02
     11.264  0.0000E+00  0.3200E+02
     11.373  0.2322E-01  0.3200E+02
     11.481  0.1750E+00  0.3201E+02
     11.589  0.4181E+00  0.3204E+02
     11.698  0.5969E+00  0.3210E+02
     11.806  0.6847E+00  0.3217E+02
     11.915  0.6880E+00  0.3224E+02
     12.023  0.8686E+00  0.3232E+02
     12.132  0.1049E+01  0.3243E+02
     12.240  0.1164E+01  0.3255E+02
     12.349  0.1879E+01  0.3272E+02
     12.457  0.1621E+01  0.3290E+02
     12.566  0.1593E+01  0.3307E+02
     12.674  0.1676E+01  0.3324E+02
     12.783  0.1750E+01  0.3343E+02
     12.891  0.1942E+01  0.3363E+02
     12.999  0.2126E+01  0.3385E+02
     13.108  0.2335E+01  0.3409E+02
     13.216  0.2522E+01  0.3435E+02
     13.325  0.2671E+01  0.3463E+02
     13.433  0.2376E+01  0.3490E+02
     13.542  0.2377E+01  0.3516E+02
     13.650  0.2447E+01  0.3542E+02
     13.759  0.2595E+01  0.3569E+02
     13.867  0.2843E+01  0.3598E+02
     13.976  0.3059E+01  0.3631E+02
     14.084  0.3404E+01  0.3665E+02
     14.193  0.3482E+01  0.3703E+02
     14.301  0.3869E+01  0.3743E+02
     14.409  0.4633E+01  0.3789E+02
     14.518  0.5239E+01  0.3844E+02
     14.626  0.5159E+01  0.3899E+02
     14.735  0.4739E+01  0.3955E+02
     14.843  0.4944E+01  0.4007E+02
     14.952  0.4689E+01  0.4059E+02
     15.060  0.4178E+01  0.4108E+02
     15.169  0.4549E+01  0.4151E+02
     15.277  0.4334E+01  0.4198E+02
     15.386  0.4772E+01  0.4251E+02
     15.494  0.4396E+01  0.4299E+02
     15.603  0.4433E+01  0.4347E+02
     15.711  0.3964E+01  0.4393E+02
     15.819  0.3147E+01  0.4431E+02
     15.928  0.2909E+01  0.4464E+02
     16.036  0.2871E+01  0.4495E+02
     16.145  0.3071E+01  0.4527E+02
     16.253  0.3120E+01  0.4560E+02
     16.362  0.3108E+01  0.4594E+02
     16.470  0.3183E+01  0.4628E+02
     16.579  0.3241E+01  0.4663E+02
     16.687  0.2885E+01  0.4697E+02
     16.796  0.2632E+01  0.4726E+02
     16.904  0.1765E+01  0.4751E+02
     17.013  0.1263E+01  0.4767E+02
     17.121  0.9498E+00  0.4779E+02
     17.229  0.6498E+00  0.4788E+02
     17.338  0.4215E+00  0.4794E+02
     17.446  0.2186E+00  0.4797E+02
     17.555  0.1333E+00  0.4799E+02
     17.663  0.4659E-01  0.4800E+02
     17.772  0.0000E+00  0.4800E+02
     17.880  0.0000E+00  0.4800E+02
     17.989  0.0000E+00  0.4800E+02
     18.097  0.0000E+00  0.4800E+02
     18.206  0.0000E+00  0.4800E+02
     18.314  0.0000E+00  0.4800E+02
     18.423  0.0000E+00  0.4800E+02
     18.531  0.0000E+00  0.4800E+02
     18.639  0.0000E+00  0.4800E+02
     18.748  0.0000E+00  0.4800E+02
     18.856  0.0000E+00  0.4800E+02
     18.965  0.0000E+00  0.4800E+02
     19.073  0.0000E+00  0.4800E+02
     19.182  0.0000E+00  0.4800E+02
