       N       E                     dE             d eps       ncg     rms          rms(c)
DAV:   1     0.580421145896E+02    0.58042E+02   -0.14069E+04  4032   0.104E+03
DAV:   2    -0.682418807842E+02   -0.12628E+03   -0.11964E+03  5648   0.212E+02
DAV:   3    -0.727599905721E+02   -0.45181E+01   -0.44937E+01  5296   0.380E+01
DAV:   4    -0.728142012630E+02   -0.54211E-01   -0.54153E-01  5296   0.447E+00
DAV:   5    -0.728153744906E+02   -0.11732E-02   -0.11726E-02  5200   0.604E-01    0.779E+00
DAV:   6    -0.717275267025E+02    0.10878E+01   -0.75080E-01  4776   0.468E+00    0.441E+00
DAV:   7    -0.713587626117E+02    0.36876E+00   -0.89383E-01  4928   0.526E+00    0.635E-01
DAV:   8    -0.713643329562E+02   -0.55703E-02   -0.19181E-02  5160   0.782E-01    0.721E-02
DAV:   9    -0.713645755547E+02   -0.24260E-03   -0.43735E-04  5160   0.135E-01    0.260E-02
DAV:  10    -0.713646336423E+02   -0.58088E-04   -0.60387E-05  5056   0.555E-02    0.245E-03
DAV:  11    -0.713646339005E+02   -0.25819E-06   -0.11258E-06  3936   0.694E-03
   1 F= -.71364634E+02 E0= -.71364634E+02  d E =0.000000E+00
