 vasp.5.4.4.18Apr17-6-g9f103f2a35 (build Mar 12 2022 03:36:41) complex          
  
 executed on IFC19.0.3.199_CrayMP date 2022.12.01  11:06:16
 running on   16 total cores
 distrk:  each k-point on   16 cores,    1 groups
 distr:  one band on NCORES_PER_BAND=   4 cores,    4 groups


--------------------------------------------------------------------------------------------------------


 INCAR:
 POTCAR:   PAW_PBE C 08Apr2002                    
 POTCAR:   PAW_PBE C 08Apr2002                    
   VRHFIN =C: s2p2                                                              
   LEXCH  = PE                                                                  
   EATOM  =   147.1560 eV,   10.8157 Ry                                         
                                                                                
   TITEL  = PAW_PBE C 08Apr2002                                                 
   LULTRA =        F    use ultrasoft PP ?                                      
   IUNSCR =        0    unscreen: 0-lin 1-nonlin 2-no                           
   RPACOR =     .000    partial core radius                                     
   POMASS =   12.011; ZVAL   =    4.000    mass and valenz                      
   RCORE  =    1.500    outmost cutoff radius                                   
   RWIGS  =    1.630; RWIGS  =     .863    wigner-seitz radius (au A)           
   ENMAX  =  400.000; ENMIN  =  300.000 eV                                      
   ICORE  =        2    local potential                                         
   LCOR   =        T    correct aug charges                                     
   LPAW   =        T    paw PP                                                  
   EAUG   =  644.873                                                            
   DEXC   =     .000                                                            
   RMAX   =    2.266    core radius for proj-oper                               
   RAUG   =    1.300    factor for augmentation sphere                          
   RDEP   =    1.501    radius for radial grids                                 
   RDEPT  =    1.300    core radius for aug-charge                              
   QCUT   =   -5.516; QGAM   =   11.032    optimization parameters              
                                                                                
   Description                                                                  
     l     E      TYP  RCUT    TYP  RCUT                                        
     0   .000     23  1.200                                                     
     0   .000     23  1.200                                                     
     1   .000     23  1.500                                                     
     1  2.500     23  1.500                                                     
     2   .000      7  1.500                                                     
  local pseudopotential read in
  atomic valenz-charges read in
  non local Contribution for L=           0  read in
    real space projection operators read in
  non local Contribution for L=           0  read in
    real space projection operators read in
  non local Contribution for L=           1  read in
    real space projection operators read in
  non local Contribution for L=           1  read in
    real space projection operators read in
    PAW grid and wavefunctions read in
 
   number of l-projection  operators is LMAX  =           4
   number of lm-projection operators is LMMAX =           8
 
 PAW_PBE C 08Apr2002                    :
 energy of atom  1       EATOM= -147.1560
 kinetic energy error for atom=    0.0288 (will be added to EATOM!!)
 
 
 POSCAR: C8                                      
  positions in direct lattice
  No initial velocities read in
 exchange correlation table for  LEXCH =        8
   RHO(1)=    0.500       N(1)  =     2000
   RHO(2)=  100.500       N(2)  =     4000
 


--------------------------------------------------------------------------------------------------------


 ion  position               nearest neighbor table
   1  0.250  0.750  0.250-   2 1.63   4 1.63   6 1.63   8 1.63
   2  0.000  0.000  0.500-   1 1.63   3 1.63   5 1.63   7 1.63
   3  0.250  0.250  0.750-   2 1.63   4 1.63   6 1.63   8 1.63
   4  0.000  0.500  0.000-   1 1.63   3 1.63   5 1.63   7 1.63
   5  0.750  0.750  0.750-   2 1.63   4 1.63   6 1.63   8 1.63
   6  0.500  0.000  0.000-   1 1.63   3 1.63   5 1.63   7 1.63
   7  0.750  0.250  0.250-   2 1.63   4 1.63   6 1.63   8 1.63
   8  0.500  0.500  0.500-   1 1.63   3 1.63   5 1.63   7 1.63
 
  LATTYP: Found a simple cubic cell.
 ALAT       =     3.7652234253
  
  Lattice vectors:
  
 A1 = (   3.7652234253,   0.0000000000,   0.0000000000)
 A2 = (   0.0000000000,   3.7652234253,   0.0000000000)
 A3 = (   0.0000000000,   0.0000000000,   3.7652234253)


Analysis of symmetry for initial positions (statically):
=====================================================================
 Subroutine PRICEL returns following result:
 
  LATTYP: Found a face centered cubic cell.
 ALAT       =     3.7652234253
  
  Lattice vectors:
  
 A1 = (   1.8826117127,   1.8826117127,   0.0000000000)
 A2 = (   1.8826117127,   0.0000000000,  -1.8826117127)
 A3 = (   0.0000000000,   1.8826117127,  -1.8826117127)
 
   4 primitive cells build up your supercell.
 

 Routine SETGRP: Setting up the symmetry group for a 
 simple cubic supercell.


 Subroutine GETGRP returns: Found 48 space group operations
 (whereof 24 operations were pure point group operations)
 out of a pool of 48 trial point group operations.


The static configuration has the point symmetry T_d .
 The point group associated with its full space group is O_h .


Analysis of symmetry for dynamics (positions and initial velocities):
=====================================================================
 Subroutine PRICEL returns following result:
 
  LATTYP: Found a face centered cubic cell.
 ALAT       =     3.7652234253
  
  Lattice vectors:
  
 A1 = (   1.8826117127,   1.8826117127,   0.0000000000)
 A2 = (   1.8826117127,   0.0000000000,  -1.8826117127)
 A3 = (   0.0000000000,   1.8826117127,  -1.8826117127)
 
   4 primitive cells build up your supercell.
 

 Routine SETGRP: Setting up the symmetry group for a 
 simple cubic supercell.


 Subroutine GETGRP returns: Found 48 space group operations
 (whereof 24 operations were pure point group operations)
 out of a pool of 48 trial point group operations.


The dynamic configuration has the point symmetry T_d .
 The point group associated with its full space group is O_h .


 Subroutine INISYM returns: Found 48 space group operations
 (whereof 24 operations are pure point group operations),
 and found     4 'primitive' translations

 
 
 KPOINTS: kpt_density=1000                        

Automatic generation of k-mesh.
Space group operators:
 irot       det(A)        alpha          n_x          n_y          n_z        tau_x        tau_y        tau_z
    1     1.000000     0.000000     1.000000     0.000000     0.000000     0.000000     0.000000     0.000000
    2     1.000000   120.000000    -0.577350    -0.577350    -0.577350     0.000000     0.000000     0.000000
    3     1.000000   120.000000     0.577350     0.577350     0.577350     0.000000     0.000000     0.000000
    4    -1.000000    90.000000     0.000000     0.000000    -1.000000     0.000000     0.000000     0.000000
    5    -1.000000   180.000000     0.000000     0.707107     0.707107     0.000000     0.000000     0.000000
    6    -1.000000    90.000000     0.000000     1.000000     0.000000     0.000000     0.000000     0.000000
    7     1.000000   180.000000     0.000000     0.000000     1.000000     0.000000     0.000000     0.000000
    8     1.000000   120.000000    -0.577350     0.577350     0.577350     0.000000     0.000000     0.000000
    9     1.000000   120.000000    -0.577350     0.577350    -0.577350     0.000000     0.000000     0.000000
   10    -1.000000    90.000000     0.000000     0.000000     1.000000     0.000000     0.000000     0.000000
   11    -1.000000    90.000000    -1.000000     0.000000     0.000000     0.000000     0.000000     0.000000
   12    -1.000000   180.000000     0.707107     0.000000     0.707107     0.000000     0.000000     0.000000
   13     1.000000   120.000000     0.577350    -0.577350     0.577350     0.000000     0.000000     0.000000
   14     1.000000   120.000000    -0.577350    -0.577350     0.577350     0.000000     0.000000     0.000000
   15     1.000000   180.000000     1.000000     0.000000     0.000000     0.000000     0.000000     0.000000
   16    -1.000000    90.000000     0.000000    -1.000000     0.000000     0.000000     0.000000     0.000000
   17    -1.000000   180.000000     0.707107     0.707107     0.000000     0.000000     0.000000     0.000000
   18    -1.000000    90.000000     1.000000     0.000000     0.000000     0.000000     0.000000     0.000000
   19     1.000000   120.000000     0.577350    -0.577350    -0.577350     0.000000     0.000000     0.000000
   20     1.000000   180.000000     0.000000     1.000000     0.000000     0.000000     0.000000     0.000000
   21     1.000000   120.000000     0.577350     0.577350    -0.577350     0.000000     0.000000     0.000000
   22    -1.000000   180.000000     0.000000    -0.707107     0.707107     0.000000     0.000000     0.000000
   23    -1.000000   180.000000     0.707107    -0.707107     0.000000     0.000000     0.000000     0.000000
   24    -1.000000   180.000000     0.707107     0.000000    -0.707107     0.000000     0.000000     0.000000
   25    -1.000000     0.000000     1.000000     0.000000     0.000000     0.750000     0.750000    -0.750000
   26    -1.000000   120.000000    -0.577350    -0.577350    -0.577350     0.750000     0.750000    -0.750000
   27    -1.000000   120.000000     0.577350     0.577350     0.577350     0.750000     0.750000    -0.750000
   28     1.000000    90.000000     0.000000     0.000000    -1.000000     0.750000     0.750000    -0.750000
   29     1.000000   180.000000     0.000000     0.707107     0.707107     0.750000     0.750000    -0.750000
   30     1.000000    90.000000     0.000000     1.000000     0.000000     0.750000     0.750000    -0.750000
   31    -1.000000   180.000000     0.000000     0.000000     1.000000     0.750000     0.750000    -0.750000
   32    -1.000000   120.000000    -0.577350     0.577350     0.577350     0.750000     0.750000    -0.750000
   33    -1.000000   120.000000    -0.577350     0.577350    -0.577350     0.750000     0.750000    -0.750000
   34     1.000000    90.000000     0.000000     0.000000     1.000000     0.750000     0.750000    -0.750000
   35     1.000000    90.000000    -1.000000     0.000000     0.000000     0.750000     0.750000    -0.750000
   36     1.000000   180.000000     0.707107     0.000000     0.707107     0.750000     0.750000    -0.750000
   37    -1.000000   120.000000     0.577350    -0.577350     0.577350     0.750000     0.750000    -0.750000
   38    -1.000000   120.000000    -0.577350    -0.577350     0.577350     0.750000     0.750000    -0.750000
   39    -1.000000   180.000000     1.000000     0.000000     0.000000     0.750000     0.750000    -0.750000
   40     1.000000    90.000000     0.000000    -1.000000     0.000000     0.750000     0.750000    -0.750000
   41     1.000000   180.000000     0.707107     0.707107     0.000000     0.750000     0.750000    -0.750000
   42     1.000000    90.000000     1.000000     0.000000     0.000000     0.750000     0.750000    -0.750000
   43    -1.000000   120.000000     0.577350    -0.577350    -0.577350     0.750000     0.750000    -0.750000
   44    -1.000000   180.000000     0.000000     1.000000     0.000000     0.750000     0.750000    -0.750000
   45    -1.000000   120.000000     0.577350     0.577350    -0.577350     0.750000     0.750000    -0.750000
   46     1.000000   180.000000     0.000000    -0.707107     0.707107     0.750000     0.750000    -0.750000
   47     1.000000   180.000000     0.707107    -0.707107     0.000000     0.750000     0.750000    -0.750000
   48     1.000000   180.000000     0.707107     0.000000    -0.707107     0.750000     0.750000    -0.750000
 
 Subroutine IBZKPT returns following result:
 ===========================================
 
 Found     84 irreducible k-points:
 
 Following reciprocal coordinates:
            Coordinates               Weight
  0.000000  0.000000  0.000000      1.000000
  0.083333  0.000000  0.000000      6.000000
  0.166667  0.000000  0.000000      6.000000
  0.250000  0.000000  0.000000      6.000000
  0.333333  0.000000  0.000000      6.000000
  0.416667  0.000000  0.000000      6.000000
  0.500000  0.000000  0.000000      3.000000
  0.083333  0.083333  0.000000     12.000000
  0.166667  0.083333  0.000000     24.000000
  0.250000  0.083333  0.000000     24.000000
  0.333333  0.083333  0.000000     24.000000
  0.416667  0.083333  0.000000     24.000000
  0.500000  0.083333  0.000000     12.000000
  0.166667  0.166667  0.000000     12.000000
  0.250000  0.166667  0.000000     24.000000
  0.333333  0.166667  0.000000     24.000000
  0.416667  0.166667  0.000000     24.000000
  0.500000  0.166667  0.000000     12.000000
  0.250000  0.250000  0.000000     12.000000
  0.333333  0.250000  0.000000     24.000000
  0.416667  0.250000  0.000000     24.000000
  0.500000  0.250000  0.000000     12.000000
  0.333333  0.333333  0.000000     12.000000
  0.416667  0.333333  0.000000     24.000000
  0.500000  0.333333  0.000000     12.000000
  0.416667  0.416667  0.000000     12.000000
  0.500000  0.416667  0.000000     12.000000
  0.500000  0.500000  0.000000      3.000000
  0.083333  0.083333  0.083333      8.000000
  0.166667  0.083333  0.083333     24.000000
  0.250000  0.083333  0.083333     24.000000
  0.333333  0.083333  0.083333     24.000000
  0.416667  0.083333  0.083333     24.000000
  0.500000  0.083333  0.083333     12.000000
  0.166667  0.166667  0.083333     24.000000
  0.250000  0.166667  0.083333     48.000000
  0.333333  0.166667  0.083333     48.000000
  0.416667  0.166667  0.083333     48.000000
  0.500000  0.166667  0.083333     24.000000
  0.250000  0.250000  0.083333     24.000000
  0.333333  0.250000  0.083333     48.000000
  0.416667  0.250000  0.083333     48.000000
  0.500000  0.250000  0.083333     24.000000
  0.333333  0.333333  0.083333     24.000000
  0.416667  0.333333  0.083333     48.000000
  0.500000  0.333333  0.083333     24.000000
  0.416667  0.416667  0.083333     24.000000
  0.500000  0.416667  0.083333     24.000000
  0.500000  0.500000  0.083333      6.000000
  0.166667  0.166667  0.166667      8.000000
  0.250000  0.166667  0.166667     24.000000
  0.333333  0.166667  0.166667     24.000000
  0.416667  0.166667  0.166667     24.000000
  0.500000  0.166667  0.166667     12.000000
  0.250000  0.250000  0.166667     24.000000
  0.333333  0.250000  0.166667     48.000000
  0.416667  0.250000  0.166667     48.000000
  0.500000  0.250000  0.166667     24.000000
  0.333333  0.333333  0.166667     24.000000
  0.416667  0.333333  0.166667     48.000000
  0.500000  0.333333  0.166667     24.000000
  0.416667  0.416667  0.166667     24.000000
  0.500000  0.416667  0.166667     24.000000
  0.500000  0.500000  0.166667      6.000000
  0.250000  0.250000  0.250000      8.000000
  0.333333  0.250000  0.250000     24.000000
  0.416667  0.250000  0.250000     24.000000
  0.500000  0.250000  0.250000     12.000000
  0.333333  0.333333  0.250000     24.000000
  0.416667  0.333333  0.250000     48.000000
  0.500000  0.333333  0.250000     24.000000
  0.416667  0.416667  0.250000     24.000000
  0.500000  0.416667  0.250000     24.000000
  0.500000  0.500000  0.250000      6.000000
  0.333333  0.333333  0.333333      8.000000
  0.416667  0.333333  0.333333     24.000000
  0.500000  0.333333  0.333333     12.000000
  0.416667  0.416667  0.333333     24.000000
  0.500000  0.416667  0.333333     24.000000
  0.500000  0.500000  0.333333      6.000000
  0.416667  0.416667  0.416667      8.000000
  0.500000  0.416667  0.416667     12.000000
  0.500000  0.500000  0.416667      6.000000
  0.500000  0.500000  0.500000      1.000000
 
 Following cartesian coordinates:
            Coordinates               Weight
  0.000000  0.000000  0.000000      1.000000
  0.022233  0.000000  0.000000      6.000000
  0.044467  0.000000  0.000000      6.000000
  0.066700  0.000000  0.000000      6.000000
  0.088933  0.000000  0.000000      6.000000
  0.111166  0.000000  0.000000      6.000000
  0.133400  0.000000  0.000000      3.000000
  0.022233  0.022233  0.000000     12.000000
  0.044467  0.022233  0.000000     24.000000
  0.066700  0.022233  0.000000     24.000000
  0.088933  0.022233  0.000000     24.000000
  0.111166  0.022233  0.000000     24.000000
  0.133400  0.022233  0.000000     12.000000
  0.044467  0.044467  0.000000     12.000000
  0.066700  0.044467  0.000000     24.000000
  0.088933  0.044467  0.000000     24.000000
  0.111166  0.044467  0.000000     24.000000
  0.133400  0.044467  0.000000     12.000000
  0.066700  0.066700  0.000000     12.000000
  0.088933  0.066700  0.000000     24.000000
  0.111166  0.066700  0.000000     24.000000
  0.133400  0.066700  0.000000     12.000000
  0.088933  0.088933  0.000000     12.000000
  0.111166  0.088933  0.000000     24.000000
  0.133400  0.088933  0.000000     12.000000
  0.111166  0.111166  0.000000     12.000000
  0.133400  0.111166  0.000000     12.000000
  0.133400  0.133400  0.000000      3.000000
  0.022233  0.022233  0.022233      8.000000
  0.044467  0.022233  0.022233     24.000000
  0.066700  0.022233  0.022233     24.000000
  0.088933  0.022233  0.022233     24.000000
  0.111166  0.022233  0.022233     24.000000
  0.133400  0.022233  0.022233     12.000000
  0.044467  0.044467  0.022233     24.000000
  0.066700  0.044467  0.022233     48.000000
  0.088933  0.044467  0.022233     48.000000
  0.111166  0.044467  0.022233     48.000000
  0.133400  0.044467  0.022233     24.000000
  0.066700  0.066700  0.022233     24.000000
  0.088933  0.066700  0.022233     48.000000
  0.111166  0.066700  0.022233     48.000000
  0.133400  0.066700  0.022233     24.000000
  0.088933  0.088933  0.022233     24.000000
  0.111166  0.088933  0.022233     48.000000
  0.133400  0.088933  0.022233     24.000000
  0.111166  0.111166  0.022233     24.000000
  0.133400  0.111166  0.022233     24.000000
  0.133400  0.133400  0.022233      6.000000
  0.044467  0.044467  0.044467      8.000000
  0.066700  0.044467  0.044467     24.000000
  0.088933  0.044467  0.044467     24.000000
  0.111166  0.044467  0.044467     24.000000
  0.133400  0.044467  0.044467     12.000000
  0.066700  0.066700  0.044467     24.000000
  0.088933  0.066700  0.044467     48.000000
  0.111166  0.066700  0.044467     48.000000
  0.133400  0.066700  0.044467     24.000000
  0.088933  0.088933  0.044467     24.000000
  0.111166  0.088933  0.044467     48.000000
  0.133400  0.088933  0.044467     24.000000
  0.111166  0.111166  0.044467     24.000000
  0.133400  0.111166  0.044467     24.000000
  0.133400  0.133400  0.044467      6.000000
  0.066700  0.066700  0.066700      8.000000
  0.088933  0.066700  0.066700     24.000000
  0.111166  0.066700  0.066700     24.000000
  0.133400  0.066700  0.066700     12.000000
  0.088933  0.088933  0.066700     24.000000
  0.111166  0.088933  0.066700     48.000000
  0.133400  0.088933  0.066700     24.000000
  0.111166  0.111166  0.066700     24.000000
  0.133400  0.111166  0.066700     24.000000
  0.133400  0.133400  0.066700      6.000000
  0.088933  0.088933  0.088933      8.000000
  0.111166  0.088933  0.088933     24.000000
  0.133400  0.088933  0.088933     12.000000
  0.111166  0.111166  0.088933     24.000000
  0.133400  0.111166  0.088933     24.000000
  0.133400  0.133400  0.088933      6.000000
  0.111166  0.111166  0.111166      8.000000
  0.133400  0.111166  0.111166     12.000000
  0.133400  0.133400  0.111166      6.000000
  0.133400  0.133400  0.133400      1.000000
 
 TETIRR: Found    854 inequivalent tetrahedra from    10368


--------------------------------------------------------------------------------------------------------




 Dimension of arrays:
   k-points           NKPTS =     84   k-points in BZ     NKDIM =     84   number of bands    NBANDS=     24
   number of dos      NEDOS =    301   number of ions     NIONS =      8
   non local maximal  LDIM  =      4   non local SUM 2l+1 LMDIM =      8
   total plane-waves  NPLWV =  21952
   max r-space proj   IRMAX =      1   max aug-charges    IRDMAX=   5052
   dimension x,y,z NGX =    28 NGY =   28 NGZ =   28
   dimension x,y,z NGXF=    56 NGYF=   56 NGZF=   56
   support grid    NGXF=    56 NGYF=   56 NGZF=   56
   ions per type =               8
   NGX,Y,Z   is equivalent  to a cutoff of  12.36, 12.36, 12.36 a.u.
   NGXF,Y,Z  is equivalent  to a cutoff of  24.73, 24.73, 24.73 a.u.

 SYSTEM =  unknown system                          
 POSCAR =  C8                                      

 Startparameter for this run:
   NWRITE =      2    write-flag & timer
   PREC   = accura    normal or accurate (medium, high low for compatibility)
   ISTART =      0    job   : 0-new  1-cont  2-samecut
   ICHARG =      2    charge: 1-file 2-atom 10-const
   ISPIN  =      1    spin polarized calculation?
   LNONCOLLINEAR =      F non collinear calculations
   LSORBIT =      F    spin-orbit coupling
   INIWAV =      1    electr: 0-lowe 1-rand  2-diag
   LASPH  =      F    aspherical Exc in radial PAW
   METAGGA=      F    non-selfconsistent MetaGGA calc.

 Electronic Relaxation 1
   ENCUT  =  400.0 eV  29.40 Ry    5.42 a.u.   6.14  6.14  6.14*2*pi/ulx,y,z
   ENINI  =  400.0     initial cutoff
   ENAUG  =  644.9 eV  augmentation charge cutoff
   NELM   =     60;   NELMIN=  2; NELMDL= -5     # of ELM steps 
   EDIFF  = 0.1E-05   stopping-criterion for ELM
   LREAL  =      F    real-space projection
   NLSPLINE    = F    spline interpolate recip. space projectors
   LCOMPAT=      F    compatible to vasp.4.4
   GGA_COMPAT  = T    GGA compatible to vasp.4.4-vasp.4.6
   LMAXPAW     = -100 max onsite density
   LMAXMIX     =    2 max onsite mixed and CHGCAR
   VOSKOWN=      0    Vosko Wilk Nusair interpolation
   ROPT   =    0.00000
 Ionic relaxation
   EDIFFG = 0.1E-04   stopping-criterion for IOM
   NSW    =      0    number of steps for IOM
   NBLOCK =      1;   KBLOCK =      1    inner block; outer block 
   IBRION =     -1    ionic relax: 0-MD 1-quasi-New 2-CG
   NFREE  =      0    steps in history (QN), initial steepest desc. (CG)
   ISIF   =      2    stress and relaxation
   IWAVPR =     10    prediction:  0-non 1-charg 2-wave 3-comb
   ISYM   =      2    0-nonsym 1-usesym 2-fastsym
   LCORR  =      T    Harris-Foulkes like correction to forces

   POTIM  = 0.0200    time-step for ionic-motion
   TEIN   =    0.0    initial temperature
   TEBEG  =    0.0;   TEEND  =   0.0 temperature during run
   SMASS  =  -3.00    Nose mass-parameter (am)
   estimated Nose-frequenzy (Omega)   =  0.10E-29 period in steps =****** mass=  -0.324E-27a.u.
   SCALEE = 1.0000    scale energy and forces
   NPACO  =    256;   APACO  = 16.0  distance and # of slots for P.C.
   PSTRESS=    0.0 pullay stress

  Mass of Ions in am
   POMASS =  12.01
  Ionic Valenz
   ZVAL   =   4.00
  Atomic Wigner-Seitz radii
   RWIGS  =  -1.00
  virtual crystal weights 
   VCA    =   1.00
   NELECT =      32.0000    total number of electrons
   NUPDOWN=      -1.0000    fix difference up-down

 DOS related values:
   EMIN   =  10.00;   EMAX   =-10.00  energy-range for DOS
   EFERMI =   0.00
   ISMEAR =    -5;   SIGMA  =   0.06  broadening in eV -4-tet -1-fermi 0-gaus

 Electronic relaxation 2 (details)
   IALGO  =     38    algorithm
   LDIAG  =      T    sub-space diagonalisation (order eigenvalues)
   LSUBROT=      F    optimize rotation matrix (better conditioning)
   TURBO    =      0    0=normal 1=particle mesh
   IRESTART =      0    0=no restart 2=restart with 2 vectors
   NREBOOT  =      0    no. of reboots
   NMIN     =      0    reboot dimension
   EREF     =   0.00    reference energy to select bands
   IMIX   =      4    mixing-type and parameters
     AMIX     =   0.40;   BMIX     =  1.00
     AMIX_MAG =   1.60;   BMIX_MAG =  1.00
     AMIN     =   0.10
     WC   =   100.;   INIMIX=   1;  MIXPRE=   1;  MAXMIX= -45

 Intra band minimization:
   WEIMIN = 0.0000     energy-eigenvalue tresh-hold
   EBREAK =  0.10E-07  absolut break condition
   DEPER  =   0.30     relativ break condition  

   TIME   =   0.40     timestep for ELM

  volume/ion in A,a.u.               =       6.67        45.03
  Fermi-wavevector in a.u.,A,eV,Ry     =   1.380387  2.608552 25.925455  1.905467
  Thomas-Fermi vector in A             =   2.505268
 
 Write flags
   LWAVE        =      F    write WAVECAR
   LDOWNSAMPLE  =      F    k-point downsampling of WAVECAR
   LCHARG       =      F    write CHGCAR
   LVTOT        =      F    write LOCPOT, total local potential
   LVHAR        =      F    write LOCPOT, Hartree potential only
   LELF         =      F    write electronic localiz. function (ELF)
   LORBIT       =      0    0 simple, 1 ext, 2 COOP (PROOUT), +10 PAW based schemes


 Dipole corrections
   LMONO  =      F    monopole corrections only (constant potential shift)
   LDIPOL =      F    correct potential (dipole corrections)
   IDIPOL =      0    1-x, 2-y, 3-z, 4-all directions 
   EPSILON=  1.0000000 bulk dielectric constant

 Exchange correlation treatment:
   GGA     =    --    GGA type
   LEXCH   =     8    internal setting for exchange type
   VOSKOWN=      0    Vosko Wilk Nusair interpolation
   LHFCALC =     F    Hartree Fock is set to
   LHFONE  =     F    Hartree Fock one center treatment
   AEXX    =    0.0000 exact exchange contribution

 Linear response parameters
   LEPSILON=     F    determine dielectric tensor
   LRPA    =     F    only Hartree local field effects (RPA)
   LNABLA  =     F    use nabla operator in PAW spheres
   LVEL    =     F    velocity operator in full k-point grid
   LINTERFAST=   F  fast interpolation
   KINTER  =     0    interpolate to denser k-point grid
   CSHIFT  =0.1000    complex shift for real part using Kramers Kronig
   OMEGAMAX=  -1.0    maximum frequency
   DEG_THRESHOLD= 0.2000000E-02 threshold for treating states as degnerate
   RTIME   =   -0.100 relaxation time in fs
  (WPLASMAI=    0.000 imaginary part of plasma frequency in eV, 0.658/RTIME)
   DFIELD  = 0.0000000 0.0000000 0.0000000 field for delta impulse in time
 
 Orbital magnetization related:
   ORBITALMAG=     F  switch on orbital magnetization
   LCHIMAG   =     F  perturbation theory with respect to B field
   DQ        =  0.001000  dq finite difference perturbation B field
   LLRAUG    =     F  two centre corrections for induced B field



--------------------------------------------------------------------------------------------------------


 Static calculation
 charge density and potential will be updated during run
 non-spin polarized calculation
 Variant of blocked Davidson
 Davidson routine will perform the subspace rotation
 perform sub-space diagonalisation
    after iterative eigenvector-optimisation
 modified Broyden-mixing scheme, WC =      100.0
 initial mixing is a Kerker type mixing with AMIX =  0.4000 and BMIX =      1.0000
 Hartree-type preconditioning will be used
 using additional bands            8
 reciprocal scheme for non local part
 calculate Harris-corrections to forces 
   (improved forces if not selfconsistent)
 use gradient corrections 
 use of overlap-Matrix (Vanderbilt PP)
 Fermi weights with tetrahedron method with Bloechl corrections


--------------------------------------------------------------------------------------------------------


  energy-cutoff  :      400.00
  volume of cell :       53.38
      direct lattice vectors                 reciprocal lattice vectors
     3.765223425  0.000000000  0.000000000     0.265588489  0.000000000  0.000000000
     0.000000000  3.765223425  0.000000000     0.000000000  0.265588489  0.000000000
     0.000000000  0.000000000  3.765223425     0.000000000  0.000000000  0.265588489

  length of vectors
     3.765223425  3.765223425  3.765223425     0.265588489  0.265588489  0.265588489


 
 k-points in units of 2pi/SCALE and weight: kpt_density=1000                        
   0.00000000  0.00000000  0.00000000       0.001
   0.02223326  0.00000000  0.00000000       0.003
   0.04446651  0.00000000  0.00000000       0.003
   0.06669977  0.00000000  0.00000000       0.003
   0.08893302  0.00000000  0.00000000       0.003
   0.11116628  0.00000000  0.00000000       0.003
   0.13339954  0.00000000  0.00000000       0.002
   0.02223326  0.02223326  0.00000000       0.007
   0.04446651  0.02223326  0.00000000       0.014
   0.06669977  0.02223326  0.00000000       0.014
   0.08893302  0.02223326  0.00000000       0.014
   0.11116628  0.02223326  0.00000000       0.014
   0.13339954  0.02223326  0.00000000       0.007
   0.04446651  0.04446651  0.00000000       0.007
   0.06669977  0.04446651  0.00000000       0.014
   0.08893302  0.04446651  0.00000000       0.014
   0.11116628  0.04446651  0.00000000       0.014
   0.13339954  0.04446651  0.00000000       0.007
   0.06669977  0.06669977  0.00000000       0.007
   0.08893302  0.06669977  0.00000000       0.014
   0.11116628  0.06669977  0.00000000       0.014
   0.13339954  0.06669977  0.00000000       0.007
   0.08893302  0.08893302  0.00000000       0.007
   0.11116628  0.08893302  0.00000000       0.014
   0.13339954  0.08893302  0.00000000       0.007
   0.11116628  0.11116628  0.00000000       0.007
   0.13339954  0.11116628  0.00000000       0.007
   0.13339954  0.13339954  0.00000000       0.002
   0.02223326  0.02223326  0.02223326       0.005
   0.04446651  0.02223326  0.02223326       0.014
   0.06669977  0.02223326  0.02223326       0.014
   0.08893302  0.02223326  0.02223326       0.014
   0.11116628  0.02223326  0.02223326       0.014
   0.13339954  0.02223326  0.02223326       0.007
   0.04446651  0.04446651  0.02223326       0.014
   0.06669977  0.04446651  0.02223326       0.028
   0.08893302  0.04446651  0.02223326       0.028
   0.11116628  0.04446651  0.02223326       0.028
   0.13339954  0.04446651  0.02223326       0.014
   0.06669977  0.06669977  0.02223326       0.014
   0.08893302  0.06669977  0.02223326       0.028
   0.11116628  0.06669977  0.02223326       0.028
   0.13339954  0.06669977  0.02223326       0.014
   0.08893302  0.08893302  0.02223326       0.014
   0.11116628  0.08893302  0.02223326       0.028
   0.13339954  0.08893302  0.02223326       0.014
   0.11116628  0.11116628  0.02223326       0.014
   0.13339954  0.11116628  0.02223326       0.014
   0.13339954  0.13339954  0.02223326       0.003
   0.04446651  0.04446651  0.04446651       0.005
   0.06669977  0.04446651  0.04446651       0.014
   0.08893302  0.04446651  0.04446651       0.014
   0.11116628  0.04446651  0.04446651       0.014
   0.13339954  0.04446651  0.04446651       0.007
   0.06669977  0.06669977  0.04446651       0.014
   0.08893302  0.06669977  0.04446651       0.028
   0.11116628  0.06669977  0.04446651       0.028
   0.13339954  0.06669977  0.04446651       0.014
   0.08893302  0.08893302  0.04446651       0.014
   0.11116628  0.08893302  0.04446651       0.028
   0.13339954  0.08893302  0.04446651       0.014
   0.11116628  0.11116628  0.04446651       0.014
   0.13339954  0.11116628  0.04446651       0.014
   0.13339954  0.13339954  0.04446651       0.003
   0.06669977  0.06669977  0.06669977       0.005
   0.08893302  0.06669977  0.06669977       0.014
   0.11116628  0.06669977  0.06669977       0.014
   0.13339954  0.06669977  0.06669977       0.007
   0.08893302  0.08893302  0.06669977       0.014
   0.11116628  0.08893302  0.06669977       0.028
   0.13339954  0.08893302  0.06669977       0.014
   0.11116628  0.11116628  0.06669977       0.014
   0.13339954  0.11116628  0.06669977       0.014
   0.13339954  0.13339954  0.06669977       0.003
   0.08893302  0.08893302  0.08893302       0.005
   0.11116628  0.08893302  0.08893302       0.014
   0.13339954  0.08893302  0.08893302       0.007
   0.11116628  0.11116628  0.08893302       0.014
   0.13339954  0.11116628  0.08893302       0.014
   0.13339954  0.13339954  0.08893302       0.003
   0.11116628  0.11116628  0.11116628       0.005
   0.13339954  0.11116628  0.11116628       0.007
   0.13339954  0.13339954  0.11116628       0.003
   0.13339954  0.13339954  0.13339954       0.001
 
 k-points in reciprocal lattice and weights: kpt_density=1000                        
   0.00000000  0.00000000  0.00000000       0.001
   0.08333333  0.00000000  0.00000000       0.003
   0.16666667  0.00000000  0.00000000       0.003
   0.25000000  0.00000000  0.00000000       0.003
   0.33333333  0.00000000  0.00000000       0.003
   0.41666667  0.00000000  0.00000000       0.003
   0.50000000  0.00000000  0.00000000       0.002
   0.08333333  0.08333333  0.00000000       0.007
   0.16666667  0.08333333  0.00000000       0.014
   0.25000000  0.08333333  0.00000000       0.014
   0.33333333  0.08333333  0.00000000       0.014
   0.41666667  0.08333333  0.00000000       0.014
   0.50000000  0.08333333  0.00000000       0.007
   0.16666667  0.16666667  0.00000000       0.007
   0.25000000  0.16666667  0.00000000       0.014
   0.33333333  0.16666667  0.00000000       0.014
   0.41666667  0.16666667  0.00000000       0.014
   0.50000000  0.16666667  0.00000000       0.007
   0.25000000  0.25000000  0.00000000       0.007
   0.33333333  0.25000000  0.00000000       0.014
   0.41666667  0.25000000  0.00000000       0.014
   0.50000000  0.25000000  0.00000000       0.007
   0.33333333  0.33333333  0.00000000       0.007
   0.41666667  0.33333333  0.00000000       0.014
   0.50000000  0.33333333  0.00000000       0.007
   0.41666667  0.41666667  0.00000000       0.007
   0.50000000  0.41666667  0.00000000       0.007
   0.50000000  0.50000000  0.00000000       0.002
   0.08333333  0.08333333  0.08333333       0.005
   0.16666667  0.08333333  0.08333333       0.014
   0.25000000  0.08333333  0.08333333       0.014
   0.33333333  0.08333333  0.08333333       0.014
   0.41666667  0.08333333  0.08333333       0.014
   0.50000000  0.08333333  0.08333333       0.007
   0.16666667  0.16666667  0.08333333       0.014
   0.25000000  0.16666667  0.08333333       0.028
   0.33333333  0.16666667  0.08333333       0.028
   0.41666667  0.16666667  0.08333333       0.028
   0.50000000  0.16666667  0.08333333       0.014
   0.25000000  0.25000000  0.08333333       0.014
   0.33333333  0.25000000  0.08333333       0.028
   0.41666667  0.25000000  0.08333333       0.028
   0.50000000  0.25000000  0.08333333       0.014
   0.33333333  0.33333333  0.08333333       0.014
   0.41666667  0.33333333  0.08333333       0.028
   0.50000000  0.33333333  0.08333333       0.014
   0.41666667  0.41666667  0.08333333       0.014
   0.50000000  0.41666667  0.08333333       0.014
   0.50000000  0.50000000  0.08333333       0.003
   0.16666667  0.16666667  0.16666667       0.005
   0.25000000  0.16666667  0.16666667       0.014
   0.33333333  0.16666667  0.16666667       0.014
   0.41666667  0.16666667  0.16666667       0.014
   0.50000000  0.16666667  0.16666667       0.007
   0.25000000  0.25000000  0.16666667       0.014
   0.33333333  0.25000000  0.16666667       0.028
   0.41666667  0.25000000  0.16666667       0.028
   0.50000000  0.25000000  0.16666667       0.014
   0.33333333  0.33333333  0.16666667       0.014
   0.41666667  0.33333333  0.16666667       0.028
   0.50000000  0.33333333  0.16666667       0.014
   0.41666667  0.41666667  0.16666667       0.014
   0.50000000  0.41666667  0.16666667       0.014
   0.50000000  0.50000000  0.16666667       0.003
   0.25000000  0.25000000  0.25000000       0.005
   0.33333333  0.25000000  0.25000000       0.014
   0.41666667  0.25000000  0.25000000       0.014
   0.50000000  0.25000000  0.25000000       0.007
   0.33333333  0.33333333  0.25000000       0.014
   0.41666667  0.33333333  0.25000000       0.028
   0.50000000  0.33333333  0.25000000       0.014
   0.41666667  0.41666667  0.25000000       0.014
   0.50000000  0.41666667  0.25000000       0.014
   0.50000000  0.50000000  0.25000000       0.003
   0.33333333  0.33333333  0.33333333       0.005
   0.41666667  0.33333333  0.33333333       0.014
   0.50000000  0.33333333  0.33333333       0.007
   0.41666667  0.41666667  0.33333333       0.014
   0.50000000  0.41666667  0.33333333       0.014
   0.50000000  0.50000000  0.33333333       0.003
   0.41666667  0.41666667  0.41666667       0.005
   0.50000000  0.41666667  0.41666667       0.007
   0.50000000  0.50000000  0.41666667       0.003
   0.50000000  0.50000000  0.50000000       0.001
 
 position of ions in fractional coordinates (direct lattice) 
   0.25000000  0.75000000  0.25000000
   0.00000000  0.00000000  0.50000000
   0.25000000  0.25000000  0.75000000
   0.00000000  0.50000000  0.00000000
   0.75000000  0.75000000  0.75000000
   0.50000000  0.00000000  0.00000000
   0.75000000  0.25000000  0.25000000
   0.50000000  0.50000000  0.50000000
 
 position of ions in cartesian coordinates  (Angst):
   0.94130586  2.82391757  0.94130586
   0.00000000  0.00000000  1.88261171
   0.94130586  0.94130586  2.82391757
   0.00000000  1.88261171  0.00000000
   2.82391757  2.82391757  2.82391757
   1.88261171  0.00000000  0.00000000
   2.82391757  0.94130586  0.94130586
   1.88261171  1.88261171  1.88261171
 


--------------------------------------------------------------------------------------------------------


 k-point  1 :   0.0000 0.0000 0.0000  plane waves:     949
 k-point  2 :   0.0833 0.0000 0.0000  plane waves:     973
 k-point  3 :   0.1667 0.0000 0.0000  plane waves:     980
 k-point  4 :   0.2500 0.0000 0.0000  plane waves:     976
 k-point  5 :   0.3333 0.0000 0.0000  plane waves:     972
 k-point  6 :   0.4167 0.0000 0.0000  plane waves:     968
 k-point  7 :   0.5000 0.0000 0.0000  plane waves:     972
 k-point  8 :   0.0833 0.0833 0.0000  plane waves:     971
 k-point  9 :   0.1667 0.0833 0.0000  plane waves:     964
 k-point 10 :   0.2500 0.0833 0.0000  plane waves:     965
 k-point 11 :   0.3333 0.0833 0.0000  plane waves:     966
 k-point 12 :   0.4167 0.0833 0.0000  plane waves:     969
 k-point 13 :   0.5000 0.0833 0.0000  plane waves:     964
 k-point 14 :   0.1667 0.1667 0.0000  plane waves:     961
 k-point 15 :   0.2500 0.1667 0.0000  plane waves:     965
 k-point 16 :   0.3333 0.1667 0.0000  plane waves:     964
 k-point 17 :   0.4167 0.1667 0.0000  plane waves:     960
 k-point 18 :   0.5000 0.1667 0.0000  plane waves:     970
 k-point 19 :   0.2500 0.2500 0.0000  plane waves:     983
 k-point 20 :   0.3333 0.2500 0.0000  plane waves:     972
 k-point 21 :   0.4167 0.2500 0.0000  plane waves:     966
 k-point 22 :   0.5000 0.2500 0.0000  plane waves:     956
 k-point 23 :   0.3333 0.3333 0.0000  plane waves:     961
 k-point 24 :   0.4167 0.3333 0.0000  plane waves:     965
 k-point 25 :   0.5000 0.3333 0.0000  plane waves:     970
 k-point 26 :   0.4167 0.4167 0.0000  plane waves:     972
 k-point 27 :   0.5000 0.4167 0.0000  plane waves:     976
 k-point 28 :   0.5000 0.5000 0.0000  plane waves:     992
 k-point 29 :   0.0833 0.0833 0.0833  plane waves:     967
 k-point 30 :   0.1667 0.0833 0.0833  plane waves:     963
 k-point 31 :   0.2500 0.0833 0.0833  plane waves:     963
 k-point 32 :   0.3333 0.0833 0.0833  plane waves:     964
 k-point 33 :   0.4167 0.0833 0.0833  plane waves:     966
 k-point 34 :   0.5000 0.0833 0.0833  plane waves:     966
 k-point 35 :   0.1667 0.1667 0.0833  plane waves:     964
 k-point 36 :   0.2500 0.1667 0.0833  plane waves:     965
 k-point 37 :   0.3333 0.1667 0.0833  plane waves:     969
 k-point 38 :   0.4167 0.1667 0.0833  plane waves:     960
 k-point 39 :   0.5000 0.1667 0.0833  plane waves:     964
 k-point 40 :   0.2500 0.2500 0.0833  plane waves:     969
 k-point 41 :   0.3333 0.2500 0.0833  plane waves:     972
 k-point 42 :   0.4167 0.2500 0.0833  plane waves:     965
 k-point 43 :   0.5000 0.2500 0.0833  plane waves:     966
 k-point 44 :   0.3333 0.3333 0.0833  plane waves:     973
 k-point 45 :   0.4167 0.3333 0.0833  plane waves:     969
 k-point 46 :   0.5000 0.3333 0.0833  plane waves:     970
 k-point 47 :   0.4167 0.4167 0.0833  plane waves:     975
 k-point 48 :   0.5000 0.4167 0.0833  plane waves:     978
 k-point 49 :   0.5000 0.5000 0.0833  plane waves:     988
 k-point 50 :   0.1667 0.1667 0.1667  plane waves:     961
 k-point 51 :   0.2500 0.1667 0.1667  plane waves:     964
 k-point 52 :   0.3333 0.1667 0.1667  plane waves:     968
 k-point 53 :   0.4167 0.1667 0.1667  plane waves:     971
 k-point 54 :   0.5000 0.1667 0.1667  plane waves:     974
 k-point 55 :   0.2500 0.2500 0.1667  plane waves:     968
 k-point 56 :   0.3333 0.2500 0.1667  plane waves:     970
 k-point 57 :   0.4167 0.2500 0.1667  plane waves:     972
 k-point 58 :   0.5000 0.2500 0.1667  plane waves:     968
 k-point 59 :   0.3333 0.3333 0.1667  plane waves:     974
 k-point 60 :   0.4167 0.3333 0.1667  plane waves:     971
 k-point 61 :   0.5000 0.3333 0.1667  plane waves:     966
 k-point 62 :   0.4167 0.4167 0.1667  plane waves:     972
 k-point 63 :   0.5000 0.4167 0.1667  plane waves:     978
 k-point 64 :   0.5000 0.5000 0.1667  plane waves:     976
 k-point 65 :   0.2500 0.2500 0.2500  plane waves:     973
 k-point 66 :   0.3333 0.2500 0.2500  plane waves:     971
 k-point 67 :   0.4167 0.2500 0.2500  plane waves:     974
 k-point 68 :   0.5000 0.2500 0.2500  plane waves:     964
 k-point 69 :   0.3333 0.3333 0.2500  plane waves:     975
 k-point 70 :   0.4167 0.3333 0.2500  plane waves:     973
 k-point 71 :   0.5000 0.3333 0.2500  plane waves:     972
 k-point 72 :   0.4167 0.4167 0.2500  plane waves:     980
 k-point 73 :   0.5000 0.4167 0.2500  plane waves:     980
 k-point 74 :   0.5000 0.5000 0.2500  plane waves:     988
 k-point 75 :   0.3333 0.3333 0.3333  plane waves:     979
 k-point 76 :   0.4167 0.3333 0.3333  plane waves:     974
 k-point 77 :   0.5000 0.3333 0.3333  plane waves:     974
 k-point 78 :   0.4167 0.4167 0.3333  plane waves:     975
 k-point 79 :   0.5000 0.4167 0.3333  plane waves:     976
 k-point 80 :   0.5000 0.5000 0.3333  plane waves:     980
 k-point 81 :   0.4167 0.4167 0.4167  plane waves:     973
 k-point 82 :   0.5000 0.4167 0.4167  plane waves:     974
 k-point 83 :   0.5000 0.5000 0.4167  plane waves:     968
 k-point 84 :   0.5000 0.5000 0.5000  plane waves:     968

 maximum and minimum number of plane-waves per node :       260      228

 maximum number of plane-waves:       992
 maximum index in each direction: 
   IXMAX=    6   IYMAX=    6   IZMAX=    6
   IXMIN=   -6   IYMIN=   -6   IZMIN=   -6


 parallel 3D FFT for wavefunctions:
    minimum data exchange during FFTs selected (reduces bandwidth)
 parallel 3D FFT for charge:
    minimum data exchange during FFTs selected (reduces bandwidth)


 total amount of memory used by VASP MPI-rank0    35086. kBytes
=======================================================================

   base      :      30000. kBytes
   nonl-proj :       1431. kBytes
   fftplans  :        585. kBytes
   grid      :        839. kBytes
   one-center:          6. kBytes
   wavefun   :       2225. kBytes
 
     INWAV:  cpu time    0.0004: real time    0.0005
 Broyden mixing: mesh for mixing (old mesh)
   NGX = 13   NGY = 13   NGZ = 13
  (NGX  = 56   NGY  = 56   NGZ  = 56)
  gives a total of   2197 points

 initial charge density was supplied:
 charge density of overlapping atoms calculated
 number of electron      32.0000000 magnetization 
 keeping initial charge density in first step


--------------------------------------------------------------------------------------------------------


 Maximum index for augmentation-charges          478 (set IRDMAX)


--------------------------------------------------------------------------------------------------------


 First call to EWALD:  gamma=   0.471
 Maximum number of real-space cells 3x 3x 3
 Maximum number of reciprocal cells 3x 3x 3

    FEWALD:  cpu time    0.0053: real time    0.0053


--------------------------------------- Iteration      1(   1)  ---------------------------------------


    POTLOK:  cpu time    0.0760: real time    0.0799
    SETDIJ:  cpu time    0.0067: real time    0.0067
     EDDAV:  cpu time    4.1722: real time    4.1829
 BZINTS: Fermi energy: 16.066530; 32.000000 electrons
         Band energy:  86.018547;  BLOECHL correction: -0.131988
       DOS:  cpu time    0.1606: real time    0.1606
    --------------------------------------------
      LOOP:  cpu time    4.4157: real time    4.4302

 eigenvalue-minimisations  :  4032
 total energy-change (2. order) : 0.5804211E+02  (-0.1406937E+04)
 number of electron      32.0000000 magnetization 
 augmentation part       32.0000000 magnetization 

 Free energy of the ion-electron system (eV)
  ---------------------------------------------------
  alpha Z        PSCENC =        97.69213760
  Ewald energy   TEWEN  =     -1318.48747841
  -Hartree energ DENC   =       -85.46853864
  -exchange      EXHF   =         0.00000000
  -V(xc)+E(xc)   XCENC  =       110.47349370
  PAW double counting   =       302.65154477     -311.85538214
  entropy T*S    EENTRO =         0.00000000
  eigenvalues    EBANDS =        86.01854674
  atomic energy  EATOM  =      1177.01779097
  Solvation  Ediel_sol  =         0.00000000
  ---------------------------------------------------
  free energy    TOTEN  =        58.04211459 eV

  energy without entropy =       58.04211459  energy(sigma->0) =       58.04211459


--------------------------------------------------------------------------------------------------------




--------------------------------------- Iteration      1(   2)  ---------------------------------------


     EDDAV:  cpu time    5.3473: real time    5.3481
 BZINTS: Fermi energy:  7.306765; 32.000000 electrons
         Band energy: -40.265449;  BLOECHL correction:  0.000000
       DOS:  cpu time    0.0444: real time    0.0444
    --------------------------------------------
      LOOP:  cpu time    5.3917: real time    5.3926

 eigenvalue-minimisations  :  5648
 total energy-change (2. order) :-0.1262840E+03  (-0.1196395E+03)
 number of electron      32.0000000 magnetization 
 augmentation part       32.0000000 magnetization 

 Free energy of the ion-electron system (eV)
  ---------------------------------------------------
  alpha Z        PSCENC =        97.69213760
  Ewald energy   TEWEN  =     -1318.48747841
  -Hartree energ DENC   =       -85.46853864
  -exchange      EXHF   =         0.00000000
  -V(xc)+E(xc)   XCENC  =       110.47349370
  PAW double counting   =       302.65154477     -311.85538214
  entropy T*S    EENTRO =         0.00000000
  eigenvalues    EBANDS =       -40.26544863
  atomic energy  EATOM  =      1177.01779097
  Solvation  Ediel_sol  =         0.00000000
  ---------------------------------------------------
  free energy    TOTEN  =       -68.24188078 eV

  energy without entropy =      -68.24188078  energy(sigma->0) =      -68.24188078


--------------------------------------------------------------------------------------------------------




--------------------------------------- Iteration      1(   3)  ---------------------------------------


     EDDAV:  cpu time    5.2572: real time    5.2603
 BZINTS: Fermi energy:  6.492171; 32.000000 electrons
         Band energy: -44.783558;  BLOECHL correction:  0.000000
       DOS:  cpu time    0.0354: real time    0.0354
    --------------------------------------------
      LOOP:  cpu time    5.2926: real time    5.2958

 eigenvalue-minimisations  :  5296
 total energy-change (2. order) :-0.4518110E+01  (-0.4493739E+01)
 number of electron      32.0000000 magnetization 
 augmentation part       32.0000000 magnetization 

 Free energy of the ion-electron system (eV)
  ---------------------------------------------------
  alpha Z        PSCENC =        97.69213760
  Ewald energy   TEWEN  =     -1318.48747841
  -Hartree energ DENC   =       -85.46853864
  -exchange      EXHF   =         0.00000000
  -V(xc)+E(xc)   XCENC  =       110.47349370
  PAW double counting   =       302.65154477     -311.85538214
  entropy T*S    EENTRO =         0.00000000
  eigenvalues    EBANDS =       -44.78355842
  atomic energy  EATOM  =      1177.01779097
  Solvation  Ediel_sol  =         0.00000000
  ---------------------------------------------------
  free energy    TOTEN  =       -72.75999057 eV

  energy without entropy =      -72.75999057  energy(sigma->0) =      -72.75999057


--------------------------------------------------------------------------------------------------------




--------------------------------------- Iteration      1(   4)  ---------------------------------------


     EDDAV:  cpu time    5.0387: real time    5.0394
 BZINTS: Fermi energy:  6.464214; 32.000000 electrons
         Band energy: -44.837769;  BLOECHL correction:  0.000000
       DOS:  cpu time    0.0358: real time    0.0358
    --------------------------------------------
      LOOP:  cpu time    5.0744: real time    5.0752

 eigenvalue-minimisations  :  5296
 total energy-change (2. order) :-0.5421069E-01  (-0.5415306E-01)
 number of electron      32.0000000 magnetization 
 augmentation part       32.0000000 magnetization 

 Free energy of the ion-electron system (eV)
  ---------------------------------------------------
  alpha Z        PSCENC =        97.69213760
  Ewald energy   TEWEN  =     -1318.48747841
  -Hartree energ DENC   =       -85.46853864
  -exchange      EXHF   =         0.00000000
  -V(xc)+E(xc)   XCENC  =       110.47349370
  PAW double counting   =       302.65154477     -311.85538214
  entropy T*S    EENTRO =         0.00000000
  eigenvalues    EBANDS =       -44.83776911
  atomic energy  EATOM  =      1177.01779097
  Solvation  Ediel_sol  =         0.00000000
  ---------------------------------------------------
  free energy    TOTEN  =       -72.81420126 eV

  energy without entropy =      -72.81420126  energy(sigma->0) =      -72.81420126


--------------------------------------------------------------------------------------------------------




--------------------------------------- Iteration      1(   5)  ---------------------------------------


     EDDAV:  cpu time    4.9299: real time    4.9306
 BZINTS: Fermi energy:  6.454664; 32.000000 electrons
         Band energy: -44.838942;  BLOECHL correction:  0.000000
       DOS:  cpu time    0.0354: real time    0.0354
    CHARGE:  cpu time    0.1453: real time    0.1453
    MIXING:  cpu time    0.0020: real time    0.0020
    --------------------------------------------
      LOOP:  cpu time    5.1126: real time    5.1133

 eigenvalue-minimisations  :  5200
 total energy-change (2. order) :-0.1173228E-02  (-0.1172574E-02)
 number of electron      32.0000004 magnetization 
 augmentation part        0.6614776 magnetization 

 Broyden mixing:
  rms(total) = 0.77943E+00    rms(broyden)= 0.77934E+00
  rms(prec ) = 0.17626E+01
  weight for this iteration     100.00

 Free energy of the ion-electron system (eV)
  ---------------------------------------------------
  alpha Z        PSCENC =        97.69213760
  Ewald energy   TEWEN  =     -1318.48747841
  -Hartree energ DENC   =       -85.46853864
  -exchange      EXHF   =         0.00000000
  -V(xc)+E(xc)   XCENC  =       110.47349370
  PAW double counting   =       302.65154477     -311.85538214
  entropy T*S    EENTRO =         0.00000000
  eigenvalues    EBANDS =       -44.83894234
  atomic energy  EATOM  =      1177.01779097
  Solvation  Ediel_sol  =         0.00000000
  ---------------------------------------------------
  free energy    TOTEN  =       -72.81537449 eV

  energy without entropy =      -72.81537449  energy(sigma->0) =      -72.81537449


--------------------------------------------------------------------------------------------------------




--------------------------------------- Iteration      1(   6)  ---------------------------------------


    POTLOK:  cpu time    0.0287: real time    0.0291
    SETDIJ:  cpu time    0.0059: real time    0.0059
     EDDAV:  cpu time    4.6568: real time    4.6571
 BZINTS: Fermi energy:  6.989342; 32.000000 electrons
         Band energy: -31.797842;  BLOECHL correction:  0.000000
       DOS:  cpu time    0.0358: real time    0.0358
    CHARGE:  cpu time    0.1396: real time    0.1396
    MIXING:  cpu time    0.0022: real time    0.0022
    --------------------------------------------
      LOOP:  cpu time    4.8690: real time    4.8698

 eigenvalue-minimisations  :  4776
 total energy-change (2. order) : 0.1087848E+01  (-0.7507984E-01)
 number of electron      32.0000004 magnetization 
 augmentation part        0.6488023 magnetization 

 Broyden mixing:
  rms(total) = 0.44067E+00    rms(broyden)= 0.44066E+00
  rms(prec ) = 0.97677E+00
  weight for this iteration     100.00

 eigenvalues of (default mixing * dielectric matrix)
  average eigenvalue GAMMA=   2.2406
  2.2406

 Free energy of the ion-electron system (eV)
  ---------------------------------------------------
  alpha Z        PSCENC =        97.69213760
  Ewald energy   TEWEN  =     -1318.48747841
  -Hartree energ DENC   =       -98.24763123
  -exchange      EXHF   =         0.00000000
  -V(xc)+E(xc)   XCENC  =       111.64748409
  PAW double counting   =       366.39937322     -375.95136075
  entropy T*S    EENTRO =         0.00000000
  eigenvalues    EBANDS =       -31.79784218
  atomic energy  EATOM  =      1177.01779097
  Solvation  Ediel_sol  =         0.00000000
  ---------------------------------------------------
  free energy    TOTEN  =       -71.72752670 eV

  energy without entropy =      -71.72752670  energy(sigma->0) =      -71.72752670


--------------------------------------------------------------------------------------------------------




--------------------------------------- Iteration      1(   7)  ---------------------------------------


    POTLOK:  cpu time    0.0268: real time    0.0272
    SETDIJ:  cpu time    0.0059: real time    0.0059
     EDDAV:  cpu time    4.9213: real time    4.9217
 BZINTS: Fermi energy:  7.593549; 32.000000 electrons
         Band energy: -16.101387;  BLOECHL correction:  0.000000
       DOS:  cpu time    0.0356: real time    0.0356
    CHARGE:  cpu time    0.1520: real time    0.1520
    MIXING:  cpu time    0.0020: real time    0.0020
    --------------------------------------------
      LOOP:  cpu time    5.1436: real time    5.1444

 eigenvalue-minimisations  :  4928
 total energy-change (2. order) : 0.3687641E+00  (-0.8938346E-01)
 number of electron      32.0000004 magnetization 
 augmentation part        0.6353184 magnetization 

 Broyden mixing:
  rms(total) = 0.63535E-01    rms(broyden)= 0.63481E-01
  rms(prec ) = 0.11065E+00
  weight for this iteration     100.00

 eigenvalues of (default mixing * dielectric matrix)
  average eigenvalue GAMMA=   2.2595
  1.9913  2.5277

 Free energy of the ion-electron system (eV)
  ---------------------------------------------------
  alpha Z        PSCENC =        97.69213760
  Ewald energy   TEWEN  =     -1318.48747841
  -Hartree energ DENC   =      -114.80129574
  -exchange      EXHF   =         0.00000000
  -V(xc)+E(xc)   XCENC  =       113.19815965
  PAW double counting   =       451.25705536     -461.13374481
  entropy T*S    EENTRO =         0.00000000
  eigenvalues    EBANDS =       -16.10138723
  atomic energy  EATOM  =      1177.01779097
  Solvation  Ediel_sol  =         0.00000000
  ---------------------------------------------------
  free energy    TOTEN  =       -71.35876261 eV

  energy without entropy =      -71.35876261  energy(sigma->0) =      -71.35876261


--------------------------------------------------------------------------------------------------------




--------------------------------------- Iteration      1(   8)  ---------------------------------------


    POTLOK:  cpu time    0.0274: real time    0.0278
    SETDIJ:  cpu time    0.0060: real time    0.0060
     EDDAV:  cpu time    4.9731: real time    4.9735
 BZINTS: Fermi energy:  7.593140; 32.000000 electrons
         Band energy: -15.947453;  BLOECHL correction:  0.000000
       DOS:  cpu time    0.0356: real time    0.0356
    CHARGE:  cpu time    0.1512: real time    0.1512
    MIXING:  cpu time    0.0028: real time    0.0028
    --------------------------------------------
      LOOP:  cpu time    5.1962: real time    5.1970

 eigenvalue-minimisations  :  5160
 total energy-change (2. order) :-0.5570344E-02  (-0.1918119E-02)
 number of electron      32.0000004 magnetization 
 augmentation part        0.6363390 magnetization 

 Broyden mixing:
  rms(total) = 0.72133E-02    rms(broyden)= 0.72014E-02
  rms(prec ) = 0.12567E-01
  weight for this iteration     100.00

 eigenvalues of (default mixing * dielectric matrix)
  average eigenvalue GAMMA=   2.1062
  1.4456  2.6760  2.1972

 Free energy of the ion-electron system (eV)
  ---------------------------------------------------
  alpha Z        PSCENC =        97.69213760
  Ewald energy   TEWEN  =     -1318.48747841
  -Hartree energ DENC   =      -115.10202510
  -exchange      EXHF   =         0.00000000
  -V(xc)+E(xc)   XCENC  =       113.22702147
  PAW double counting   =       454.14471647     -463.90904264
  entropy T*S    EENTRO =         0.00000000
  eigenvalues    EBANDS =       -15.94745331
  atomic energy  EATOM  =      1177.01779097
  Solvation  Ediel_sol  =         0.00000000
  ---------------------------------------------------
  free energy    TOTEN  =       -71.36433296 eV

  energy without entropy =      -71.36433296  energy(sigma->0) =      -71.36433296


--------------------------------------------------------------------------------------------------------




--------------------------------------- Iteration      1(   9)  ---------------------------------------


    POTLOK:  cpu time    0.0286: real time    0.1147
    SETDIJ:  cpu time    0.0058: real time    0.0058
     EDDAV:  cpu time    5.0966: real time    5.0970
 BZINTS: Fermi energy:  7.588650; 32.000000 electrons
         Band energy: -16.046246;  BLOECHL correction:  0.000000
       DOS:  cpu time    0.0356: real time    0.0356
    CHARGE:  cpu time    0.1693: real time    0.1693
    MIXING:  cpu time    0.0025: real time    0.0025
    --------------------------------------------
      LOOP:  cpu time    5.3384: real time    5.4249

 eigenvalue-minimisations  :  5160
 total energy-change (2. order) :-0.2425985E-03  (-0.4373548E-04)
 number of electron      32.0000004 magnetization 
 augmentation part        0.6362918 magnetization 

 Broyden mixing:
  rms(total) = 0.25967E-02    rms(broyden)= 0.25962E-02
  rms(prec ) = 0.47698E-02
  weight for this iteration     100.00

 eigenvalues of (default mixing * dielectric matrix)
  average eigenvalue GAMMA=   2.0680
  0.9767  2.8105  2.5026  1.9824

 Free energy of the ion-electron system (eV)
  ---------------------------------------------------
  alpha Z        PSCENC =        97.69213760
  Ewald energy   TEWEN  =     -1318.48747841
  -Hartree energ DENC   =      -115.00625506
  -exchange      EXHF   =         0.00000000
  -V(xc)+E(xc)   XCENC  =       113.21769700
  PAW double counting   =       453.27425087     -463.02647205
  entropy T*S    EENTRO =         0.00000000
  eigenvalues    EBANDS =       -16.04624646
  atomic energy  EATOM  =      1177.01779097
  Solvation  Ediel_sol  =         0.00000000
  ---------------------------------------------------
  free energy    TOTEN  =       -71.36457555 eV

  energy without entropy =      -71.36457555  energy(sigma->0) =      -71.36457555


--------------------------------------------------------------------------------------------------------




--------------------------------------- Iteration      1(  10)  ---------------------------------------


    POTLOK:  cpu time    0.0281: real time    0.0285
    SETDIJ:  cpu time    0.0059: real time    0.0059
     EDDAV:  cpu time    5.1075: real time    5.1080
 BZINTS: Fermi energy:  7.589752; 32.000000 electrons
         Band energy: -16.001216;  BLOECHL correction:  0.000000
       DOS:  cpu time    0.0356: real time    0.0356
    CHARGE:  cpu time    0.1484: real time    0.1484
    MIXING:  cpu time    0.0025: real time    0.0025
    --------------------------------------------
      LOOP:  cpu time    5.3281: real time    5.3290

 eigenvalue-minimisations  :  5056
 total energy-change (2. order) :-0.5808763E-04  (-0.6038742E-05)
 number of electron      32.0000004 magnetization 
 augmentation part        0.6362614 magnetization 

 Broyden mixing:
  rms(total) = 0.24495E-03    rms(broyden)= 0.24436E-03
  rms(prec ) = 0.57017E-03
  weight for this iteration     100.00

 eigenvalues of (default mixing * dielectric matrix)
  average eigenvalue GAMMA=   1.9853
  2.9843  2.5626  2.0756  0.9797  1.3245

 Free energy of the ion-electron system (eV)
  ---------------------------------------------------
  alpha Z        PSCENC =        97.69213760
  Ewald energy   TEWEN  =     -1318.48747841
  -Hartree energ DENC   =      -115.05347799
  -exchange      EXHF   =         0.00000000
  -V(xc)+E(xc)   XCENC  =       113.22188399
  PAW double counting   =       452.91177955     -462.66605295
  entropy T*S    EENTRO =         0.00000000
  eigenvalues    EBANDS =       -16.00121639
  atomic energy  EATOM  =      1177.01779097
  Solvation  Ediel_sol  =         0.00000000
  ---------------------------------------------------
  free energy    TOTEN  =       -71.36463364 eV

  energy without entropy =      -71.36463364  energy(sigma->0) =      -71.36463364


--------------------------------------------------------------------------------------------------------




--------------------------------------- Iteration      1(  11)  ---------------------------------------


    POTLOK:  cpu time    0.0275: real time    0.0278
    SETDIJ:  cpu time    0.0059: real time    0.0059
     EDDAV:  cpu time    4.3573: real time    4.3577
 BZINTS: Fermi energy:  7.589953; 32.000000 electrons
         Band energy: -15.988973;  BLOECHL correction:  0.000000
       DOS:  cpu time    0.0356: real time    0.0356
    --------------------------------------------
      LOOP:  cpu time    4.4263: real time    4.4269

 eigenvalue-minimisations  :  3936
 total energy-change (2. order) :-0.2581880E-06  (-0.1125792E-06)
 number of electron      32.0000004 magnetization 
 augmentation part        0.6362614 magnetization 

 Free energy of the ion-electron system (eV)
  ---------------------------------------------------
  alpha Z        PSCENC =        97.69213760
  Ewald energy   TEWEN  =     -1318.48747841
  -Hartree energ DENC   =      -115.06635372
  -exchange      EXHF   =         0.00000000
  -V(xc)+E(xc)   XCENC  =       113.22309632
  PAW double counting   =       452.95641274     -462.71126690
  entropy T*S    EENTRO =         0.00000000
  eigenvalues    EBANDS =       -15.98897251
  atomic energy  EATOM  =      1177.01779097
  Solvation  Ediel_sol  =         0.00000000
  ---------------------------------------------------
  free energy    TOTEN  =       -71.36463390 eV

  energy without entropy =      -71.36463390  energy(sigma->0) =      -71.36463390


--------------------------------------------------------------------------------------------------------




 average (electrostatic) potential at core
  the test charge radii are     0.6991
  (the norm of the test charge is              1.0000)
       1 -47.6637       2 -47.6637       3 -47.6637       4 -47.6637       5 -47.6637
       6 -47.6637       7 -47.6637       8 -47.6637
 
 
 
 E-fermi :   7.5900     XC(G=0): -12.4252     alpha+bet :-15.0455


 k-point     1 :       0.0000    0.0000    0.0000
  band No.  band energies     occupation 
      1     -11.8776      2.00000
      2      -4.1628      2.00000
      3      -4.1628      2.00000
      4      -4.1628      2.00000
      5      -4.1628      2.00000
      6      -4.1628      2.00000
      7      -4.1628      2.00000
      8       2.1719      2.00000
      9       2.1719      2.00000
     10       2.1719      2.00000
     11       2.1719      2.00000
     12       2.1719      2.00000
     13       2.1719      2.00000
     14       7.5393      2.00000
     15       7.5393      2.00000
     16       7.5393      2.00000
     17      11.9525      0.00000
     18      11.9525      0.00000
     19      11.9525      0.00000
     20      11.9525      0.00000
     21      11.9525      0.00000
     22      11.9525      0.00000
     23      12.6983      0.00000
     24      12.6983      0.00000

 k-point     2 :       0.0833    0.0000    0.0000
  band No.  band energies     occupation 
      1     -11.8204      2.00000
      2      -5.3092      2.00000
      3      -4.1318      2.00000
      4      -4.1318      2.00000
      5      -4.1318      2.00000
      6      -4.1318      2.00000
      7      -2.9647      2.00000
      8       2.0490      2.00000
      9       2.0490      2.00000
     10       2.0490      2.00000
     11       2.0490      2.00000
     12       2.2219      2.00000
     13       2.2219      2.00000
     14       7.3258      2.00000
     15       7.3258      2.00000
     16       7.3747      2.00000
     17      11.6247      0.00000
     18      12.1824      0.00000
     19      12.1824      0.00000
     20      12.1824      0.00000
     21      12.1824      0.00000
     22      12.4087      0.00000
     23      12.6486      0.00000
     24      12.9576      0.00000

 k-point     3 :       0.1667    0.0000    0.0000
  band No.  band energies     occupation 
      1     -11.6491      2.00000
      2      -6.3887      2.00000
      3      -4.0438      2.00000
      4      -4.0438      2.00000
      5      -4.0438      2.00000
      6      -4.0438      2.00000
      7      -1.7300      2.00000
      8       1.7350      2.00000
      9       1.7350      2.00000
     10       1.7350      2.00000
     11       1.7350      2.00000
     12       2.3845      2.00000
     13       2.3845      2.00000
     14       6.7900      2.00000
     15       6.7900      2.00000
     16       6.9095      2.00000
     17      11.4228      0.00000
     18      12.5086      0.00000
     19      12.8289      0.00000
     20      12.8289      0.00000
     21      12.8289      0.00000
     22      12.8289      0.00000
     23      13.0056      0.00000
     24      13.6302      0.00000

 k-point     4 :       0.2500    0.0000    0.0000
  band No.  band energies     occupation 
      1     -11.3642      2.00000
      2      -7.3902      2.00000
      3      -3.9130      2.00000
      4      -3.9130      2.00000
      5      -3.9130      2.00000
      6      -3.9130      2.00000
      7      -0.4778      2.00000
      8       1.3247      2.00000
      9       1.3247      2.00000
     10       1.3247      2.00000
     11       1.3247      2.00000
     12       2.6535      2.00000
     13       2.6535      2.00000
     14       6.1075      2.00000
     15       6.1075      2.00000
     16       6.2057      2.00000
     17      11.3333      0.00000
     18      12.2943      0.00000
     19      13.7421      0.00000
     20      13.7989      0.00000
     21      13.7989      0.00000
     22      13.7989      0.00000
     23      13.7990      0.00000
     24      14.5434      0.00000

 k-point     5 :       0.3333    0.0000    0.0000
  band No.  band energies     occupation 
      1     -10.9672      2.00000
      2      -8.3045      2.00000
      3      -3.7678      2.00000
      4      -3.7678      2.00000
      5      -3.7678      2.00000
      6      -3.7678      2.00000
      7       0.7718      2.00000
      8       0.9250      2.00000
      9       0.9250      2.00000
     10       0.9250      2.00000
     11       0.9250      2.00000
     12       3.0268      2.00000
     13       3.0268      2.00000
     14       5.3177      2.00000
     15       5.3872      2.00000
     16       5.3872      2.00000
     17      11.3444      0.00000
     18      12.0609      0.00000
     19      14.6054      0.00000
     20      14.9840      0.00000
     21      14.9840      0.00000
     22      14.9840      0.00000
     23      14.9841      0.00000
     24      15.5734      0.00000

 k-point     6 :       0.4167    0.0000    0.0000
  band No.  band energies     occupation 
      1     -10.4597      2.00000
      2      -9.1245      2.00000
      3      -3.6496      2.00000
      4      -3.6496      2.00000
      5      -3.6496      2.00000
      6      -3.6496      2.00000
      7       0.6347      2.00000
      8       0.6347      2.00000
      9       0.6347      2.00000
     10       0.6347      2.00000
     11       1.9980      2.00000
     12       3.4965      2.00000
     13       3.4965      2.00000
     14       4.2969      2.00000
     15       4.6936      2.00000
     16       4.6936      2.00000
     17      11.4359      0.00000
     18      11.8177      0.00000
     19      15.5563      0.00000
     20      16.2900      0.00000
     21      16.2900      0.00000
     22      16.2900      0.00000
     23      16.2939      0.00000
     24      16.6575      0.00000

 k-point     7 :       0.5000    0.0000    0.0000
  band No.  band energies     occupation 
      1      -9.8444      2.00000
      2      -9.8444      2.00000
      3      -3.6035      2.00000
      4      -3.6035      2.00000
      5      -3.6035      2.00000
      6      -3.6035      2.00000
      7       0.5261      2.00000
      8       0.5261      2.00000
      9       0.5261      2.00000
     10       0.5261      2.00000
     11       3.1832      2.00000
     12       3.1832      2.00000
     13       4.0583      2.00000
     14       4.0583      2.00000
     15       4.0583      2.00000
     16       4.0583      2.00000
     17      11.6038      0.00000
     18      11.6038      0.00000
     19      16.5154      0.00000
     20      16.5154      0.00000
     21      17.4270      0.00000
     22      17.4272      0.00000
     23      17.4277      0.00000
     24      17.4295      0.00000

 k-point     8 :       0.0833    0.0833    0.0000
  band No.  band energies     occupation 
      1     -11.7633      2.00000
      2      -5.2697      2.00000
      3      -5.2697      2.00000
      4      -4.1491      2.00000
      5      -4.0570      2.00000
      6      -2.9469      2.00000
      7      -2.9469      2.00000
      8       1.6414      2.00000
      9       2.0909      2.00000
     10       2.0909      2.00000
     11       2.1232      2.00000
     12       2.1232      2.00000
     13       2.2609      2.00000
     14       6.9018      2.00000
     15       7.1178      2.00000
     16       7.4697      2.00000
     17      11.8612      0.00000
     18      11.8612      0.00000
     19      12.0452      0.00000
     20      12.6312      0.00000
     21      12.6312      0.00000
     22      12.7403      0.00000
     23      12.8111      0.00000
     24      13.0026      0.00000

 k-point     9 :       0.1667    0.0833    0.0000
  band No.  band energies     occupation 
      1     -11.5921      2.00000
      2      -6.3436      2.00000
      3      -5.1541      2.00000
      4      -4.1224      2.00000
      5      -3.9206      2.00000
      6      -2.9010      2.00000
      7      -1.7333      2.00000
      8       1.1343      2.00000
      9       1.7375      2.00000
     10       1.8620      2.00000
     11       2.2362      2.00000
     12       2.2444      2.00000
     13       2.3135      2.00000
     14       6.2467      2.00000
     15       6.5941      2.00000
     16       7.2219      2.00000
     17      11.6643      0.00000
     18      12.3656      0.00000
     19      12.5251      0.00000
     20      12.7324      0.00000
     21      13.2179      0.00000
     22      13.2582      0.00000
     23      13.6146      0.00000
     24      13.6511      0.00000

 k-point    10 :       0.2500    0.0833    0.0000
  band No.  band energies     occupation 
      1     -11.3076      2.00000
      2      -7.3413      2.00000
      3      -4.9717      2.00000
      4      -4.0796      2.00000
      5      -3.7280      2.00000
      6      -2.8498      2.00000
      7      -0.5157      2.00000
      8       0.6385      2.00000
      9       1.2668      2.00000
     10       1.5395      2.00000
     11       2.0139      2.00000
     12       2.5039      2.00000
     13       2.6206      2.00000
     14       5.4786      2.00000
     15       5.9206      2.00000
     16       6.6756      2.00000
     17      11.5782      0.00000
     18      12.5309      0.00000
     19      13.0938      0.00000
     20      13.5135      0.00000
     21      13.9414      0.00000
     22      14.2012      0.00000
     23      14.5105      0.00000
     24      14.5221      0.00000

 k-point    11 :       0.3333    0.0833    0.0000
  band No.  band energies     occupation 
      1     -10.9110      2.00000
      2      -8.2530      2.00000
      3      -4.7408      2.00000
      4      -4.0630      2.00000
      5      -3.4953      2.00000
      6      -2.8308      2.00000
      7       0.2549      2.00000
      8       0.6763      2.00000
      9       0.7810      2.00000
     10       1.2641      2.00000
     11       1.6965      2.00000
     12       2.8681      2.00000
     13       3.0537      2.00000
     14       4.6544      2.00000
     15       5.2072      2.00000
     16       5.9409      2.00000
     17      11.5893      0.00000
     18      12.3005      0.00000
     19      14.1247      0.00000
     20      14.7162      0.00000
     21      14.7889      0.00000
     22      15.3554      0.00000
     23      15.4497      0.00000
     24      15.5565      0.00000

 k-point    12 :       0.4167    0.0833    0.0000
  band No.  band energies     occupation 
      1     -10.4042      2.00000
      2      -9.0712      2.00000
      3      -4.4920      2.00000
      4      -4.1188      2.00000
      5      -3.2498      2.00000
      6      -2.8855      2.00000
      7       0.0659      2.00000
      8       0.3700      2.00000
      9       1.1273      2.00000
     10       1.3875      2.00000
     11       1.8077      2.00000
     12       3.3324      2.00000
     13       3.6200      2.00000
     14       3.7865      2.00000
     15       4.5181      2.00000
     16       5.1181      2.00000
     17      11.6840      0.00000
     18      12.0613      0.00000
     19      15.3534      0.00000
     20      15.7187      0.00000
     21      16.0413      0.00000
     22      16.4322      0.00000
     23      16.6060      0.00000
     24      16.6414      0.00000

 k-point    13 :       0.5000    0.0833    0.0000
  band No.  band energies     occupation 
      1      -9.7898      2.00000
      2      -9.7898      2.00000
      3      -4.2689      2.00000
      4      -4.2689      2.00000
      5      -3.0320      2.00000
      6      -3.0320      2.00000
      7       0.1117      2.00000
      8       0.1117      2.00000
      9       1.1758      2.00000
     10       1.1758      2.00000
     11       2.8483      2.00000
     12       2.8483      2.00000
     13       3.8869      2.00000
     14       3.8869      2.00000
     15       4.3179      2.00000
     16       4.3179      2.00000
     17      11.8484      0.00000
     18      11.8484      0.00000
     19      16.6178      0.00000
     20      16.6178      0.00000
     21      16.6488      0.00000
     22      16.6489      0.00000
     23      17.4059      0.00000
     24      17.4150      0.00000

 k-point    14 :       0.1667    0.1667    0.0000
  band No.  band energies     occupation 
      1     -11.4214      2.00000
      2      -6.2101      2.00000
      3      -6.2101      2.00000
      4      -4.1838      2.00000
      5      -3.7402      2.00000
      6      -1.7542      2.00000
      7      -1.7542      2.00000
      8       0.5410      2.00000
      9       1.8628      2.00000
     10       1.8628      2.00000
     11       2.1301      2.00000
     12       2.1301      2.00000
     13       2.5325      2.00000
     14       5.5147      2.00000
     15       6.0898      2.00000
     16       7.2580      2.00000
     17      12.3208      0.00000
     18      12.3389      0.00000
     19      12.3389      0.00000
     20      13.1465      0.00000
     21      13.7379      0.00000
     22      13.8184      0.00000
     23      13.8184      0.00000
     24      13.9901      0.00000

 k-point    15 :       0.2500    0.1667    0.0000
  band No.  band energies     occupation 
      1     -11.1378      2.00000
      2      -7.1958      2.00000
      3      -5.9942      2.00000
      4      -4.2702      2.00000
      5      -3.4993      2.00000
      6      -1.8220      2.00000
      7      -0.6398      2.00000
      8       0.0597      2.00000
      9       1.3487      2.00000
     10       1.9316      2.00000
     11       2.1019      2.00000
     12       2.5510      2.00000
     13       2.5957      2.00000
     14       4.7152      2.00000
     15       5.4325      2.00000
     16       6.9417      2.00000
     17      12.2572      0.00000
     18      12.7225      0.00000
     19      13.1227      0.00000
     20      13.3355      0.00000
     21      14.4847      0.00000
     22      14.4928      0.00000
     23      14.5091      0.00000
     24      14.7245      0.00000

 k-point    16 :       0.3333    0.1667    0.0000
  band No.  band energies     occupation 
      1     -10.7426      2.00000
      2      -8.0994      2.00000
      3      -5.7077      2.00000
      4      -4.4292      2.00000
      5      -3.2044      2.00000
      6      -1.9711      2.00000
      7      -0.2226      2.00000
      8       0.4049      2.00000
      9       0.8041      2.00000
     10       1.8141      2.00000
     11       2.4516      2.00000
     12       2.4639      2.00000
     13       3.1395      2.00000
     14       3.8954      2.00000
     15       4.7347      2.00000
     16       6.3452      2.00000
     17      12.2727      0.00000
     18      12.9307      0.00000
     19      13.5153      0.00000
     20      14.5423      0.00000
     21      15.1902      0.00000
     22      15.3152      0.00000
     23      15.5050      0.00000
     24      15.8310      0.00000

 k-point    17 :       0.4167    0.1667    0.0000
  band No.  band energies     occupation 
      1     -10.2379      2.00000
      2      -8.9118      2.00000
      3      -5.3703      2.00000
      4      -4.6843      2.00000
      5      -2.8712      2.00000
      6      -2.2140      2.00000
      7      -0.2583      2.00000
      8       0.3113      2.00000
      9       1.3582      2.00000
     10       1.8385      2.00000
     11       2.2291      2.00000
     12       2.8989      2.00000
     13       3.0728      2.00000
     14       3.8761      2.00000
     15       4.0603      2.00000
     16       5.5718      2.00000
     17      12.3621      0.00000
     18      12.7168      0.00000
     19      14.5913      0.00000
     20      15.8748      0.00000
     21      16.0042      0.00000
     22      16.1801      0.00000
     23      16.6060      0.00000
     24      16.8744      0.00000

 k-point    18 :       0.5000    0.1667    0.0000
  band No.  band energies     occupation 
      1      -9.6264      2.00000
      2      -9.6264      2.00000
      3      -5.0140      2.00000
      4      -5.0140      2.00000
      5      -2.5283      2.00000
      6      -2.5283      2.00000
      7      -0.0640      2.00000
      8      -0.0640      2.00000
      9       1.9940      2.00000
     10       1.9940      2.00000
     11       2.2347      2.00000
[...]

 k-point    72 :       0.4167    0.4167    0.2500
  band No.  band energies     occupation 
      1      -8.6322      2.00000
      2      -7.4465      2.00000
      3      -7.4465      2.00000
      4      -6.5630      2.00000
      5      -3.5025      2.00000
      6      -2.6389      2.00000
      7      -2.6389      2.00000
      8      -1.4738      2.00000
      9       2.7111      2.00000
     10       3.3985      2.00000
     11       3.3985      2.00000
     12       4.4154      2.00000
     13       4.4838      2.00000
     14       4.6243      2.00000
     15       4.6243      2.00000
     16       5.5425      2.00000
     17      14.2872      0.00000
     18      14.7025      0.00000
     19      14.8255      0.00000
     20      14.8255      0.00000
     21      15.1870      0.00000
     22      15.3719      0.00000
     23      15.3719      0.00000
     24      15.5849      0.00000

 k-point    73 :       0.5000    0.4167    0.2500
  band No.  band energies     occupation 
      1      -8.0744      2.00000
      2      -8.0744      2.00000
      3      -6.9938      2.00000
      4      -6.9938      2.00000
      5      -3.1721      2.00000
      6      -3.1721      2.00000
      7      -2.1144      2.00000
      8      -2.1144      2.00000
      9       3.0719      2.00000
     10       3.0719      2.00000
     11       3.9387      2.00000
     12       3.9387      2.00000
     13       4.6635      2.00000
     14       4.6635      2.00000
     15       5.1889      2.00000
     16       5.1889      2.00000
     17      14.7054      0.00000
     18      14.7054      0.00000
     19      14.8629      0.00000
     20      14.8629      0.00000
     21      15.1767      0.00000
     22      15.1767      0.00000
     23      15.7713      0.00000
     24      15.7713      0.00000

 k-point    74 :       0.5000    0.5000    0.2500
  band No.  band energies     occupation 
      1      -7.5539      2.00000
      2      -7.5539      2.00000
      3      -7.5539      2.00000
      4      -7.5539      2.00000
      5      -2.7163      2.00000
      6      -2.7163      2.00000
      7      -2.7163      2.00000
      8      -2.7163      2.00000
      9       3.5217      2.00000
     10       3.5217      2.00000
     11       3.5217      2.00000
     12       3.5217      2.00000
     13       5.0546      2.00000
     14       5.0546      2.00000
     15       5.0546      2.00000
     16       5.0546      2.00000
     17      14.7079      0.00000
     18      14.7079      0.00000
     19      14.7079      0.00000
     20      14.7079      0.00000
     21      15.8580      0.00000
     22      15.8585      0.00000
     23      15.8599      0.00000
     24      15.9009      0.00000

 k-point    75 :       0.3333    0.3333    0.3333
  band No.  band energies     occupation 
      1      -9.2122      2.00000
      2      -6.8823      2.00000
      3      -6.8823      2.00000
      4      -6.8823      2.00000
      5      -3.1075      2.00000
      6      -3.1075      2.00000
      7      -3.1075      2.00000
      8      -0.8120      2.00000
      9       3.1196      2.00000
     10       3.1196      2.00000
     11       3.1196      2.00000
     12       4.1664      2.00000
     13       4.1664      2.00000
     14       4.1664      2.00000
     15       5.5596      2.00000
     16       5.5596      2.00000
     17      13.9458      0.00000
     18      13.9458      0.00000
     19      13.9458      0.00000
     20      14.2753      0.00000
     21      15.0704      0.00000
     22      15.0704      0.00000
     23      16.8103      0.00000
     24      16.8113      0.00000

 k-point    76 :       0.4167    0.3333    0.3333
  band No.  band energies     occupation 
      1      -8.7403      2.00000
      2      -7.5497      2.00000
      3      -6.6600      2.00000
      4      -6.6600      2.00000
      5      -3.6010      2.00000
      6      -3.6010      2.00000
      7      -2.7295      2.00000
      8      -1.5567      2.00000
      9       3.3119      2.00000
     10       3.3119      2.00000
     11       4.1034      2.00000
     12       4.3529      2.00000
     13       4.3529      2.00000
     14       4.4832      2.00000
     15       5.2038      2.00000
     16       5.4276      2.00000
     17      14.2071      0.00000
     18      14.3950      0.00000
     19      14.3985      0.00000
     20      14.3985      0.00000
     21      14.9876      0.00000
     22      15.4798      0.00000
     23      15.9529      0.00000
     24      16.0099      0.00000

 k-point    77 :       0.5000    0.3333    0.3333
  band No.  band energies     occupation 
      1      -8.1804      2.00000
      2      -8.1804      2.00000
      3      -6.5635      2.00000
      4      -6.5635      2.00000
      5      -3.7891      2.00000
      6      -3.7891      2.00000
      7      -2.2025      2.00000
      8      -2.2025      2.00000
      9       3.3755      2.00000
     10       3.3755      2.00000
     11       4.4152      2.00000
     12       4.4152      2.00000
     13       4.8366      2.00000
     14       4.8366      2.00000
     15       4.9102      2.00000
     16       4.9102      2.00000
     17      14.4188      0.00000
     18      14.4188      0.00000
     19      15.0762      0.00000
     20      15.0762      0.00000
     21      15.1663      0.00000
     22      15.1663      0.00000
     23      15.2598      0.00000
     24      15.2598      0.00000

 k-point    78 :       0.4167    0.4167    0.3333
  band No.  band energies     occupation 
      1      -8.2885      2.00000
      2      -7.1985      2.00000
      3      -7.1985      2.00000
      4      -6.6660      2.00000
      5      -3.8805      2.00000
      6      -3.3568      2.00000
      7      -3.3568      2.00000
      8      -2.2852      2.00000
      9       3.6982      2.00000
     10       4.1182      2.00000
     11       4.1182      2.00000
     12       4.6561      2.00000
     13       4.7139      2.00000
     14       4.7139      2.00000
     15       5.0053      2.00000
     16       5.4175      2.00000
     17      14.4256      0.00000
     18      14.4671      0.00000
     19      14.6009      0.00000
     20      14.6009      0.00000
     21      15.1785      0.00000
     22      15.3818      0.00000
     23      15.4312      0.00000
     24      15.4312      0.00000

 k-point    79 :       0.5000    0.4167    0.3333
  band No.  band energies     occupation 
      1      -7.7636      2.00000
      2      -7.7636      2.00000
      3      -6.8683      2.00000
      4      -6.8683      2.00000
      5      -3.7774      2.00000
      6      -3.7774      2.00000
      7      -2.8971      2.00000
      8      -2.8971      2.00000
      9       3.9586      2.00000
     10       3.9586      2.00000
     11       4.6471      2.00000
     12       4.6471      2.00000
     13       4.7977      2.00000
     14       4.7977      2.00000
     15       5.1465      2.00000
     16       5.1465      2.00000
     17      14.6029      0.00000
     18      14.6029      0.00000
     19      14.7809      0.00000
     20      14.7809      0.00000
     21      15.1688      0.00000
     22      15.1688      0.00000
     23      15.3453      0.00000
     24      15.3454      0.00000

 k-point    80 :       0.5000    0.5000    0.3333
  band No.  band energies     occupation 
      1      -7.3044      2.00000
      2      -7.3044      2.00000
      3      -7.3044      2.00000
      4      -7.3044      2.00000
      5      -3.4447      2.00000
      6      -3.4447      2.00000
      7      -3.4447      2.00000
      8      -3.4447      2.00000
      9       4.3528      2.00000
     10       4.3528      2.00000
     11       4.3528      2.00000
     12       4.3528      2.00000
     13       5.1004      2.00000
     14       5.1004      2.00000
     15       5.1004      2.00000
     16       5.1004      2.00000
     17      14.6559      0.00000
     18      14.6559      0.00000
     19      14.6559      0.00000
     20      14.6559      0.00000
     21      15.5180      0.00000
     22      15.5207      0.00000
     23      15.5244      0.00000
     24      15.5665      0.00000

 k-point    81 :       0.4167    0.4167    0.4167
  band No.  band energies     occupation 
      1      -7.8700      2.00000
      2      -6.9708      2.00000
      3      -6.9708      2.00000
      4      -6.9708      2.00000
      5      -3.8728      2.00000
      6      -3.8728      2.00000
      7      -3.8728      2.00000
      8      -2.9870      2.00000
      9       4.5254      2.00000
     10       4.5254      2.00000
     11       4.5254      2.00000
     12       4.8546      2.00000
     13       4.8546      2.00000
     14       4.8546      2.00000
     15       5.2525      2.00000
     16       5.2525      2.00000
     17      14.2965      0.00000
     18      14.5654      0.00000
     19      14.5654      0.00000
     20      14.5654      0.00000
     21      15.2748      0.00000
     22      15.2787      0.00000
     23      15.3917      0.00000
     24      15.3917      0.00000

 k-point    82 :       0.5000    0.4167    0.4167
  band No.  band energies     occupation 
      1      -7.4087      2.00000
      2      -7.4087      2.00000
      3      -6.8717      2.00000
      4      -6.8717      2.00000
      5      -4.0688      2.00000
      6      -4.0688      2.00000
      7      -3.5391      2.00000
      8      -3.5391      2.00000
      9       4.6154      2.00000
     10       4.6154      2.00000
     11       4.9615      2.00000
     12       4.9615      2.00000
     13       5.0584      2.00000
     14       5.0584      2.00000
     15       5.0775      2.00000
     16       5.0775      2.00000
     17      14.4198      0.00000
     18      14.4198      0.00000
     19      14.6223      0.00000
     20      14.6223      0.00000
     21      15.2083      0.00000
     22      15.2084      0.00000
     23      15.2529      0.00000
     24      15.2536      0.00000

 k-point    83 :       0.5000    0.5000    0.4167
  band No.  band energies     occupation 
      1      -7.0750      2.00000
      2      -7.0750      2.00000
      3      -7.0750      2.00000
      4      -7.0750      2.00000
      5      -3.9671      2.00000
      6      -3.9671      2.00000
      7      -3.9671      2.00000
      8      -3.9671      2.00000
      9       4.9356      2.00000
     10       4.9356      2.00000
     11       4.9356      2.00000
     12       4.9356      2.00000
     13       5.1338      2.00000
     14       5.1338      2.00000
     15       5.1338      2.00000
     16       5.1338      2.00000
     17      14.4273      0.00000
     18      14.4273      0.00000
     19      14.4273      0.00000
     20      14.4273      0.00000
     21      15.3387      0.00000
     22      15.3436      0.00000
     23      15.3513      0.00000
     24      15.3616      0.00000

 k-point    84 :       0.5000    0.5000    0.5000
  band No.  band energies     occupation 
      1      -6.9750      2.00000
      2      -6.9750      2.00000
      3      -6.9750      2.00000
      4      -6.9750      2.00000
      5      -4.1654      2.00000
      6      -4.1654      2.00000
      7      -4.1654      2.00000
      8      -4.1654      2.00000
      9       5.1452      2.00000
     10       5.1452      2.00000
     11       5.1452      2.00000
     12       5.1452      2.00000
     13       5.1452      2.00000
     14       5.1452      2.00000
     15       5.1452      2.00000
     16       5.1452      2.00000
     17      14.2982      0.00000
     18      14.2982      0.00000
     19      14.2982      0.00000
     20      14.2982      0.00000
     21      15.3187      0.00000
     22      15.3187      0.00000
     23      15.3187      0.00000
     24      15.3187      0.00000


--------------------------------------------------------------------------------------------------------


 soft charge-density along one line, spin component           1
         0         1         2         3         4         5         6         7         8         9
 total charge-density along one line
 
 pseudopotential strength for first ion, spin component:           1
  9.564  -0.001   0.000  -0.000   0.000  -0.000   0.000  -0.000
 -0.001  -0.002  -0.000   0.000  -0.000  -0.000   0.000  -0.000
  0.000  -0.000  -3.788   0.000  -0.000  -0.004   0.000  -0.000
 -0.000   0.000   0.000  -3.788   0.000   0.000  -0.004   0.000
  0.000  -0.000  -0.000   0.000  -3.788  -0.000   0.000  -0.004
 -0.000  -0.000  -0.004   0.000  -0.000  -0.760   0.000  -0.000
  0.000   0.000   0.000  -0.004   0.000   0.000  -0.760   0.000
 -0.000  -0.000  -0.000   0.000  -0.004  -0.000   0.000  -0.760
 total augmentation occupancy for first ion, spin component:           1
  1.416  -0.817  -0.000  -0.000  -0.000   0.000  -0.000  -0.000
 -0.817   0.724  -0.000  -0.000   0.000  -0.000   0.000   0.000
 -0.000  -0.000   1.012  -0.000  -0.000   0.156  -0.000   0.000
 -0.000   0.000  -0.000   1.012   0.000  -0.000   0.156  -0.000
  0.000   0.000  -0.000   0.000   1.012   0.000   0.000   0.156
  0.000   0.000   0.156  -0.000   0.000   0.028   0.000   0.000
  0.000   0.000   0.000   0.156  -0.000  -0.000   0.028   0.000
 -0.000  -0.000  -0.000   0.000   0.156  -0.000   0.000   0.028


------------------------ aborting loop because EDIFF is reached ----------------------------------------


    CHARGE:  cpu time    0.1647: real time    0.1647
    FORLOC:  cpu time    0.0027: real time    0.0027
    FORNL :  cpu time    0.2138: real time    0.2139
    STRESS:  cpu time    0.4891: real time    0.4892
    FORHAR:  cpu time    0.0069: real time    0.0069
    MIXING:  cpu time    0.0028: real time    0.0028
    OFIELD:  cpu time    0.0001: real time    0.0001

  FORCE on cell =-STRESS in cart. coord.  units (eV):
  Direction    XX          YY          ZZ          XY          YZ          ZX
  --------------------------------------------------------------------------------------
  Alpha Z    97.69214    97.69214    97.69214
  Ewald    -439.49658  -439.49658  -439.49658    -0.00000     0.00000    -0.00000
  Hartree    38.35462    38.35462    38.35462    -0.00000    -0.00000    -0.00000
  E(xc)    -115.45579  -115.45579  -115.45579    -0.00000     0.00000     0.00000
  Local     -57.92303   -57.92303   -57.92303    -0.00000    -0.00000    -0.00000
  n-local   -21.24757   -22.13604   -20.91986     0.72953     0.94125     0.45181
  augment    -2.26511    -2.26511    -2.26511    -0.00000    -0.00000    -0.00000
  Kinetic   472.85840   487.76947   486.57081    -4.63746    -6.49253    -3.24315
  Fock        0.00000     0.00000     0.00000     0.00000     0.00000     0.00000
  -------------------------------------------------------------------------------------
  Total     -18.12868   -18.12868   -18.12868     0.00000     0.00000    -0.00000
  in kB    -544.13224  -544.13224  -544.13224     0.00000     0.00000    -0.00000
  external pressure =     -544.13 kB  Pullay stress =        0.00 kB


 VOLUME and BASIS-vectors are now :
 -----------------------------------------------------------------------------
  energy-cutoff  :      400.00
  volume of cell :       53.38
      direct lattice vectors                 reciprocal lattice vectors
     3.765223425  0.000000000  0.000000000     0.265588489  0.000000000  0.000000000
     0.000000000  3.765223425  0.000000000     0.000000000  0.265588489  0.000000000
     0.000000000  0.000000000  3.765223425     0.000000000  0.000000000  0.265588489

  length of vectors
     3.765223425  3.765223425  3.765223425     0.265588489  0.265588489  0.265588489


 FORCES acting on ions
    electron-ion (+dipol)            ewald-force                    non-local-force                 convergence-correction
 -----------------------------------------------------------------------------------------------
   0.256E-13 -.149E-12 0.138E-13   -.284E-13 -.711E-14 0.711E-14   0.150E-16 0.244E-16 0.829E-17   -.159E-14 -.598E-14 -.138E-13
   -.166E-13 0.566E-17 0.303E-13   -.713E-14 0.629E-14 0.710E-14   0.724E-17 -.189E-16 -.159E-16   -.478E-14 0.321E-14 -.113E-13
   0.259E-13 -.169E-12 0.299E-13   -.142E-13 -.213E-13 -.142E-13   -.137E-16 0.880E-17 0.641E-17   -.234E-14 -.587E-14 0.980E-14
   -.896E-14 0.217E-13 0.840E-14   0.647E-14 -.710E-14 -.142E-13   -.154E-16 -.382E-16 -.978E-17   -.407E-14 0.209E-14 0.135E-14
   0.394E-13 0.274E-12 -.344E-12   0.000E+00 0.711E-14 0.142E-13   -.201E-17 0.287E-16 0.126E-16   -.850E-14 -.469E-14 0.104E-13
   0.401E-14 0.611E-15 -.416E-12   0.142E-13 0.219E-13 0.143E-13   -.101E-16 -.258E-16 -.935E-17   0.279E-15 0.178E-14 0.932E-15
   0.396E-13 0.517E-12 0.428E-13   0.142E-13 -.711E-14 -.711E-14   0.113E-16 0.314E-16 0.119E-16   -.801E-14 -.577E-14 -.132E-13
   0.366E-14 0.372E-12 0.250E-13   0.285E-13 0.714E-14 -.718E-14   0.135E-16 -.798E-17 -.504E-17   -.342E-15 0.213E-14 -.122E-13
 -----------------------------------------------------------------------------------------------
   0.113E-12 0.867E-12 -.610E-12   0.136E-13 -.175E-15 0.320E-16   0.586E-17 0.242E-17 -.835E-18   -.294E-13 -.131E-13 -.281E-13
 
 
 POSITION                                       TOTAL-FORCE (eV/Angst)
 -----------------------------------------------------------------------------------
      0.94131      2.82392      0.94131        -0.000000      0.000000      0.000000
      0.00000      0.00000      1.88261        -0.000000      0.000000     -0.000000
      0.94131      0.94131      2.82392        -0.000000      0.000000     -0.000000
      0.00000      1.88261      0.00000         0.000000      0.000000      0.000000
      2.82392      2.82392      2.82392         0.000000     -0.000000      0.000000
      1.88261      0.00000      0.00000         0.000000     -0.000000     -0.000000
      2.82392      0.94131      0.94131        -0.000000     -0.000000     -0.000000
      1.88261      1.88261      1.88261         0.000000      0.000000      0.000000
 -----------------------------------------------------------------------------------
    total drift:                                0.000000      0.000000     -0.000000


--------------------------------------------------------------------------------------------------------



  FREE ENERGIE OF THE ION-ELECTRON SYSTEM (eV)
  ---------------------------------------------------
  free  energy   TOTEN  =       -71.36463390 eV

  energy  without entropy=      -71.36463390  energy(sigma->0) =      -71.36463390
 


--------------------------------------------------------------------------------------------------------


    POTLOK:  cpu time    0.0348: real time    0.0348


--------------------------------------------------------------------------------------------------------


     LOOP+:  cpu time   56.5567: real time   56.6731
    4ORBIT:  cpu time    0.0000: real time    0.0000
 BZINTS: Fermi energy:  7.589953; 32.000000 electrons
         Band energy: -15.988973;  BLOECHL correction:  0.000000

 total amount of memory used by VASP MPI-rank0    35086. kBytes
=======================================================================

   base      :      30000. kBytes
   nonl-proj :       1431. kBytes
   fftplans  :        585. kBytes
   grid      :        839. kBytes
   one-center:          6. kBytes
   wavefun   :       2225. kBytes
 
  
  
 General timing and accounting informations for this job:
 ========================================================
  
                  Total CPU time used (sec):       59.041
                            User time (sec):       57.101
                          System time (sec):        1.940
                         Elapsed time (sec):       59.913
  
                   Maximum memory used (kb):      191648.
                   Average memory used (kb):           0.
  
                          Minor page faults:        36901
                          Major page faults:           36
                 Voluntary context switches:          788
