   8   8   0   0
  0.5034422E+01  0.3427782E-09  0.3427782E-09  0.3427782E-09  0.2000000E-16
  1.000000000000000E-004
  CAR 
 unknown system                          
     26.06860059    -13.37774839  301     11.62137528      1.00000000
    -13.378  0.0000E+00  0.0000E+00
    -13.246  0.0000E+00  0.0000E+00
    -13.115  0.0000E+00  0.0000E+00
    -12.983  0.0000E+00  0.0000E+00
    -12.852  0.0000E+00  0.0000E+00
    -12.720  0.0000E+00  0.0000E+00
    -12.589  0.0000E+00  0.0000E+00
    -12.457  0.0000E+00  0.0000E+00
    -12.326  0.0000E+00  0.0000E+00
    -12.194  0.0000E+00  0.0000E+00
    -12.063  0.0000E+00  0.0000E+00
    -11.931  0.0000E+00  0.0000E+00
    -11.800  0.0000E+00  0.0000E+00
    -11.668  0.0000E+00  0.0000E+00
    -11.537  0.3160E-01  0.5036E-03
    -11.405  0.1410E+00  0.1476E-01
    -11.274  0.2209E+00  0.3850E-01
    -11.142  0.2496E+00  0.6915E-01
    -11.011  0.2928E+00  0.1048E+00
    -10.879  0.3303E+00  0.1463E+00
    -10.748  0.3564E+00  0.1913E+00
    -10.617  0.3841E+00  0.2399E+00
    -10.485  0.4189E+00  0.2927E+00
    -10.354  0.4406E+00  0.3494E+00
    -10.222  0.4617E+00  0.4087E+00
    -10.091  0.4846E+00  0.4709E+00
     -9.959  0.5101E+00  0.5363E+00
     -9.828  0.5353E+00  0.6050E+00
     -9.696  0.5523E+00  0.6765E+00
     -9.565  0.5702E+00  0.7503E+00
     -9.433  0.5896E+00  0.8265E+00
     -9.302  0.6098E+00  0.9054E+00
     -9.170  0.6312E+00  0.9869E+00
     -9.039  0.6514E+00  0.1071E+01
     -8.907  0.6669E+00  0.1158E+01
     -8.776  0.6822E+00  0.1247E+01
     -8.644  0.6996E+00  0.1338E+01
     -8.513  0.7176E+00  0.1431E+01
     -8.381  0.7362E+00  0.1526E+01
     -8.250  0.7557E+00  0.1624E+01
     -8.118  0.7714E+00  0.1725E+01
     -7.987  0.7865E+00  0.1827E+01
     -7.855  0.8020E+00  0.1932E+01
     -7.724  0.8184E+00  0.2038E+01
     -7.592  0.8350E+00  0.2147E+01
     -7.461  0.8521E+00  0.2258E+01
     -7.329  0.9063E+00  0.2373E+01
     -7.198  0.9307E+00  0.2494E+01
     -7.066  0.9740E+00  0.2620E+01
     -6.935  0.9785E+00  0.2748E+01
     -6.803  0.9611E+00  0.2876E+01
     -6.672  0.9308E+00  0.3000E+01
     -6.540  0.9486E+00  0.3124E+01
     -6.409  0.9560E+00  0.3249E+01
     -6.277  0.9586E+00  0.3375E+01
     -6.146  0.9648E+00  0.3501E+01
     -6.014  0.1003E+01  0.3630E+01
     -5.883  0.1061E+01  0.3766E+01
     -5.751  0.1122E+01  0.3908E+01
     -5.620  0.1161E+01  0.4058E+01
     -5.488  0.1152E+01  0.4209E+01
     -5.357  0.1199E+01  0.4364E+01
     -5.226  0.1329E+01  0.4528E+01
     -5.094  0.1475E+01  0.4714E+01
     -4.963  0.1359E+01  0.4903E+01
     -4.831  0.1324E+01  0.5080E+01
     -4.700  0.1336E+01  0.5257E+01
     -4.568  0.1225E+01  0.5424E+01
     -4.437  0.1260E+01  0.5587E+01
     -4.305  0.1292E+01  0.5756E+01
     -4.174  0.1161E+01  0.5918E+01
     -4.042  0.1101E+01  0.6066E+01
     -3.911  0.1078E+01  0.6210E+01
     -3.779  0.1048E+01  0.6349E+01
     -3.648  0.1048E+01  0.6487E+01
     -3.516  0.1022E+01  0.6625E+01
     -3.385  0.9992E+00  0.6760E+01
     -3.253  0.9523E+00  0.6893E+01
     -3.122  0.9206E+00  0.7015E+01
     -2.990  0.1005E+01  0.7139E+01
     -2.859  0.1036E+01  0.7275E+01
     -2.727  0.1166E+01  0.7419E+01
     -2.596  0.1142E+01  0.7576E+01
     -2.464  0.1116E+01  0.7724E+01
     -2.333  0.1096E+01  0.7869E+01
     -2.201  0.1143E+01  0.8021E+01
     -2.070  0.1148E+01  0.8170E+01
     -1.938  0.1137E+01  0.8328E+01
     -1.807  0.1010E+01  0.8468E+01
     -1.675  0.1042E+01  0.8602E+01
     -1.544  0.1076E+01  0.8743E+01
     -1.412  0.1121E+01  0.8887E+01
     -1.281  0.1204E+01  0.9040E+01
     -1.149  0.1334E+01  0.9206E+01
     -1.018  0.1582E+01  0.9396E+01
     -0.886  0.2024E+01  0.9633E+01
     -0.755  0.2275E+01  0.9920E+01
     -0.623  0.2267E+01  0.1022E+02
     -0.492  0.2180E+01  0.1052E+02
     -0.360  0.1741E+01  0.1078E+02
     -0.229  0.1536E+01  0.1100E+02
     -0.097  0.1418E+01  0.1120E+02
      0.034  0.1341E+01  0.1138E+02
      0.165  0.1280E+01  0.1155E+02
      0.297  0.1240E+01  0.1172E+02
      0.428  0.1218E+01  0.1188E+02
      0.560  0.1204E+01  0.1204E+02
      0.691  0.1195E+01  0.1220E+02
      0.823  0.1238E+01  0.1235E+02
      0.954  0.1555E+01  0.1253E+02
      1.086  0.1130E+01  0.1269E+02
      1.217  0.1081E+01  0.1283E+02
      1.349  0.1145E+01  0.1298E+02
      1.480  0.1293E+01  0.1314E+02
      1.612  0.1736E+01  0.1333E+02
      1.743  0.2105E+01  0.1360E+02
      1.875  0.1978E+01  0.1387E+02
      2.006  0.1818E+01  0.1412E+02
      2.138  0.1795E+01  0.1435E+02
      2.269  0.2035E+01  0.1460E+02
      2.401  0.2216E+01  0.1489E+02
      2.532  0.2156E+01  0.1517E+02
      2.664  0.1833E+01  0.1544E+02
      2.795  0.1418E+01  0.1565E+02
      2.927  0.1232E+01  0.1582E+02
      3.058  0.1597E+01  0.1600E+02
      3.190  0.1914E+01  0.1624E+02
      3.321  0.2056E+01  0.1650E+02
      3.453  0.2120E+01  0.1677E+02
      3.584  0.2164E+01  0.1705E+02
      3.716  0.2224E+01  0.1734E+02
      3.847  0.2348E+01  0.1764E+02
      3.979  0.2978E+01  0.1796E+02
      4.110  0.2939E+01  0.1834E+02
      4.242  0.2411E+01  0.1868E+02
      4.373  0.2477E+01  0.1898E+02
      4.505  0.2425E+01  0.1929E+02
      4.636  0.2645E+01  0.1963E+02
      4.768  0.2503E+01  0.1998E+02
      4.899  0.2766E+01  0.2031E+02
      5.031  0.3113E+01  0.2071E+02
      5.162  0.3313E+01  0.2113E+02
      5.294  0.3015E+01  0.2155E+02
      5.425  0.3127E+01  0.2193E+02
      5.556  0.2522E+01  0.2230E+02
      5.688  0.2415E+01  0.2263E+02
      5.819  0.2629E+01  0.2297E+02
      5.951  0.2463E+01  0.2330E+02
      6.082  0.2519E+01  0.2363E+02
      6.214  0.2621E+01  0.2397E+02
      6.345  0.2692E+01  0.2432E+02
      6.477  0.2661E+01  0.2467E+02
      6.608  0.2730E+01  0.2502E+02
      6.740  0.2832E+01  0.2539E+02
      6.871  0.2577E+01  0.2575E+02
      7.003  0.2280E+01  0.2607E+02
      7.134  0.2140E+01  0.2636E+02
      7.266  0.2100E+01  0.2664E+02
      7.397  0.2165E+01  0.2692E+02
      7.529  0.2651E+01  0.2723E+02
      7.660  0.2490E+01  0.2757E+02
      7.792  0.2404E+01  0.2789E+02
      7.923  0.2451E+01  0.2821E+02
      8.055  0.2170E+01  0.2851E+02
      8.186  0.2142E+01  0.2880E+02
      8.318  0.2166E+01  0.2907E+02
      8.449  0.2807E+01  0.2943E+02
      8.581  0.1720E+01  0.2970E+02
      8.712  0.1556E+01  0.2992E+02
      8.844  0.1463E+01  0.3012E+02
      8.975  0.1309E+01  0.3030E+02
      9.107  0.1224E+01  0.3046E+02
      9.238  0.1171E+01  0.3062E+02
      9.370  0.1101E+01  0.3077E+02
      9.501  0.1033E+01  0.3091E+02
      9.633  0.9181E+00  0.3104E+02
      9.764  0.8323E+00  0.3115E+02
      9.896  0.7898E+00  0.3126E+02
     10.027  0.7511E+00  0.3136E+02
     10.159  0.7172E+00  0.3146E+02
     10.290  0.6466E+00  0.3155E+02
     10.422  0.5713E+00  0.3163E+02
     10.553  0.5017E+00  0.3170E+02
     10.685  0.4936E+00  0.3176E+02
     10.816  0.4170E+00  0.3182E+02
     10.948  0.3292E+00  0.3187E+02
     11.079  0.3488E+00  0.3191E+02
     11.210  0.2395E+00  0.3196E+02
     11.342  0.1303E+00  0.3198E+02
     11.473  0.8960E-01  0.3200E+02
     11.605  0.0000E+00  0.3200E+02
     11.736  0.0000E+00  0.3200E+02
     11.868  0.0000E+00  0.3200E+02
     11.999  0.0000E+00  0.3200E+02
     12.131  0.0000E+00  0.3200E+02
     12.262  0.0000E+00  0.3200E+02
     12.394  0.0000E+00  0.3200E+02
     12.525  0.0000E+00  0.3200E+02
     12.657  0.0000E+00  0.3200E+02
     12.788  0.0000E+00  0.3200E+02
     12.920  0.0000E+00  0.3200E+02
     13.051  0.0000E+00  0.3200E+02
     13.183  0.0000E+00  0.3200E+02
     13.314  0.0000E+00  0.3200E+02
     13.446  0.0000E+00  0.3200E+02
     13.577  0.0000E+00  0.3200E+02
     13.709  0.0000E+00  0.3200E+02
     13.840  0.0000E+00  0.3200E+02
     13.972  0.0000E+00  0.3200E+02
     14.103  0.0000E+00  0.3200E+02
     14.235  0.0000E+00  0.3200E+02
     14.366  0.0000E+00  0.3200E+02
     14.498  0.0000E+00  0.3200E+02
     14.629  0.0000E+00  0.3200E+02
     14.761  0.0000E+00  0.3200E+02
     14.892  0.0000E+00  0.3200E+02
     15.024  0.0000E+00  0.3200E+02
     15.155  0.0000E+00  0.3200E+02
     15.287  0.0000E+00  0.3200E+02
     15.418  0.0000E+00  0.3200E+02
     15.550  0.0000E+00  0.3200E+02
     15.681  0.0000E+00  0.3200E+02
     15.813  0.0000E+00  0.3200E+02
     15.944  0.0000E+00  0.3200E+02
     16.076  0.6214E-01  0.3200E+02
     16.207  0.2197E+00  0.3202E+02
     16.339  0.4561E+00  0.3206E+02
     16.470  0.5668E+00  0.3213E+02
     16.601  0.5586E+00  0.3221E+02
     16.733  0.7395E+00  0.3229E+02
     16.864  0.8038E+00  0.3240E+02
     16.996  0.9371E+00  0.3251E+02
     17.127  0.1344E+01  0.3268E+02
     17.259  0.1363E+01  0.3286E+02
     17.390  0.1379E+01  0.3303E+02
     17.522  0.1440E+01  0.3322E+02
     17.653  0.1401E+01  0.3341E+02
     17.785  0.1522E+01  0.3360E+02
     17.916  0.1629E+01  0.3381E+02
     18.048  0.1760E+01  0.3403E+02
     18.179  0.2041E+01  0.3427E+02
     18.311  0.2106E+01  0.3455E+02
     18.442  0.1973E+01  0.3482E+02
     18.574  0.1917E+01  0.3508E+02
     18.705  0.1967E+01  0.3533E+02
     18.837  0.2028E+01  0.3559E+02
     18.968  0.2139E+01  0.3587E+02
     19.100  0.2297E+01  0.3616E+02
     19.231  0.2428E+01  0.3647E+02
     19.363  0.2600E+01  0.3680E+02
     19.494  0.2575E+01  0.3714E+02
     19.626  0.2695E+01  0.3748E+02
     19.757  0.2907E+01  0.3785E+02
     19.889  0.3313E+01  0.3826E+02
     20.020  0.3765E+01  0.3871E+02
     20.152  0.4144E+01  0.3925E+02
     20.283  0.3754E+01  0.3977E+02
     20.415  0.3658E+01  0.4027E+02
     20.546  0.2503E+01  0.4068E+02
     20.678  0.2630E+01  0.4100E+02
     20.809  0.2324E+01  0.4133E+02
     20.941  0.2502E+01  0.4164E+02
     21.072  0.3027E+01  0.4200E+02
     21.204  0.3009E+01  0.4239E+02
     21.335  0.2837E+01  0.4276E+02
     21.467  0.3123E+01  0.4316E+02
     21.598  0.3365E+01  0.4359E+02
     21.730  0.3258E+01  0.4402E+02
     21.861  0.3003E+01  0.4443E+02
     21.992  0.2879E+01  0.4482E+02
     22.124  0.2529E+01  0.4517E+02
     22.255  0.2442E+01  0.4550E+02
     22.387  0.2628E+01  0.4583E+02
     22.518  0.2603E+01  0.4618E+02
     22.650  0.2558E+01  0.4652E+02
     22.781  0.2639E+01  0.4686E+02
     22.913  0.2519E+01  0.4721E+02
     23.044  0.1927E+01  0.4750E+02
     23.176  0.1303E+01  0.4772E+02
     23.307  0.5975E+00  0.4784E+02
     23.439  0.2548E+00  0.4790E+02
     23.570  0.2009E+00  0.4793E+02
     23.702  0.1590E+00  0.4796E+02
     23.833  0.1178E+00  0.4798E+02
     23.965  0.7794E-01  0.4799E+02
     24.096  0.4181E-01  0.4800E+02
     24.228  0.9554E-02  0.4800E+02
     24.359  0.0000E+00  0.4800E+02
     24.491  0.0000E+00  0.4800E+02
     24.622  0.0000E+00  0.4800E+02
     24.754  0.0000E+00  0.4800E+02
     24.885  0.0000E+00  0.4800E+02
     25.017  0.0000E+00  0.4800E+02
     25.148  0.0000E+00  0.4800E+02
     25.280  0.0000E+00  0.4800E+02
     25.411  0.0000E+00  0.4800E+02
     25.543  0.0000E+00  0.4800E+02
     25.674  0.0000E+00  0.4800E+02
     25.806  0.0000E+00  0.4800E+02
     25.937  0.0000E+00  0.4800E+02
     26.069  0.0000E+00  0.4800E+02
