       N       E                     dE             d eps       ncg     rms          rms(c)
DAV:   1     0.587729050149E+02    0.58773E+02   -0.14626E+04  4032   0.107E+03
DAV:   2    -0.714002521804E+02   -0.13017E+03   -0.12398E+03  5552   0.228E+02
DAV:   3    -0.752609281170E+02   -0.38607E+01   -0.38435E+01  5192   0.363E+01
DAV:   4    -0.752918856618E+02   -0.30958E-01   -0.30925E-01  4976   0.369E+00
DAV:   5    -0.752923927098E+02   -0.50705E-03   -0.50694E-03  5160   0.411E-01    0.110E+01
DAV:   6    -0.726200073430E+02    0.26724E+01   -0.17265E+00  4416   0.778E+00    0.591E+00
DAV:   7    -0.717218209539E+02    0.89819E+00   -0.18902E+00  4584   0.836E+00    0.726E-01
DAV:   8    -0.717306588030E+02   -0.88378E-02   -0.34513E-02  5000   0.111E+00    0.892E-02
DAV:   9    -0.717308490064E+02   -0.19020E-03   -0.42761E-04  4784   0.144E-01    0.297E-02
DAV:  10    -0.717308945931E+02   -0.45587E-04   -0.34422E-05  4984   0.464E-02    0.289E-03
DAV:  11    -0.717308953763E+02   -0.78318E-06   -0.95966E-07  3704   0.718E-03
   1 F= -.71730895E+02 E0= -.71730895E+02  d E =0.000000E+00
