<?xml version="1.0" encoding="ISO-8859-1"?>
<modeling>
 <generator>
  <i name="program" type="string">vasp </i>
  <i name="version" type="string">5.4.4.18Apr17-6-g9f103f2a35  </i>
  <i name="subversion" type="string">(build Mar 12 2022 03:36:41) complex            parallel </i>
  <i name="platform" type="string">IFC19.0.3.199_CrayMPICH7.7.19 </i>
  <i name="date" type="string">2022 11 30 </i>
  <i name="time" type="string">13:00:30 </i>
 </generator>
 <incar>
  <i type="int" name="ISTART">     0</i>
  <i type="string" name="PREC">accurate</i>
  <i name="EDIFF">      0.00000100</i>
  <i name="POTIM">      0.02000000</i>
  <i type="int" name="ISMEAR">    -5</i>
  <i name="SIGMA">      0.06000000</i>
  <i type="logical" name="LWAVE"> F  </i>
  <i type="logical" name="LCHARG"> F  </i>
  <v type="int" name="KPOINT_BSE">    -1     0     0     0</v>
 </incar>
 <structure name="primitive_cell" >
  <crystal>
   <varray name="basis" >
    <v>       1.71389100       1.71389100       0.00000000 </v>
    <v>       1.71389100       0.00000000      -1.71389100 </v>
    <v>       0.00000000       1.71389100      -1.71389100 </v>
   </varray>
   <i name="volume">     10.06884349 </i>
   <varray name="rec_basis" >
    <v>       0.29173384       0.29173384       0.29173384 </v>
    <v>       0.29173384      -0.29173384      -0.29173384 </v>
    <v>      -0.29173384       0.29173384      -0.29173384 </v>
   </varray>
  </crystal>
  <varray name="positions" >
   <v>       0.25000000       0.25000000       0.25000000 </v>
   <v>      -0.50000000      -0.50000000      -0.50000000 </v>
  </varray>
 </structure>
 <varray name="primitive_index" >
  <v type="int" >        1 </v>
  <v type="int" >        2 </v>
 </varray>
 <kpoints>
  <generation param="Gamma">
   <v type="int" name="divisions">      12       12       12 </v>
   <v name="usershift">      0.00000000       0.00000000       0.00000000 </v>
   <v name="genvec1">      0.08333333       0.00000000       0.00000000 </v>
   <v name="genvec2">      0.00000000       0.08333333       0.00000000 </v>
   <v name="genvec3">      0.00000000       0.00000000       0.08333333 </v>
   <v name="shift">      0.00000000       0.00000000       0.00000000 </v>
  </generation>
  <varray name="kpointlist" >
   <v>       0.00000000       0.00000000       0.00000000 </v>
   <v>       0.08333333       0.00000000       0.00000000 </v>
   <v>       0.16666667       0.00000000       0.00000000 </v>
   <v>       0.25000000       0.00000000       0.00000000 </v>
   <v>       0.33333333       0.00000000       0.00000000 </v>
   <v>       0.41666667       0.00000000       0.00000000 </v>
   <v>       0.50000000       0.00000000       0.00000000 </v>
   <v>       0.08333333       0.08333333       0.00000000 </v>
   <v>       0.16666667       0.08333333       0.00000000 </v>
   <v>       0.25000000       0.08333333       0.00000000 </v>
   <v>       0.33333333       0.08333333       0.00000000 </v>
   <v>       0.41666667       0.08333333       0.00000000 </v>
   <v>       0.50000000       0.08333333       0.00000000 </v>
   <v>       0.16666667       0.16666667       0.00000000 </v>
   <v>       0.25000000       0.16666667       0.00000000 </v>
   <v>       0.33333333       0.16666667       0.00000000 </v>
   <v>       0.41666667       0.16666667       0.00000000 </v>
   <v>       0.50000000       0.16666667       0.00000000 </v>
   <v>       0.25000000       0.25000000       0.00000000 </v>
   <v>       0.33333333       0.25000000       0.00000000 </v>
   <v>       0.41666667       0.25000000       0.00000000 </v>
   <v>       0.50000000       0.25000000       0.00000000 </v>
   <v>       0.33333333       0.33333333       0.00000000 </v>
   <v>       0.41666667       0.33333333       0.00000000 </v>
   <v>       0.50000000       0.33333333       0.00000000 </v>
   <v>       0.41666667       0.41666667       0.00000000 </v>
   <v>       0.50000000       0.41666667       0.00000000 </v>
   <v>       0.50000000       0.50000000       0.00000000 </v>
   <v>       0.08333333       0.08333333       0.08333333 </v>
   <v>       0.16666667       0.08333333       0.08333333 </v>
   <v>       0.25000000       0.08333333       0.08333333 </v>
   <v>       0.33333333       0.08333333       0.08333333 </v>
   <v>       0.41666667       0.08333333       0.08333333 </v>
   <v>       0.50000000       0.08333333       0.08333333 </v>
   <v>       0.16666667       0.16666667       0.08333333 </v>
   <v>       0.25000000       0.16666667       0.08333333 </v>
   <v>       0.33333333       0.16666667       0.08333333 </v>
   <v>       0.41666667       0.16666667       0.08333333 </v>
   <v>       0.50000000       0.16666667       0.08333333 </v>
   <v>       0.25000000       0.25000000       0.08333333 </v>
   <v>       0.33333333       0.25000000       0.08333333 </v>
   <v>       0.41666667       0.25000000       0.08333333 </v>
   <v>       0.50000000       0.25000000       0.08333333 </v>
   <v>       0.33333333       0.33333333       0.08333333 </v>
   <v>       0.41666667       0.33333333       0.08333333 </v>
   <v>       0.50000000       0.33333333       0.08333333 </v>
   <v>       0.41666667       0.41666667       0.08333333 </v>
   <v>       0.50000000       0.41666667       0.08333333 </v>
   <v>       0.50000000       0.50000000       0.08333333 </v>
   <v>       0.16666667       0.16666667       0.16666667 </v>
   <v>       0.25000000       0.16666667       0.16666667 </v>
   <v>       0.33333333       0.16666667       0.16666667 </v>
   <v>       0.41666667       0.16666667       0.16666667 </v>
   <v>       0.50000000       0.16666667       0.16666667 </v>
   <v>       0.25000000       0.25000000       0.16666667 </v>
   <v>       0.33333333       0.25000000       0.16666667 </v>
   <v>       0.41666667       0.25000000       0.16666667 </v>
   <v>       0.50000000       0.25000000       0.16666667 </v>
   <v>       0.33333333       0.33333333       0.16666667 </v>
   <v>       0.41666667       0.33333333       0.16666667 </v>
   <v>       0.50000000       0.33333333       0.16666667 </v>
   <v>       0.41666667       0.41666667       0.16666667 </v>
   <v>       0.50000000       0.41666667       0.16666667 </v>
   <v>       0.50000000       0.50000000       0.16666667 </v>
   <v>       0.25000000       0.25000000       0.25000000 </v>
   <v>       0.33333333       0.25000000       0.25000000 </v>
   <v>       0.41666667       0.25000000       0.25000000 </v>
   <v>       0.50000000       0.25000000       0.25000000 </v>
   <v>       0.33333333       0.33333333       0.25000000 </v>
   <v>       0.41666667       0.33333333       0.25000000 </v>
   <v>       0.50000000       0.33333333       0.25000000 </v>
   <v>       0.41666667       0.41666667       0.25000000 </v>
   <v>       0.50000000       0.41666667       0.25000000 </v>
   <v>       0.50000000       0.50000000       0.25000000 </v>
   <v>       0.33333333       0.33333333       0.33333333 </v>
   <v>       0.41666667       0.33333333       0.33333333 </v>
   <v>       0.50000000       0.33333333       0.33333333 </v>
   <v>       0.41666667       0.41666667       0.33333333 </v>
   <v>       0.50000000       0.41666667       0.33333333 </v>
   <v>       0.50000000       0.50000000       0.33333333 </v>
   <v>       0.41666667       0.41666667       0.41666667 </v>
   <v>       0.50000000       0.41666667       0.41666667 </v>
   <v>       0.50000000       0.50000000       0.41666667 </v>
   <v>       0.50000000       0.50000000       0.50000000 </v>
  </varray>
  <varray name="weights" >
   <v>       0.00057870 </v>
   <v>       0.00347222 </v>
   <v>       0.00347222 </v>
   <v>       0.00347222 </v>
   <v>       0.00347222 </v>
   <v>       0.00347222 </v>
   <v>       0.00173611 </v>
   <v>       0.00694444 </v>
   <v>       0.01388889 </v>
   <v>       0.01388889 </v>
   <v>       0.01388889 </v>
   <v>       0.01388889 </v>
   <v>       0.00694444 </v>
   <v>       0.00694444 </v>
   <v>       0.01388889 </v>
   <v>       0.01388889 </v>
   <v>       0.01388889 </v>
   <v>       0.00694444 </v>
   <v>       0.00694444 </v>
   <v>       0.01388889 </v>
   <v>       0.01388889 </v>
   <v>       0.00694444 </v>
   <v>       0.00694444 </v>
   <v>       0.01388889 </v>
   <v>       0.00694444 </v>
   <v>       0.00694444 </v>
   <v>       0.00694444 </v>
   <v>       0.00173611 </v>
   <v>       0.00462963 </v>
   <v>       0.01388889 </v>
   <v>       0.01388889 </v>
   <v>       0.01388889 </v>
   <v>       0.01388889 </v>
   <v>       0.00694444 </v>
   <v>       0.01388889 </v>
   <v>       0.02777778 </v>
   <v>       0.02777778 </v>
   <v>       0.02777778 </v>
   <v>       0.01388889 </v>
   <v>       0.01388889 </v>
   <v>       0.02777778 </v>
   <v>       0.02777778 </v>
   <v>       0.01388889 </v>
   <v>       0.01388889 </v>
   <v>       0.02777778 </v>
   <v>       0.01388889 </v>
   <v>       0.01388889 </v>
   <v>       0.01388889 </v>
   <v>       0.00347222 </v>
   <v>       0.00462963 </v>
   <v>       0.01388889 </v>
   <v>       0.01388889 </v>
   <v>       0.01388889 </v>
   <v>       0.00694444 </v>
   <v>       0.01388889 </v>
   <v>       0.02777778 </v>
   <v>       0.02777778 </v>
   <v>       0.01388889 </v>
   <v>       0.01388889 </v>
   <v>       0.02777778 </v>
   <v>       0.01388889 </v>
   <v>       0.01388889 </v>
   <v>       0.01388889 </v>
   <v>       0.00347222 </v>
   <v>       0.00462963 </v>
   <v>       0.01388889 </v>
   <v>       0.01388889 </v>
   <v>       0.00694444 </v>
   <v>       0.01388889 </v>
   <v>       0.02777778 </v>
   <v>       0.01388889 </v>
   <v>       0.01388889 </v>
   <v>       0.01388889 </v>
   <v>       0.00347222 </v>
   <v>       0.00462963 </v>
   <v>       0.01388889 </v>
   <v>       0.00694444 </v>
   <v>       0.01388889 </v>
   <v>       0.01388889 </v>
   <v>       0.00347222 </v>
   <v>       0.00462963 </v>
   <v>       0.00694444 </v>
   <v>       0.00347222 </v>
   <v>       0.00057870 </v>
  </varray>
  <varray name="tetrahedronlist"  type="int" >
   <v type="int" >       12        1        2        2        8 </v>
   <v type="int" >       12        2        2        8        8 </v>
   <v type="int" >       12        2        8        8       29 </v>
   <v type="int" >       12        2        3        8        9 </v>
   <v type="int" >       12        2        8        8        9 </v>
   <v type="int" >       12        8        8        9       29 </v>
   <v type="int" >       12        3        8        9        9 </v>
   <v type="int" >       24        8        9        9       30 </v>
   <v type="int" >       24        8        9       29       30 </v>
   <v type="int" >       12        3        4        9       10 </v>
   <v type="int" >       12        3        9        9       10 </v>
   <v type="int" >       12        9        9       10       30 </v>
   <v type="int" >       12        4        9       10       10 </v>
   <v type="int" >       12        9       10       10       31 </v>
   <v type="int" >       12        9       10       30       31 </v>
   <v type="int" >       12        4        5       10       11 </v>
   <v type="int" >       12        4       10       10       11 </v>
   <v type="int" >       12       10       10       11       31 </v>
   <v type="int" >       12        5       10       11       11 </v>
   <v type="int" >       12       10       11       11       32 </v>
   <v type="int" >       12       10       11       31       32 </v>
   <v type="int" >       12        5        6       11       12 </v>
   <v type="int" >       12        5       11       11       12 </v>
   <v type="int" >       12       11       11       12       32 </v>
   <v type="int" >       12        6       11       12       12 </v>
   <v type="int" >       12       11       12       12       33 </v>
   <v type="int" >       12       11       12       32       33 </v>
   <v type="int" >       12        6        7       12       13 </v>
   <v type="int" >       12        6       12       12       13 </v>
   <v type="int" >       12       12       12       13       33 </v>
   <v type="int" >       12        7       12       13       13 </v>
   <v type="int" >       12       12       13       13       34 </v>
   <v type="int" >       12       12       13       33       34 </v>
   <v type="int" >       12        8        9       14       29 </v>
   <v type="int" >       12        9       14       29       30 </v>
   <v type="int" >       12       14       29       30       35 </v>
   <v type="int" >       12        9       10       15       30 </v>
   <v type="int" >       12        9       14       15       30 </v>
   <v type="int" >       12       14       15       30       35 </v>
   <v type="int" >       12       10       15       30       31 </v>
   <v type="int" >       12       15       30       31       36 </v>
   <v type="int" >       12       15       30       35       36 </v>
   <v type="int" >       12       10       11       16       31 </v>
   <v type="int" >       12       10       15       16       31 </v>
   <v type="int" >       12       15       16       31       36 </v>
   <v type="int" >       12       11       16       31       32 </v>
   <v type="int" >       12       16       31       32       37 </v>
   <v type="int" >       12       16       31       36       37 </v>
   <v type="int" >       12       11       12       17       32 </v>
   <v type="int" >       12       11       16       17       32 </v>
   <v type="int" >       12       16       17       32       37 </v>
   <v type="int" >       12       12       17       32       33 </v>
   <v type="int" >       12       17       32       33       38 </v>
   <v type="int" >       12       17       32       37       38 </v>
   <v type="int" >       12       12       13       18       33 </v>
   <v type="int" >       12       12       17       18       33 </v>
   <v type="int" >       12       17       18       33       38 </v>
   <v type="int" >       12       13       18       33       34 </v>
   <v type="int" >       12       18       33       34       39 </v>
   <v type="int" >       12       18       33       38       39 </v>
   <v type="int" >       12       12       13       17       34 </v>
   <v type="int" >       12       13       17       18       34 </v>
   <v type="int" >       12       17       18       34       39 </v>
   <v type="int" >       12       12       17       33       34 </v>
   <v type="int" >       12       17       33       34       38 </v>
   <v type="int" >       12       17       34       38       39 </v>
   <v type="int" >       12       11       12       16       33 </v>
   <v type="int" >       12       12       16       17       33 </v>
   <v type="int" >       12       16       17       33       38 </v>
   <v type="int" >       12       11       16       32       33 </v>
   <v type="int" >       12       16       32       33       37 </v>
   <v type="int" >       12       16       33       37       38 </v>
   <v type="int" >       12       10       11       15       32 </v>
   <v type="int" >       12       11       15       16       32 </v>
   <v type="int" >       12       15       16       32       37 </v>
   <v type="int" >       12       10       15       31       32 </v>
   <v type="int" >       12       15       31       32       36 </v>
   <v type="int" >       12       15       32       36       37 </v>
   <v type="int" >       12        9       10       14       31 </v>
   <v type="int" >       12       10       14       15       31 </v>
   <v type="int" >       12       14       15       31       36 </v>
   <v type="int" >       12        9       14       30       31 </v>
   <v type="int" >       12       14       30       31       35 </v>
   <v type="int" >       12       14       31       35       36 </v>
   <v type="int" >       12        9        9       14       30 </v>
   <v type="int" >       12        9       14       30       35 </v>
   <v type="int" >       12        9       29       30       30 </v>
   <v type="int" >       12        9       30       30       35 </v>
   <v type="int" >       12        2        3        8       29 </v>
   <v type="int" >       12        3        8        9       29 </v>
   <v type="int" >       12        3        9       29       30 </v>
   <v type="int" >       12       14       15       19       35 </v>
   <v type="int" >       12       15       19       35       36 </v>
   <v type="int" >       12       19       35       36       40 </v>
   <v type="int" >       12       15       16       20       36 </v>
   <v type="int" >       12       15       19       20       36 </v>
   <v type="int" >       12       19       20       36       40 </v>
   <v type="int" >       12       16       20       36       37 </v>
   <v type="int" >       12       20       36       37       41 </v>
   <v type="int" >       12       20       36       40       41 </v>
   <v type="int" >       12       16       17       21       37 </v>
   <v type="int" >       12       16       20       21       37 </v>
   <v type="int" >       12       20       21       37       41 </v>
   <v type="int" >       12       17       21       37       38 </v>
   <v type="int" >       12       21       37       38       42 </v>
   <v type="int" >       12       21       37       41       42 </v>
   <v type="int" >       12       17       18       22       38 </v>
   <v type="int" >       12       17       21       22       38 </v>
   <v type="int" >       12       21       22       38       42 </v>
   <v type="int" >       12       18       22       38       39 </v>
   <v type="int" >       12       22       38       39       43 </v>
   <v type="int" >       12       22       38       42       43 </v>
   <v type="int" >       12       17       18       21       39 </v>
   <v type="int" >       12       18       21       22       39 </v>
   <v type="int" >       12       21       22       39       43 </v>
   <v type="int" >       12       17       21       38       39 </v>
   <v type="int" >       12       21       38       39       42 </v>
   <v type="int" >       12       21       39       42       43 </v>
   <v type="int" >       12       16       17       20       38 </v>
   <v type="int" >       12       17       20       21       38 </v>
   <v type="int" >       12       20       21       38       42 </v>
   <v type="int" >       12       16       20       37       38 </v>
   <v type="int" >       12       20       37       38       41 </v>
   <v type="int" >       12       20       38       41       42 </v>
   <v type="int" >       12       15       16       19       37 </v>
   <v type="int" >       12       16       19       20       37 </v>
   <v type="int" >       12       19       20       37       41 </v>
   <v type="int" >       12       15       19       36       37 </v>
   <v type="int" >       12       19       36       37       40 </v>
   <v type="int" >       12       19       37       40       41 </v>
   <v type="int" >       12       14       15       15       36 </v>
   <v type="int" >       12       15       15       19       36 </v>
   <v type="int" >       12       15       19       36       40 </v>
   <v type="int" >       12       14       15       35       36 </v>
   <v type="int" >       12       15       35       36       36 </v>
   <v type="int" >       12       15       36       36       40 </v>
   <v type="int" >       12        9       10       14       35 </v>
   <v type="int" >       12       10       14       15       35 </v>
   <v type="int" >       12       10       15       35       36 </v>
   <v type="int" >       12        9       10       30       35 </v>
   <v type="int" >       12       10       30       31       35 </v>
   <v type="int" >       12       10       31       35       36 </v>
   <v type="int" >       12        3        4        9       30 </v>
   <v type="int" >       12        4        9       10       30 </v>
   <v type="int" >       12        4       10       30       31 </v>
   <v type="int" >       12       19       20       23       40 </v>
   <v type="int" >       12       20       23       40       41 </v>
   <v type="int" >       12       23       40       41       44 </v>
   <v type="int" >       12       20       21       24       41 </v>
   <v type="int" >       12       20       23       24       41 </v>
   <v type="int" >       12       23       24       41       44 </v>
   <v type="int" >       12       21       24       41       42 </v>
   <v type="int" >       12       24       41       42       45 </v>
   <v type="int" >       12       24       41       44       45 </v>
   <v type="int" >       12       21       22       25       42 </v>
   <v type="int" >       12       21       24       25       42 </v>
   <v type="int" >       12       24       25       42       45 </v>
   <v type="int" >       12       22       25       42       43 </v>
   <v type="int" >       12       25       42       43       46 </v>
   <v type="int" >       12       25       42       45       46 </v>
   <v type="int" >       12       21       22       24       43 </v>
   <v type="int" >       12       22       24       25       43 </v>
   <v type="int" >       12       24       25       43       46 </v>
   <v type="int" >       12       21       24       42       43 </v>
   <v type="int" >       12       24       42       43       45 </v>
   <v type="int" >       12       24       43       45       46 </v>
   <v type="int" >       12       20       21       23       42 </v>
   <v type="int" >       12       21       23       24       42 </v>
   <v type="int" >       12       23       24       42       45 </v>
   <v type="int" >       12       20       23       41       42 </v>
   <v type="int" >       12       23       41       42       44 </v>
   <v type="int" >       12       23       42       44       45 </v>
   <v type="int" >       12       19       20       20       41 </v>
   <v type="int" >       12       20       20       23       41 </v>
   <v type="int" >       12       20       23       41       44 </v>
   <v type="int" >       12       19       20       40       41 </v>
   <v type="int" >       12       20       40       41       41 </v>
   <v type="int" >       12       20       41       41       44 </v>
   <v type="int" >       12       15       16       19       40 </v>
   <v type="int" >       12       16       19       20       40 </v>
   <v type="int" >       12       16       20       40       41 </v>
   <v type="int" >       12       15       16       36       40 </v>
   <v type="int" >       12       16       36       37       40 </v>
   <v type="int" >       12       16       37       40       41 </v>
   <v type="int" >       12       10       11       15       36 </v>
   <v type="int" >       12       11       15       16       36 </v>
   <v type="int" >       12       11       16       36       37 </v>
   <v type="int" >       12       10       11       31       36 </v>
   <v type="int" >       12       11       31       32       36 </v>
   <v type="int" >       12       11       32       36       37 </v>
   <v type="int" >       12        4        5       10       31 </v>
   <v type="int" >       12        5       10       11       31 </v>
   <v type="int" >       12        5       11       31       32 </v>
   <v type="int" >       12       23       24       26       44 </v>
   <v type="int" >       12       24       26       44       45 </v>
   <v type="int" >       12       26       44       45       47 </v>
   <v type="int" >       12       24       25       27       45 </v>
   <v type="int" >       12       24       26       27       45 </v>
   <v type="int" >       12       26       27       45       47 </v>
   <v type="int" >       12       25       27       45       46 </v>
   <v type="int" >       12       27       45       46       48 </v>
   <v type="int" >       12       27       45       47       48 </v>
   <v type="int" >       12       24       25       26       46 </v>
   <v type="int" >       12       25       26       27       46 </v>
   <v type="int" >       12       26       27       46       48 </v>
   <v type="int" >       12       24       26       45       46 </v>
   <v type="int" >       12       26       45       46       47 </v>
   <v type="int" >       12       26       46       47       48 </v>
   <v type="int" >       12       23       24       24       45 </v>
   <v type="int" >       12       24       24       26       45 </v>
   <v type="int" >       12       24       26       45       47 </v>
   <v type="int" >       12       23       24       44       45 </v>
   <v type="int" >       12       24       44       45       45 </v>
   <v type="int" >       12       24       45       45       47 </v>
   <v type="int" >       12       20       21       23       44 </v>
   <v type="int" >       12       21       23       24       44 </v>
   <v type="int" >       12       21       24       44       45 </v>
   <v type="int" >       12       20       21       41       44 </v>
   <v type="int" >       12       21       41       42       44 </v>
   <v type="int" >       12       21       42       44       45 </v>
   <v type="int" >       12       16       17       20       41 </v>
   <v type="int" >       12       17       20       21       41 </v>
   <v type="int" >       12       17       21       41       42 </v>
   <v type="int" >       12       16       17       37       41 </v>
   <v type="int" >       12       17       37       38       41 </v>
   <v type="int" >       12       17       38       41       42 </v>
   <v type="int" >       12       11       12       16       37 </v>
   <v type="int" >       12       12       16       17       37 </v>
   <v type="int" >       12       12       17       37       38 </v>
   <v type="int" >       12       11       12       32       37 </v>
   <v type="int" >       12       12       32       33       37 </v>
   <v type="int" >       12       12       33       37       38 </v>
   <v type="int" >       12        5        6       11       32 </v>
   <v type="int" >       12        6       11       12       32 </v>
   <v type="int" >       12        6       12       32       33 </v>
   <v type="int" >       12       26       27       28       47 </v>
   <v type="int" >       12       27       28       47       48 </v>
   <v type="int" >       12       28       47       48       49 </v>
   <v type="int" >       12       26       27       27       48 </v>
   <v type="int" >       12       27       27       28       48 </v>
   <v type="int" >       12       27       28       48       49 </v>
   <v type="int" >       12       26       27       47       48 </v>
   <v type="int" >       12       27       47       48       48 </v>
   <v type="int" >       12       27       48       48       49 </v>
   <v type="int" >       12       24       25       26       47 </v>
   <v type="int" >       12       25       26       27       47 </v>
   <v type="int" >       12       25       27       47       48 </v>
   <v type="int" >       12       24       25       45       47 </v>
   <v type="int" >       12       25       45       46       47 </v>
   <v type="int" >       12       25       46       47       48 </v>
   <v type="int" >       12       21       22       24       45 </v>
   <v type="int" >       12       22       24       25       45 </v>
   <v type="int" >       12       22       25       45       46 </v>
   <v type="int" >       12       21       22       42       45 </v>
   <v type="int" >       12       22       42       43       45 </v>
   <v type="int" >       12       22       43       45       46 </v>
   <v type="int" >       12       17       18       21       42 </v>
   <v type="int" >       12       18       21       22       42 </v>
   <v type="int" >       12       18       22       42       43 </v>
   <v type="int" >       12       17       18       38       42 </v>
   <v type="int" >       12       18       38       39       42 </v>
   <v type="int" >       12       18       39       42       43 </v>
   <v type="int" >       12       12       13       17       38 </v>
   <v type="int" >       12       13       17       18       38 </v>
   <v type="int" >       12       13       18       38       39 </v>
   <v type="int" >       12       12       13       33       38 </v>
   <v type="int" >       12       13       33       34       38 </v>
   <v type="int" >       12       13       34       38       39 </v>
   <v type="int" >       12        6        7       12       33 </v>
   <v type="int" >       12        7       12       13       33 </v>
   <v type="int" >       12        7       13       33       34 </v>
   <v type="int" >       12       26       27       28       49 </v>
   <v type="int" >       12       26       27       48       49 </v>
   <v type="int" >       12       26       47       48       49 </v>
   <v type="int" >       12       24       25       27       48 </v>
   <v type="int" >       12       24       26       27       48 </v>
   <v type="int" >       12       24       26       47       48 </v>
   <v type="int" >       12       24       25       46       48 </v>
   <v type="int" >       12       24       45       46       48 </v>
   <v type="int" >       12       24       45       47       48 </v>
   <v type="int" >       12       21       22       25       46 </v>
   <v type="int" >       12       21       24       25       46 </v>
   <v type="int" >       12       21       24       45       46 </v>
   <v type="int" >       12       21       22       43       46 </v>
   <v type="int" >       12       21       42       43       46 </v>
   <v type="int" >       12       21       42       45       46 </v>
   <v type="int" >       12       17       18       22       43 </v>
   <v type="int" >       12       17       21       22       43 </v>
   <v type="int" >       12       17       21       42       43 </v>
   <v type="int" >       12       17       18       39       43 </v>
   <v type="int" >       12       17       38       39       43 </v>
   <v type="int" >       12       17       38       42       43 </v>
   <v type="int" >       12       12       13       18       39 </v>
   <v type="int" >       12       12       17       18       39 </v>
   <v type="int" >       12       12       17       38       39 </v>
   <v type="int" >       12       12       13       34       39 </v>
   <v type="int" >       12       12       33       34       39 </v>
   <v type="int" >       12       12       33       38       39 </v>
   <v type="int" >       12        6        7       13       34 </v>
   <v type="int" >       12        6       12       13       34 </v>
   <v type="int" >       12        6       12       33       34 </v>
   <v type="int" >       12       23       24       26       47 </v>
   <v type="int" >       12       23       24       45       47 </v>
   <v type="int" >       12       23       44       45       47 </v>
   <v type="int" >       12       20       21       24       45 </v>
   <v type="int" >       12       20       23       24       45 </v>
   <v type="int" >       12       20       23       44       45 </v>
   <v type="int" >       12       20       21       42       45 </v>
   <v type="int" >       12       20       41       42       45 </v>
   <v type="int" >       12       20       41       44       45 </v>
   <v type="int" >       12       16       17       21       42 </v>
   <v type="int" >       12       16       20       21       42 </v>
   <v type="int" >       12       16       20       41       42 </v>
   <v type="int" >       12       16       17       38       42 </v>
   <v type="int" >       12       16       37       38       42 </v>
   <v type="int" >       12       16       37       41       42 </v>
   <v type="int" >       12       11       12       17       38 </v>
   <v type="int" >       12       11       16       17       38 </v>
   <v type="int" >       12       11       16       37       38 </v>
   <v type="int" >       12       11       12       33       38 </v>
   <v type="int" >       12       11       32       33       38 </v>
   <v type="int" >       12       11       32       37       38 </v>
   <v type="int" >       12        5        6       12       33 </v>
   <v type="int" >       12        5       11       12       33 </v>
   <v type="int" >       12        5       11       32       33 </v>
   <v type="int" >       12       19       20       23       44 </v>
   <v type="int" >       12       19       20       41       44 </v>
   <v type="int" >       12       19       40       41       44 </v>
   <v type="int" >       12       15       16       20       41 </v>
   <v type="int" >       12       15       19       20       41 </v>
   <v type="int" >       12       15       19       40       41 </v>
   <v type="int" >       12       15       16       37       41 </v>
   <v type="int" >       12       15       36       37       41 </v>
   <v type="int" >       12       15       36       40       41 </v>
   <v type="int" >       12       10       11       16       37 </v>
   <v type="int" >       12       10       15       16       37 </v>
   <v type="int" >       12       10       15       36       37 </v>
   <v type="int" >       12       10       11       32       37 </v>
   <v type="int" >       12       10       31       32       37 </v>
   <v type="int" >       12       10       31       36       37 </v>
   <v type="int" >       12        4        5       11       32 </v>
   <v type="int" >       12        4       10       11       32 </v>
   <v type="int" >       12        4       10       31       32 </v>
   <v type="int" >       12       14       15       19       40 </v>
   <v type="int" >       12       14       15       36       40 </v>
   <v type="int" >       12       14       35       36       40 </v>
   <v type="int" >       12        9       10       15       36 </v>
   <v type="int" >       12        9       14       15       36 </v>
   <v type="int" >       12        9       14       35       36 </v>
   <v type="int" >       12        9       10       31       36 </v>
   <v type="int" >       12        9       30       31       36 </v>
   <v type="int" >       12        9       30       35       36 </v>
   <v type="int" >       12        3        4       10       31 </v>
   <v type="int" >       12        3        9       10       31 </v>
   <v type="int" >       12        3        9       30       31 </v>
   <v type="int" >       12        8        9       14       35 </v>
   <v type="int" >       12        8        9       30       35 </v>
   <v type="int" >       12        8       29       30       35 </v>
   <v type="int" >       12        2        3        9       30 </v>
   <v type="int" >       12        2        8        9       30 </v>
   <v type="int" >       12        2        8       29       30 </v>
   <v type="int" >       12        1        2        8       29 </v>
   <v type="int" >       12       29       30       30       35 </v>
   <v type="int" >       12       30       30       35       35 </v>
   <v type="int" >       12       30       35       35       50 </v>
   <v type="int" >       12       30       31       35       36 </v>
   <v type="int" >       12       30       35       35       36 </v>
   <v type="int" >       12       35       35       36       50 </v>
   <v type="int" >       12       31       35       36       36 </v>
   <v type="int" >       24       35       36       36       51 </v>
   <v type="int" >       24       35       36       50       51 </v>
   <v type="int" >       12       31       32       36       37 </v>
   <v type="int" >       12       31       36       36       37 </v>
   <v type="int" >       12       36       36       37       51 </v>
   <v type="int" >       12       32       36       37       37 </v>
   <v type="int" >       12       36       37       37       52 </v>
   <v type="int" >       12       36       37       51       52 </v>
   <v type="int" >       12       32       33       37       38 </v>
   <v type="int" >       12       32       37       37       38 </v>
   <v type="int" >       12       37       37       38       52 </v>
   <v type="int" >       12       33       37       38       38 </v>
   <v type="int" >       12       37       38       38       53 </v>
   <v type="int" >       12       37       38       52       53 </v>
   <v type="int" >       12       33       34       38       39 </v>
   <v type="int" >       12       33       38       38       39 </v>
   <v type="int" >       12       38       38       39       53 </v>
   <v type="int" >       12       34       38       39       39 </v>
   <v type="int" >       12       38       39       39       54 </v>
   <v type="int" >       12       38       39       53       54 </v>
   <v type="int" >       12       35       36       40       50 </v>
   <v type="int" >       12       36       40       50       51 </v>
   <v type="int" >       12       40       50       51       55 </v>
   <v type="int" >       12       36       37       41       51 </v>
   <v type="int" >       12       36       40       41       51 </v>
   <v type="int" >       12       40       41       51       55 </v>
   <v type="int" >       12       37       41       51       52 </v>
   <v type="int" >       12       41       51       52       56 </v>
   <v type="int" >       12       41       51       55       56 </v>
   <v type="int" >       12       37       38       42       52 </v>
   <v type="int" >       12       37       41       42       52 </v>
   <v type="int" >       12       41       42       52       56 </v>
   <v type="int" >       12       38       42       52       53 </v>
   <v type="int" >       12       42       52       53       57 </v>
   <v type="int" >       12       42       52       56       57 </v>
   <v type="int" >       12       38       39       43       53 </v>
   <v type="int" >       12       38       42       43       53 </v>
   <v type="int" >       12       42       43       53       57 </v>
   <v type="int" >       12       39       43       53       54 </v>
   <v type="int" >       12       43       53       54       58 </v>
   <v type="int" >       12       43       53       57       58 </v>
   <v type="int" >       12       38       39       42       54 </v>
   <v type="int" >       12       39       42       43       54 </v>
   <v type="int" >       12       42       43       54       58 </v>
   <v type="int" >       12       38       42       53       54 </v>
   <v type="int" >       12       42       53       54       57 </v>
   <v type="int" >       12       42       54       57       58 </v>
   <v type="int" >       12       37       38       41       53 </v>
   <v type="int" >       12       38       41       42       53 </v>
   <v type="int" >       12       41       42       53       57 </v>
   <v type="int" >       12       37       41       52       53 </v>
   <v type="int" >       12       41       52       53       56 </v>
   <v type="int" >       12       41       53       56       57 </v>
   <v type="int" >       12       36       37       40       52 </v>
   <v type="int" >       12       37       40       41       52 </v>
   <v type="int" >       12       40       41       52       56 </v>
   <v type="int" >       12       36       40       51       52 </v>
   <v type="int" >       12       40       51       52       55 </v>
   <v type="int" >       12       40       52       55       56 </v>
   <v type="int" >       12       36       36       40       51 </v>
   <v type="int" >       12       36       40       51       55 </v>
   <v type="int" >       12       36       50       51       51 </v>
   <v type="int" >       12       36       51       51       55 </v>
   <v type="int" >       12       30       31       35       50 </v>
   <v type="int" >       12       31       35       36       50 </v>
   <v type="int" >       12       31       36       50       51 </v>
   <v type="int" >       12       40       41       44       55 </v>
   <v type="int" >       12       41       44       55       56 </v>
   <v type="int" >       12       44       55       56       59 </v>
   <v type="int" >       12       41       42       45       56 </v>
   <v type="int" >       12       41       44       45       56 </v>
   <v type="int" >       12       44       45       56       59 </v>
   <v type="int" >       12       42       45       56       57 </v>
   <v type="int" >       12       45       56       57       60 </v>
   <v type="int" >       12       45       56       59       60 </v>
   <v type="int" >       12       42       43       46       57 </v>
   <v type="int" >       12       42       45       46       57 </v>
   <v type="int" >       12       45       46       57       60 </v>
   <v type="int" >       12       43       46       57       58 </v>
   <v type="int" >       12       46       57       58       61 </v>
   <v type="int" >       12       46       57       60       61 </v>
   <v type="int" >       12       42       43       45       58 </v>
   <v type="int" >       12       43       45       46       58 </v>
   <v type="int" >       12       45       46       58       61 </v>
   <v type="int" >       12       42       45       57       58 </v>
   <v type="int" >       12       45       57       58       60 </v>
   <v type="int" >       12       45       58       60       61 </v>
   <v type="int" >       12       41       42       44       57 </v>
   <v type="int" >       12       42       44       45       57 </v>
   <v type="int" >       12       44       45       57       60 </v>
   <v type="int" >       12       41       44       56       57 </v>
   <v type="int" >       12       44       56       57       59 </v>
   <v type="int" >       12       44       57       59       60 </v>
   <v type="int" >       12       40       41       41       56 </v>
   <v type="int" >       12       41       41       44       56 </v>
   <v type="int" >       12       41       44       56       59 </v>
   <v type="int" >       12       40       41       55       56 </v>
   <v type="int" >       12       41       55       56       56 </v>
   <v type="int" >       12       41       56       56       59 </v>
   <v type="int" >       12       36       37       40       55 </v>
   <v type="int" >       12       37       40       41       55 </v>
   <v type="int" >       12       37       41       55       56 </v>
   <v type="int" >       12       36       37       51       55 </v>
   <v type="int" >       12       37       51       52       55 </v>
   <v type="int" >       12       37       52       55       56 </v>
   <v type="int" >       12       31       32       36       51 </v>
   <v type="int" >       12       32       36       37       51 </v>
   <v type="int" >       12       32       37       51       52 </v>
   <v type="int" >       12       44       45       47       59 </v>
   <v type="int" >       12       45       47       59       60 </v>
   <v type="int" >       12       47       59       60       62 </v>
   <v type="int" >       12       45       46       48       60 </v>
   <v type="int" >       12       45       47       48       60 </v>
   <v type="int" >       12       47       48       60       62 </v>
   <v type="int" >       12       46       48       60       61 </v>
   <v type="int" >       12       48       60       61       63 </v>
   <v type="int" >       12       48       60       62       63 </v>
   <v type="int" >       12       45       46       47       61 </v>
   <v type="int" >       12       46       47       48       61 </v>
   <v type="int" >       12       47       48       61       63 </v>
   <v type="int" >       12       45       47       60       61 </v>
   <v type="int" >       12       47       60       61       62 </v>
   <v type="int" >       12       47       61       62       63 </v>
   <v type="int" >       12       44       45       45       60 </v>
   <v type="int" >       12       45       45       47       60 </v>
   <v type="int" >       12       45       47       60       62 </v>
   <v type="int" >       12       44       45       59       60 </v>
   <v type="int" >       12       45       59       60       60 </v>
   <v type="int" >       12       45       60       60       62 </v>
   <v type="int" >       12       41       42       44       59 </v>
   <v type="int" >       12       42       44       45       59 </v>
   <v type="int" >       12       42       45       59       60 </v>
   <v type="int" >       12       41       42       56       59 </v>
   <v type="int" >       12       42       56       57       59 </v>
   <v type="int" >       12       42       57       59       60 </v>
   <v type="int" >       12       37       38       41       56 </v>
   <v type="int" >       12       38       41       42       56 </v>
   <v type="int" >       12       38       42       56       57 </v>
   <v type="int" >       12       37       38       52       56 </v>
   <v type="int" >       12       38       52       53       56 </v>
   <v type="int" >       12       38       53       56       57 </v>
   <v type="int" >       12       32       33       37       52 </v>
   <v type="int" >       12       33       37       38       52 </v>
   <v type="int" >       12       33       38       52       53 </v>
   <v type="int" >       12       47       48       49       62 </v>
   <v type="int" >       12       48       49       62       63 </v>
   <v type="int" >       12       49       62       63       64 </v>
   <v type="int" >       12       47       48       48       63 </v>
   <v type="int" >       12       48       48       49       63 </v>
   <v type="int" >       12       48       49       63       64 </v>
   <v type="int" >       12       47       48       62       63 </v>
   <v type="int" >       12       48       62       63       63 </v>
   <v type="int" >       12       48       63       63       64 </v>
   <v type="int" >       12       45       46       47       62 </v>
   <v type="int" >       12       46       47       48       62 </v>
   <v type="int" >       12       46       48       62       63 </v>
   <v type="int" >       12       45       46       60       62 </v>
   <v type="int" >       12       46       60       61       62 </v>
   <v type="int" >       12       46       61       62       63 </v>
   <v type="int" >       12       42       43       45       60 </v>
   <v type="int" >       12       43       45       46       60 </v>
   <v type="int" >       12       43       46       60       61 </v>
   <v type="int" >       12       42       43       57       60 </v>
   <v type="int" >       12       43       57       58       60 </v>
   <v type="int" >       12       43       58       60       61 </v>
   <v type="int" >       12       38       39       42       57 </v>
   <v type="int" >       12       39       42       43       57 </v>
   <v type="int" >       12       39       43       57       58 </v>
   <v type="int" >       12       38       39       53       57 </v>
   <v type="int" >       12       39       53       54       57 </v>
   <v type="int" >       12       39       54       57       58 </v>
   <v type="int" >       12       33       34       38       53 </v>
   <v type="int" >       12       34       38       39       53 </v>
   <v type="int" >       12       34       39       53       54 </v>
   <v type="int" >       12       47       48       49       64 </v>
   <v type="int" >       12       47       48       63       64 </v>
   <v type="int" >       12       47       62       63       64 </v>
   <v type="int" >       12       45       46       48       63 </v>
   <v type="int" >       12       45       47       48       63 </v>
   <v type="int" >       12       45       47       62       63 </v>
   <v type="int" >       12       45       46       61       63 </v>
   <v type="int" >       12       45       60       61       63 </v>
   <v type="int" >       12       45       60       62       63 </v>
   <v type="int" >       12       42       43       46       61 </v>
   <v type="int" >       12       42       45       46       61 </v>
   <v type="int" >       12       42       45       60       61 </v>
   <v type="int" >       12       42       43       58       61 </v>
   <v type="int" >       12       42       57       58       61 </v>
   <v type="int" >       12       42       57       60       61 </v>
   <v type="int" >       12       38       39       43       58 </v>
   <v type="int" >       12       38       42       43       58 </v>
   <v type="int" >       12       38       42       57       58 </v>
   <v type="int" >       12       38       39       54       58 </v>
   <v type="int" >       12       38       53       54       58 </v>
   <v type="int" >       12       38       53       57       58 </v>
   <v type="int" >       12       33       34       39       54 </v>
   <v type="int" >       12       33       38       39       54 </v>
   <v type="int" >       12       33       38       53       54 </v>
   <v type="int" >       12       44       45       47       62 </v>
   <v type="int" >       12       44       45       60       62 </v>
   <v type="int" >       12       44       59       60       62 </v>
   <v type="int" >       12       41       42       45       60 </v>
   <v type="int" >       12       41       44       45       60 </v>
   <v type="int" >       12       41       44       59       60 </v>
   <v type="int" >       12       41       42       57       60 </v>
   <v type="int" >       12       41       56       57       60 </v>
   <v type="int" >       12       41       56       59       60 </v>
   <v type="int" >       12       37       38       42       57 </v>
   <v type="int" >       12       37       41       42       57 </v>
   <v type="int" >       12       37       41       56       57 </v>
   <v type="int" >       12       37       38       53       57 </v>
   <v type="int" >       12       37       52       53       57 </v>
   <v type="int" >       12       37       52       56       57 </v>
   <v type="int" >       12       32       33       38       53 </v>
   <v type="int" >       12       32       37       38       53 </v>
   <v type="int" >       12       32       37       52       53 </v>
   <v type="int" >       12       40       41       44       59 </v>
   <v type="int" >       12       40       41       56       59 </v>
   <v type="int" >       12       40       55       56       59 </v>
   <v type="int" >       12       36       37       41       56 </v>
   <v type="int" >       12       36       40       41       56 </v>
   <v type="int" >       12       36       40       55       56 </v>
   <v type="int" >       12       36       37       52       56 </v>
   <v type="int" >       12       36       51       52       56 </v>
   <v type="int" >       12       36       51       55       56 </v>
   <v type="int" >       12       31       32       37       52 </v>
   <v type="int" >       12       31       36       37       52 </v>
   <v type="int" >       12       31       36       51       52 </v>
   <v type="int" >       12       35       36       40       55 </v>
   <v type="int" >       12       35       36       51       55 </v>
   <v type="int" >       12       35       50       51       55 </v>
   <v type="int" >       12       30       31       36       51 </v>
   <v type="int" >       12       30       35       36       51 </v>
   <v type="int" >       12       30       35       50       51 </v>
   <v type="int" >       12       29       30       35       50 </v>
   <v type="int" >       12       50       51       51       55 </v>
   <v type="int" >       12       51       51       55       55 </v>
   <v type="int" >       12       51       55       55       65 </v>
   <v type="int" >       12       51       52       55       56 </v>
   <v type="int" >       12       51       55       55       56 </v>
   <v type="int" >       12       55       55       56       65 </v>
   <v type="int" >       12       52       55       56       56 </v>
   <v type="int" >       24       55       56       56       66 </v>
   <v type="int" >       24       55       56       65       66 </v>
   <v type="int" >       12       52       53       56       57 </v>
   <v type="int" >       12       52       56       56       57 </v>
   <v type="int" >       12       56       56       57       66 </v>
   <v type="int" >       12       53       56       57       57 </v>
   <v type="int" >       12       56       57       57       67 </v>
   <v type="int" >       12       56       57       66       67 </v>
   <v type="int" >       12       53       54       57       58 </v>
   <v type="int" >       12       53       57       57       58 </v>
   <v type="int" >       12       57       57       58       67 </v>
   <v type="int" >       12       54       57       58       58 </v>
   <v type="int" >       12       57       58       58       68 </v>
   <v type="int" >       12       57       58       67       68 </v>
   <v type="int" >       12       55       56       59       65 </v>
   <v type="int" >       12       56       59       65       66 </v>
   <v type="int" >       12       59       65       66       69 </v>
   <v type="int" >       12       56       57       60       66 </v>
   <v type="int" >       12       56       59       60       66 </v>
   <v type="int" >       12       59       60       66       69 </v>
   <v type="int" >       12       57       60       66       67 </v>
   <v type="int" >       12       60       66       67       70 </v>
   <v type="int" >       12       60       66       69       70 </v>
   <v type="int" >       12       57       58       61       67 </v>
   <v type="int" >       12       57       60       61       67 </v>
   <v type="int" >       12       60       61       67       70 </v>
   <v type="int" >       12       58       61       67       68 </v>
   <v type="int" >       12       61       67       68       71 </v>
   <v type="int" >       12       61       67       70       71 </v>
   <v type="int" >       12       57       58       60       68 </v>
   <v type="int" >       12       58       60       61       68 </v>
   <v type="int" >       12       60       61       68       71 </v>
   <v type="int" >       12       57       60       67       68 </v>
   <v type="int" >       12       60       67       68       70 </v>
   <v type="int" >       12       60       68       70       71 </v>
   <v type="int" >       12       56       57       59       67 </v>
   <v type="int" >       12       57       59       60       67 </v>
   <v type="int" >       12       59       60       67       70 </v>
   <v type="int" >       12       56       59       66       67 </v>
   <v type="int" >       12       59       66       67       69 </v>
   <v type="int" >       12       59       67       69       70 </v>
   <v type="int" >       12       56       56       59       66 </v>
   <v type="int" >       12       56       59       66       69 </v>
   <v type="int" >       12       56       65       66       66 </v>
   <v type="int" >       12       56       66       66       69 </v>
   <v type="int" >       12       51       52       55       65 </v>
   <v type="int" >       12       52       55       56       65 </v>
   <v type="int" >       12       52       56       65       66 </v>
   <v type="int" >       12       59       60       62       69 </v>
   <v type="int" >       12       60       62       69       70 </v>
   <v type="int" >       12       62       69       70       72 </v>
   <v type="int" >       12       60       61       63       70 </v>
   <v type="int" >       12       60       62       63       70 </v>
   <v type="int" >       12       62       63       70       72 </v>
   <v type="int" >       12       61       63       70       71 </v>
   <v type="int" >       12       63       70       71       73 </v>
   <v type="int" >       12       63       70       72       73 </v>
   <v type="int" >       12       60       61       62       71 </v>
   <v type="int" >       12       61       62       63       71 </v>
   <v type="int" >       12       62       63       71       73 </v>
   <v type="int" >       12       60       62       70       71 </v>
   <v type="int" >       12       62       70       71       72 </v>
   <v type="int" >       12       62       71       72       73 </v>
   <v type="int" >       12       59       60       60       70 </v>
   <v type="int" >       12       60       60       62       70 </v>
   <v type="int" >       12       60       62       70       72 </v>
   <v type="int" >       12       59       60       69       70 </v>
   <v type="int" >       12       60       69       70       70 </v>
   <v type="int" >       12       60       70       70       72 </v>
   <v type="int" >       12       56       57       59       69 </v>
   <v type="int" >       12       57       59       60       69 </v>
   <v type="int" >       12       57       60       69       70 </v>
   <v type="int" >       12       56       57       66       69 </v>
   <v type="int" >       12       57       66       67       69 </v>
   <v type="int" >       12       57       67       69       70 </v>
   <v type="int" >       12       52       53       56       66 </v>
   <v type="int" >       12       53       56       57       66 </v>
   <v type="int" >       12       53       57       66       67 </v>
   <v type="int" >       12       62       63       64       72 </v>
   <v type="int" >       12       63       64       72       73 </v>
   <v type="int" >       12       64       72       73       74 </v>
   <v type="int" >       12       62       63       63       73 </v>
   <v type="int" >       12       63       63       64       73 </v>
   <v type="int" >       12       63       64       73       74 </v>
   <v type="int" >       12       62       63       72       73 </v>
   <v type="int" >       12       63       72       73       73 </v>
   <v type="int" >       12       63       73       73       74 </v>
   <v type="int" >       12       60       61       62       72 </v>
   <v type="int" >       12       61       62       63       72 </v>
   <v type="int" >       12       61       63       72       73 </v>
   <v type="int" >       12       60       61       70       72 </v>
   <v type="int" >       12       61       70       71       72 </v>
   <v type="int" >       12       61       71       72       73 </v>
   <v type="int" >       12       57       58       60       70 </v>
   <v type="int" >       12       58       60       61       70 </v>
   <v type="int" >       12       58       61       70       71 </v>
   <v type="int" >       12       57       58       67       70 </v>
   <v type="int" >       12       58       67       68       70 </v>
   <v type="int" >       12       58       68       70       71 </v>
   <v type="int" >       12       53       54       57       67 </v>
   <v type="int" >       12       54       57       58       67 </v>
   <v type="int" >       12       54       58       67       68 </v>
   <v type="int" >       12       62       63       64       74 </v>
   <v type="int" >       12       62       63       73       74 </v>
   <v type="int" >       12       62       72       73       74 </v>
   <v type="int" >       12       60       61       63       73 </v>
   <v type="int" >       12       60       62       63       73 </v>
   <v type="int" >       12       60       62       72       73 </v>
   <v type="int" >       12       60       61       71       73 </v>
   <v type="int" >       12       60       70       71       73 </v>
   <v type="int" >       12       60       70       72       73 </v>
   <v type="int" >       12       57       58       61       71 </v>
   <v type="int" >       12       57       60       61       71 </v>
   <v type="int" >       12       57       60       70       71 </v>
   <v type="int" >       12       57       58       68       71 </v>
   <v type="int" >       12       57       67       68       71 </v>
   <v type="int" >       12       57       67       70       71 </v>
   <v type="int" >       12       53       54       58       68 </v>
   <v type="int" >       12       53       57       58       68 </v>
   <v type="int" >       12       53       57       67       68 </v>
   <v type="int" >       12       59       60       62       72 </v>
   <v type="int" >       12       59       60       70       72 </v>
   <v type="int" >       12       59       69       70       72 </v>
   <v type="int" >       12       56       57       60       70 </v>
   <v type="int" >       12       56       59       60       70 </v>
   <v type="int" >       12       56       59       69       70 </v>
   <v type="int" >       12       56       57       67       70 </v>
   <v type="int" >       12       56       66       67       70 </v>
   <v type="int" >       12       56       66       69       70 </v>
   <v type="int" >       12       52       53       57       67 </v>
   <v type="int" >       12       52       56       57       67 </v>
   <v type="int" >       12       52       56       66       67 </v>
   <v type="int" >       12       55       56       59       69 </v>
   <v type="int" >       12       55       56       66       69 </v>
   <v type="int" >       12       55       65       66       69 </v>
   <v type="int" >       12       51       52       56       66 </v>
   <v type="int" >       12       51       55       56       66 </v>
   <v type="int" >       12       51       55       65       66 </v>
   <v type="int" >       12       50       51       55       65 </v>
   <v type="int" >       12       65       66       66       69 </v>
   <v type="int" >       12       66       66       69       69 </v>
   <v type="int" >       12       66       69       69       75 </v>
   <v type="int" >       12       66       67       69       70 </v>
   <v type="int" >       12       66       69       69       70 </v>
   <v type="int" >       12       69       69       70       75 </v>
   <v type="int" >       12       67       69       70       70 </v>
   <v type="int" >       24       69       70       70       76 </v>
   <v type="int" >       24       69       70       75       76 </v>
   <v type="int" >       12       67       68       70       71 </v>
   <v type="int" >       12       67       70       70       71 </v>
   <v type="int" >       12       70       70       71       76 </v>
   <v type="int" >       12       68       70       71       71 </v>
   <v type="int" >       12       70       71       71       77 </v>
   <v type="int" >       12       70       71       76       77 </v>
   <v type="int" >       12       69       70       72       75 </v>
   <v type="int" >       12       70       72       75       76 </v>
   <v type="int" >       12       72       75       76       78 </v>
   <v type="int" >       12       70       71       73       76 </v>
   <v type="int" >       12       70       72       73       76 </v>
   <v type="int" >       12       72       73       76       78 </v>
   <v type="int" >       12       71       73       76       77 </v>
   <v type="int" >       12       73       76       77       79 </v>
   <v type="int" >       12       73       76       78       79 </v>
   <v type="int" >       12       70       71       72       77 </v>
   <v type="int" >       12       71       72       73       77 </v>
   <v type="int" >       12       72       73       77       79 </v>
   <v type="int" >       12       70       72       76       77 </v>
   <v type="int" >       12       72       76       77       78 </v>
   <v type="int" >       12       72       77       78       79 </v>
   <v type="int" >       12       70       70       72       76 </v>
   <v type="int" >       12       70       72       76       78 </v>
   <v type="int" >       12       70       75       76       76 </v>
   <v type="int" >       12       70       76       76       78 </v>
   <v type="int" >       12       66       67       69       75 </v>
   <v type="int" >       12       67       69       70       75 </v>
   <v type="int" >       12       67       70       75       76 </v>
   <v type="int" >       12       72       73       74       78 </v>
   <v type="int" >       12       73       74       78       79 </v>
   <v type="int" >       12       74       78       79       80 </v>
   <v type="int" >       12       72       73       73       79 </v>
   <v type="int" >       12       73       73       74       79 </v>
   <v type="int" >       12       73       74       79       80 </v>
   <v type="int" >       12       72       73       78       79 </v>
   <v type="int" >       12       73       78       79       79 </v>
   <v type="int" >       12       73       79       79       80 </v>
   <v type="int" >       12       70       71       72       78 </v>
   <v type="int" >       12       71       72       73       78 </v>
   <v type="int" >       12       71       73       78       79 </v>
   <v type="int" >       12       70       71       76       78 </v>
   <v type="int" >       12       71       76       77       78 </v>
   <v type="int" >       12       71       77       78       79 </v>
   <v type="int" >       12       67       68       70       76 </v>
   <v type="int" >       12       68       70       71       76 </v>
   <v type="int" >       12       68       71       76       77 </v>
   <v type="int" >       12       72       73       74       80 </v>
   <v type="int" >       12       72       73       79       80 </v>
   <v type="int" >       12       72       78       79       80 </v>
   <v type="int" >       12       70       71       73       79 </v>
   <v type="int" >       12       70       72       73       79 </v>
   <v type="int" >       12       70       72       78       79 </v>
   <v type="int" >       12       70       71       77       79 </v>
   <v type="int" >       12       70       76       77       79 </v>
   <v type="int" >       12       70       76       78       79 </v>
   <v type="int" >       12       67       68       71       77 </v>
   <v type="int" >       12       67       70       71       77 </v>
   <v type="int" >       12       67       70       76       77 </v>
   <v type="int" >       12       69       70       72       78 </v>
   <v type="int" >       12       69       70       76       78 </v>
   <v type="int" >       12       69       75       76       78 </v>
   <v type="int" >       12       66       67       70       76 </v>
   <v type="int" >       12       66       69       70       76 </v>
   <v type="int" >       12       66       69       75       76 </v>
   <v type="int" >       12       65       66       69       75 </v>
   <v type="int" >       12       75       76       76       78 </v>
   <v type="int" >       12       76       76       78       78 </v>
   <v type="int" >       12       76       78       78       81 </v>
   <v type="int" >       12       76       77       78       79 </v>
   <v type="int" >       12       76       78       78       79 </v>
   <v type="int" >       12       78       78       79       81 </v>
   <v type="int" >       12       77       78       79       79 </v>
   <v type="int" >       24       78       79       79       82 </v>
   <v type="int" >       24       78       79       81       82 </v>
   <v type="int" >       12       78       79       80       81 </v>
   <v type="int" >       12       79       80       81       82 </v>
   <v type="int" >       12       80       81       82       83 </v>
   <v type="int" >       12       79       79       80       82 </v>
   <v type="int" >       12       79       80       82       83 </v>
   <v type="int" >       12       79       81       82       82 </v>
   <v type="int" >       12       79       82       82       83 </v>
   <v type="int" >       12       76       77       78       81 </v>
   <v type="int" >       12       77       78       79       81 </v>
   <v type="int" >       12       77       79       81       82 </v>
   <v type="int" >       12       78       79       80       83 </v>
   <v type="int" >       12       78       79       82       83 </v>
   <v type="int" >       12       78       81       82       83 </v>
   <v type="int" >       12       76       77       79       82 </v>
   <v type="int" >       12       76       78       79       82 </v>
   <v type="int" >       12       76       78       81       82 </v>
   <v type="int" >       12       75       76       78       81 </v>
   <v type="int" >       12       81       82       82       83 </v>
   <v type="int" >       12       82       82       83       83 </v>
   <v type="int" >       12       82       83       83       84 </v>
   <v type="int" >       12       81       82       83       84 </v>
  </varray>
  <i name="volumeweight">      0.00009645 </i>
 </kpoints>
 <parameters>
  <separator name="general" >
   <i type="string" name="SYSTEM">unknown system</i>
   <i type="logical" name="LCOMPAT"> F  </i>
  </separator>
  <separator name="electronic" >
   <i type="string" name="PREC">accura</i>
   <i name="ENMAX">    400.00000000</i>
   <i name="ENAUG">    644.87300000</i>
   <i name="EDIFF">      0.00000100</i>
   <i type="int" name="IALGO">    38</i>
   <i type="int" name="IWAVPR">    10</i>
   <i type="int" name="NBANDS">    24</i>
   <i name="NELECT">     32.00000000</i>
   <i type="int" name="TURBO">     0</i>
   <i type="int" name="IRESTART">     0</i>
   <i type="int" name="NREBOOT">     0</i>
   <i type="int" name="NMIN">     0</i>
   <i name="EREF">      0.00000000</i>
   <separator name="electronic smearing" >
    <i type="int" name="ISMEAR">    -5</i>
    <i name="SIGMA">      0.06000000</i>
    <i name="KSPACING">      0.50000000</i>
    <i type="logical" name="KGAMMA"> T  </i>
   </separator>
   <separator name="electronic projectors" >
    <i type="logical" name="LREAL"> F  </i>
    <v name="ROPT">      0.00000000</v>
    <i type="int" name="LMAXPAW">  -100</i>
    <i type="int" name="LMAXMIX">     2</i>
    <i type="logical" name="NLSPLINE"> F  </i>
   </separator>
   <separator name="electronic startup" >
    <i type="int" name="ISTART">     0</i>
    <i type="int" name="ICHARG">     2</i>
    <i type="int" name="INIWAV">     1</i>
   </separator>
   <separator name="electronic spin" >
    <i type="int" name="ISPIN">     1</i>
    <i type="logical" name="LNONCOLLINEAR"> F  </i>
    <v name="MAGMOM">      1.00000000      1.00000000      1.00000000      1.00000000      1.00000000      1.00000000      1.00000000      1.00000000</v>
    <i name="NUPDOWN">     -1.00000000</i>
    <i type="logical" name="LSORBIT"> F  </i>
    <v name="SAXIS">      0.00000000      0.00000000      1.00000000</v>
    <i type="logical" name="LSPIRAL"> F  </i>
    <v name="QSPIRAL">      0.00000000      0.00000000      0.00000000</v>
    <i type="logical" name="LZEROZ"> F  </i>
   </separator>
   <separator name="electronic exchange-correlation" >
    <i type="logical" name="LASPH"> F  </i>
    <i type="logical" name="LMETAGGA"> F  </i>
   </separator>
   <separator name="electronic convergence" >
    <i type="int" name="NELM">    60</i>
    <i type="int" name="NELMDL">    -5</i>
    <i type="int" name="NELMIN">     2</i>
    <i name="ENINI">    400.00000000</i>
    <separator name="electronic convergence detail" >
     <i type="logical" name="LDIAG"> T  </i>
     <i type="logical" name="LSUBROT"> F  </i>
     <i name="WEIMIN">      0.00000000</i>
     <i name="EBREAK">      0.00000001</i>
     <i name="DEPER">      0.30000000</i>
     <i type="int" name="NRMM">     4</i>
     <i name="TIME">      0.40000000</i>
    </separator>
   </separator>
   <separator name="electronic mixer" >
    <i name="AMIX">      0.40000000</i>
    <i name="BMIX">      1.00000000</i>
    <i name="AMIN">      0.10000000</i>
    <i name="AMIX_MAG">      1.60000000</i>
    <i name="BMIX_MAG">      1.00000000</i>
    <separator name="electronic mixer details" >
     <i type="int" name="IMIX">     4</i>
     <i type="logical" name="MIXFIRST"> F  </i>
     <i type="int" name="MAXMIX">   -45</i>
     <i name="WC">    100.00000000</i>
     <i type="int" name="INIMIX">     1</i>
     <i type="int" name="MIXPRE">     1</i>
     <i type="int" name="MREMOVE">     5</i>
    </separator>
   </separator>
   <separator name="electronic dipolcorrection" >
    <i type="logical" name="LDIPOL"> F  </i>
    <i type="logical" name="LMONO"> F  </i>
    <i type="int" name="IDIPOL">     0</i>
    <i name="EPSILON">      1.00000000</i>
    <v name="DIPOL">   -100.00000000   -100.00000000   -100.00000000</v>
    <i name="EFIELD">      0.00000000</i>
   </separator>
  </separator>
  <separator name="grids" >
   <i type="int" name="NGX">    24</i>
   <i type="int" name="NGY">    24</i>
   <i type="int" name="NGZ">    24</i>
   <i type="int" name="NGXF">    48</i>
   <i type="int" name="NGYF">    48</i>
   <i type="int" name="NGZF">    48</i>
   <i type="logical" name="ADDGRID"> F  </i>
  </separator>
  <separator name="ionic" >
   <i type="int" name="NSW">     0</i>
   <i type="int" name="IBRION">    -1</i>
   <i type="int" name="MDALGO">     0</i>
   <i type="int" name="ISIF">     2</i>
   <i name="PSTRESS">      0.00000000</i>
   <i name="EDIFFG">      0.00001000</i>
   <i type="int" name="NFREE">     0</i>
   <i name="POTIM">      0.02000000</i>
   <i name="SMASS">     -3.00000000</i>
   <i name="SCALEE">      1.00000000</i>
  </separator>
  <separator name="ionic md" >
   <i name="TEBEG">      0.00010000</i>
   <i name="TEEND">      0.00010000</i>
   <i type="int" name="NBLOCK">     1</i>
   <i type="int" name="KBLOCK">     1</i>
   <i type="int" name="NPACO">   256</i>
   <i name="APACO">     16.00000000</i>
  </separator>
  <separator name="symmetry" >
   <i type="int" name="ISYM">     2</i>
   <i name="SYMPREC">      0.00001000</i>
  </separator>
  <separator name="dos" >
   <i type="int" name="LORBIT">     0</i>
   <v name="RWIGS">     -1.00000000</v>
   <i type="int" name="NEDOS">   301</i>
   <i name="EMIN">     10.00000000</i>
   <i name="EMAX">    -10.00000000</i>
   <i name="EFERMI">      0.00000000</i>
  </separator>
  <separator name="writing" >
   <i type="int" name="NWRITE">     2</i>
   <i type="logical" name="LWAVE"> F  </i>
   <i type="logical" name="LDOWNSAMPLE"> F  </i>
   <i type="logical" name="LCHARG"> F  </i>
   <i type="logical" name="LPARD"> F  </i>
   <i type="logical" name="LVTOT"> F  </i>
   <i type="logical" name="LVHAR"> F  </i>
   <i type="logical" name="LELF"> F  </i>
   <i type="logical" name="LOPTICS"> F  </i>
   <v name="STM">      0.00000000      0.00000000      0.00000000      0.00000000      0.00000000      0.00000000      0.00000000</v>
  </separator>
  <separator name="performance" >
   <i type="int" name="NPAR">     4</i>
   <i type="int" name="NSIM">     4</i>
   <i type="int" name="NBLK">    -1</i>
   <i type="logical" name="LPLANE"> T  </i>
   <i type="logical" name="LSCALAPACK"> T  </i>
   <i type="logical" name="LSCAAWARE"> F  </i>
   <i type="logical" name="LSCALU"> F  </i>
   <i type="logical" name="LASYNC"> F  </i>
   <i type="logical" name="LORBITALREAL"> F  </i>
  </separator>
  <separator name="miscellaneous" >
   <i type="int" name="IDIOT">     3</i>
   <i type="int" name="ISPECIAL">     0</i>
   <i type="logical" name="LMUSIC"> F  </i>
   <v name="POMASS">     12.01100000</v>
   <v name="DARWINR">      0.00000000</v>
   <v name="DARWINV">      1.00000000</v>
   <i type="logical" name="LCORR"> T  </i>
  </separator>
  <i type="logical" name="GGA_COMPAT"> T  </i>
  <i type="logical" name="LBERRY"> F  </i>
  <i type="int" name="ICORELEVEL">     0</i>
  <i type="logical" name="LDAU"> F  </i>
  <i type="int" name="I_CONSTRAINED_M">     0</i>
  <separator name="electronic exchange-correlation" >
   <i type="string" name="GGA">--</i>
   <i type="int" name="VOSKOWN">     0</i>
   <i type="logical" name="LHFCALC"> F  </i>
   <i type="string" name="PRECFOCK"></i>
   <i type="logical" name="LSYMGRAD"> F  </i>
   <i type="logical" name="LHFONE"> F  </i>
   <i type="logical" name="LRHFCALC"> F  </i>
   <i type="logical" name="LTHOMAS"> F  </i>
   <i type="logical" name="LMODELHF"> F  </i>
   <i name="ENCUT4O">     -1.00000000</i>
   <i type="int" name="EXXOEP">     0</i>
   <i type="int" name="FOURORBIT">     0</i>
   <i name="AEXX">      0.00000000</i>
   <i name="HFALPHA">      0.00000000</i>
   <i name="MCALPHA">      0.00000000</i>
   <i name="ALDAX">      1.00000000</i>
   <i name="AGGAX">      1.00000000</i>
   <i name="ALDAC">      1.00000000</i>
   <i name="AGGAC">      1.00000000</i>
   <i type="int" name="NKREDX">     1</i>
   <i type="int" name="NKREDY">     1</i>
   <i type="int" name="NKREDZ">     1</i>
   <i type="logical" name="SHIFTRED"> F  </i>
   <i type="logical" name="ODDONLY"> F  </i>
   <i type="logical" name="EVENONLY"> F  </i>
   <i type="int" name="LMAXFOCK">     0</i>
   <i type="int" name="NMAXFOCKAE">     0</i>
   <i type="logical" name="LFOCKAEDFT"> F  </i>
   <i name="HFSCREEN">      0.00000000</i>
   <i name="HFSCREENC">      0.00000000</i>
   <i type="int" name="NBANDSGWLOW">     0</i>
  </separator>
  <separator name="vdW DFT" >
   <i type="logical" name="LUSE_VDW"> F  </i>
   <i name="Zab_VDW">     -0.84910000</i>
   <i name="PARAM1">      0.12340000</i>
   <i name="PARAM2">      1.00000000</i>
   <i name="PARAM3">      0.00000000</i>
  </separator>
  <separator name="model GW" >
   <i type="int" name="MODEL_GW">     0</i>
   <i name="MODEL_EPS0">      3.02065305</i>
   <i name="MODEL_ALPHA">      1.00000000</i>
  </separator>
  <separator name="linear response parameters" >
   <i type="logical" name="LEPSILON"> F  </i>
   <i type="logical" name="LRPA"> F  </i>
   <i type="logical" name="LNABLA"> F  </i>
   <i type="logical" name="LVEL"> F  </i>
   <i type="int" name="KINTER">     0</i>
   <i name="CSHIFT">      0.10000000</i>
   <i name="OMEGAMAX">     -1.00000000</i>
   <i name="DEG_THRESHOLD">      0.00200000</i>
   <i name="RTIME">     -0.10000000</i>
   <i name="WPLASMAI">      0.00000000</i>
   <v name="DFIELD">      0.00000000      0.00000000      0.00000000</v>
   <v name="WPLASMA">      0.00000000      0.00000000      0.00000000      0.00000000      0.00000000      0.00000000      0.00000000      0.00000000      0.00000000</v>
  </separator>
  <separator name="orbital magnetization" >
   <i type="logical" name="NUCIND"> F  </i>
   <v name="MAGPOS">      0.00000000      0.00000000      0.00000000</v>
   <i type="logical" name="LNICSALL"> T  </i>
   <i type="logical" name="ORBITALMAG"> F  </i>
   <i type="logical" name="LMAGBLOCH"> F  </i>
   <i type="logical" name="LCHIMAG"> F  </i>
   <i type="logical" name="LGAUGE"> T  </i>
   <i type="int" name="MAGATOM">     0</i>
   <v name="MAGDIPOL">      0.00000000      0.00000000      0.00000000</v>
   <v name="AVECCONST">      0.00000000      0.00000000      0.00000000</v>
  </separator>
  <separator name="response functions" >
   <i type="logical" name="LADDER"> F  </i>
   <i type="logical" name="LRPAFORCE"> F  </i>
   <i type="logical" name="LFXC"> F  </i>
   <i type="logical" name="LHARTREE"> T  </i>
   <i type="int" name="IBSE">     0</i>
   <v type="int" name="KPOINT">    -1     0     0     0</v>
   <i type="logical" name="LTCTE"> F  </i>
   <i type="logical" name="LTETE"> F  </i>
   <i type="logical" name="LTRIPLET"> F  </i>
   <i type="logical" name="LFXCEPS"> F  </i>
   <i type="logical" name="LFXHEG"> F  </i>
   <i type="int" name="NATURALO">     2</i>
   <i type="logical" name="L2ORDER"> F  </i>
   <i type="logical" name="LMP2LT"> F  </i>
   <i type="logical" name="LUSEW"> F  </i>
   <i name="ENCUTGW">     -2.00000000</i>
   <i name="ENCUTGWSOFT">     -2.00000000</i>
[...]
       <r>   -5.1979    1.0000 </r>
       <r>   -5.1979    1.0000 </r>
       <r>   -2.7195    1.0000 </r>
       <r>   -2.7195    1.0000 </r>
       <r>   -2.7195    1.0000 </r>
       <r>   -1.4082    1.0000 </r>
       <r>    7.7700    1.0000 </r>
       <r>    7.7700    1.0000 </r>
       <r>    7.7700    1.0000 </r>
       <r>    8.0478    1.0000 </r>
       <r>    8.0478    1.0000 </r>
       <r>    8.0478    1.0000 </r>
       <r>    8.5823    1.0000 </r>
       <r>    8.5823    1.0000 </r>
       <r>   20.1492    0.0000 </r>
       <r>   20.1492    0.0000 </r>
       <r>   20.1492    0.0000 </r>
       <r>   20.5505    0.0000 </r>
       <r>   20.5505    0.0000 </r>
       <r>   21.2876    0.0000 </r>
       <r>   21.2876    0.0000 </r>
       <r>   21.2876    0.0000 </r>
      </set>
      <set comment="kpoint 82">
       <r>   -5.8807    1.0000 </r>
       <r>   -5.8807    1.0000 </r>
       <r>   -4.9690    1.0000 </r>
       <r>   -4.9690    1.0000 </r>
       <r>   -3.0700    1.0000 </r>
       <r>   -3.0700    1.0000 </r>
       <r>   -2.1761    1.0000 </r>
       <r>   -2.1761    1.0000 </r>
       <r>    7.8578    1.0000 </r>
       <r>    7.8578    1.0000 </r>
       <r>    8.1912    1.0000 </r>
       <r>    8.1912    1.0000 </r>
       <r>    8.3223    1.0000 </r>
       <r>    8.3223    1.0000 </r>
       <r>    8.4006    1.0000 </r>
       <r>    8.4006    1.0000 </r>
       <r>   20.3773    0.0000 </r>
       <r>   20.3773    0.0000 </r>
       <r>   20.3957    0.0000 </r>
       <r>   20.3957    0.0000 </r>
       <r>   20.8242    0.0000 </r>
       <r>   20.8242    0.0000 </r>
       <r>   20.9426    0.0000 </r>
       <r>   20.9426    0.0000 </r>
      </set>
      <set comment="kpoint 83">
       <r>   -5.3219    1.0000 </r>
       <r>   -5.3219    1.0000 </r>
       <r>   -5.3219    1.0000 </r>
       <r>   -5.3219    1.0000 </r>
       <r>   -2.8484    1.0000 </r>
       <r>   -2.8484    1.0000 </r>
       <r>   -2.8484    1.0000 </r>
       <r>   -2.8484    1.0000 </r>
       <r>    8.2038    1.0000 </r>
       <r>    8.2038    1.0000 </r>
       <r>    8.2038    1.0000 </r>
       <r>    8.2038    1.0000 </r>
       <r>    8.4284    1.0000 </r>
       <r>    8.4284    1.0000 </r>
       <r>    8.4284    1.0000 </r>
       <r>    8.4284    1.0000 </r>
       <r>   20.5415    0.0000 </r>
       <r>   20.5415    0.0000 </r>
       <r>   20.5415    0.0000 </r>
       <r>   20.5415    0.0000 </r>
       <r>   20.6565    0.0000 </r>
       <r>   20.6565    0.0000 </r>
       <r>   20.6565    0.0000 </r>
       <r>   20.6565    0.0000 </r>
      </set>
      <set comment="kpoint 84">
       <r>   -5.0899    1.0000 </r>
       <r>   -5.0899    1.0000 </r>
       <r>   -5.0899    1.0000 </r>
       <r>   -5.0899    1.0000 </r>
       <r>   -3.2034    1.0000 </r>
       <r>   -3.2034    1.0000 </r>
       <r>   -3.2034    1.0000 </r>
       <r>   -3.2034    1.0000 </r>
       <r>    8.4441    1.0000 </r>
       <r>    8.4441    1.0000 </r>
       <r>    8.4441    1.0000 </r>
       <r>    8.4441    1.0000 </r>
       <r>    8.4441    1.0000 </r>
       <r>    8.4441    1.0000 </r>
       <r>    8.4441    1.0000 </r>
       <r>    8.4441    1.0000 </r>
       <r>   20.5489    0.0000 </r>
       <r>   20.5489    0.0000 </r>
       <r>   20.5489    0.0000 </r>
       <r>   20.5489    0.0000 </r>
       <r>   20.5489    0.0000 </r>
       <r>   20.5489    0.0000 </r>
       <r>   20.5489    0.0000 </r>
       <r>   20.5489    0.0000 </r>
      </set>
     </set>
    </set>
   </array>
  </eigenvalues>
  <separator name="orbital magnetization" >
   <v name="MAGDIPOLOUT">      0.00000000      0.00000000      0.00000000</v>
  </separator>
  <dos>
   <i name="efermi">     11.62137528 </i>
   <total>
    <array>
     <dimension dim="1">gridpoints</dimension>
     <dimension dim="2">spin</dimension>
     <field>energy</field>
     <field>total</field>
     <field>integrated</field>
     <set>
      <set comment="spin 1">
       <r>   -13.3777     0.0000     0.0000 </r>
       <r>   -13.2463     0.0000     0.0000 </r>
       <r>   -13.1148     0.0000     0.0000 </r>
       <r>   -12.9833     0.0000     0.0000 </r>
       <r>   -12.8518     0.0000     0.0000 </r>
       <r>   -12.7203     0.0000     0.0000 </r>
       <r>   -12.5888     0.0000     0.0000 </r>
       <r>   -12.4573     0.0000     0.0000 </r>
       <r>   -12.3258     0.0000     0.0000 </r>
       <r>   -12.1944     0.0000     0.0000 </r>
       <r>   -12.0629     0.0000     0.0000 </r>
       <r>   -11.9314     0.0000     0.0000 </r>
       <r>   -11.7999     0.0000     0.0000 </r>
       <r>   -11.6684     0.0000     0.0000 </r>
       <r>   -11.5369     0.0316     0.0005 </r>
       <r>   -11.4054     0.1410     0.0148 </r>
       <r>   -11.2739     0.2209     0.0385 </r>
       <r>   -11.1425     0.2496     0.0692 </r>
       <r>   -11.0110     0.2928     0.1048 </r>
       <r>   -10.8795     0.3303     0.1463 </r>
       <r>   -10.7480     0.3564     0.1913 </r>
       <r>   -10.6165     0.3841     0.2399 </r>
       <r>   -10.4850     0.4189     0.2927 </r>
       <r>   -10.3535     0.4406     0.3494 </r>
       <r>   -10.2220     0.4617     0.4087 </r>
       <r>   -10.0906     0.4846     0.4709 </r>
       <r>    -9.9591     0.5101     0.5363 </r>
       <r>    -9.8276     0.5353     0.6050 </r>
       <r>    -9.6961     0.5523     0.6765 </r>
       <r>    -9.5646     0.5702     0.7503 </r>
       <r>    -9.4331     0.5896     0.8265 </r>
       <r>    -9.3016     0.6098     0.9054 </r>
       <r>    -9.1701     0.6312     0.9869 </r>
       <r>    -9.0386     0.6514     1.0714 </r>
       <r>    -8.9072     0.6669     1.1580 </r>
       <r>    -8.7757     0.6822     1.2467 </r>
       <r>    -8.6442     0.6996     1.3375 </r>
       <r>    -8.5127     0.7176     1.4307 </r>
       <r>    -8.3812     0.7362     1.5263 </r>
       <r>    -8.2497     0.7557     1.6243 </r>
       <r>    -8.1182     0.7714     1.7248 </r>
       <r>    -7.9867     0.7865     1.8272 </r>
       <r>    -7.8553     0.8020     1.9317 </r>
       <r>    -7.7238     0.8184     2.0382 </r>
       <r>    -7.5923     0.8350     2.1469 </r>
       <r>    -7.4608     0.8521     2.2578 </r>
       <r>    -7.3293     0.9063     2.3735 </r>
       <r>    -7.1978     0.9307     2.4943 </r>
       <r>    -7.0663     0.9740     2.6197 </r>
       <r>    -6.9348     0.9785     2.7482 </r>
       <r>    -6.8034     0.9611     2.8760 </r>
       <r>    -6.6719     0.9308     3.0004 </r>
       <r>    -6.5404     0.9486     3.1236 </r>
       <r>    -6.4089     0.9560     3.2487 </r>
       <r>    -6.2774     0.9586     3.3746 </r>
       <r>    -6.1459     0.9648     3.5009 </r>
       <r>    -6.0144     1.0034     3.6301 </r>
       <r>    -5.8829     1.0607     3.7656 </r>
       <r>    -5.7515     1.1221     3.9079 </r>
       <r>    -5.6200     1.1605     4.0579 </r>
       <r>    -5.4885     1.1521     4.2094 </r>
       <r>    -5.3570     1.1990     4.3636 </r>
       <r>    -5.2255     1.3295     4.5285 </r>
       <r>    -5.0940     1.4745     4.7136 </r>
       <r>    -4.9625     1.3585     4.9028 </r>
       <r>    -4.8310     1.3241     5.0798 </r>
       <r>    -4.6996     1.3361     5.2572 </r>
       <r>    -4.5681     1.2246     5.4243 </r>
       <r>    -4.4366     1.2600     5.5872 </r>
       <r>    -4.3051     1.2920     5.7559 </r>
       <r>    -4.1736     1.1606     5.9184 </r>
       <r>    -4.0421     1.1006     6.0663 </r>
       <r>    -3.9106     1.0778     6.2095 </r>
       <r>    -3.7791     1.0481     6.3493 </r>
       <r>    -3.6476     1.0480     6.4865 </r>
       <r>    -3.5162     1.0223     6.6250 </r>
       <r>    -3.3847     0.9992     6.7598 </r>
       <r>    -3.2532     0.9523     6.8926 </r>
       <r>    -3.1217     0.9206     7.0146 </r>
       <r>    -2.9902     1.0052     7.1393 </r>
       <r>    -2.8587     1.0356     7.2751 </r>
       <r>    -2.7272     1.1658     7.4193 </r>
       <r>    -2.5957     1.1423     7.5756 </r>
       <r>    -2.4643     1.1162     7.7238 </r>
       <r>    -2.3328     1.0957     7.8692 </r>
       <r>    -2.2013     1.1433     8.0208 </r>
       <r>    -2.0698     1.1476     8.1702 </r>
       <r>    -1.9383     1.1368     8.3282 </r>
       <r>    -1.8068     1.0102     8.4678 </r>
       <r>    -1.6753     1.0416     8.6016 </r>
       <r>    -1.5438     1.0761     8.7433 </r>
       <r>    -1.4124     1.1207     8.8870 </r>
       <r>    -1.2809     1.2041     9.0398 </r>
       <r>    -1.1494     1.3344     9.2062 </r>
       <r>    -1.0179     1.5819     9.3964 </r>
       <r>    -0.8864     2.0244     9.6335 </r>
       <r>    -0.7549     2.2748     9.9195 </r>
       <r>    -0.6234     2.2670    10.2202 </r>
       <r>    -0.4919     2.1796    10.5163 </r>
       <r>    -0.3605     1.7408    10.7796 </r>
       <r>    -0.2290     1.5359    11.0048 </r>
       <r>    -0.0975     1.4180    11.1984 </r>
       <r>     0.0340     1.3407    11.3795 </r>
       <r>     0.1655     1.2800    11.5517 </r>
       <r>     0.2970     1.2399    11.7169 </r>
       <r>     0.4285     1.2184    11.8785 </r>
       <r>     0.5600     1.2036    12.0376 </r>
       <r>     0.6914     1.1950    12.1953 </r>
       <r>     0.8229     1.2378    12.3537 </r>
       <r>     0.9544     1.5547    12.5302 </r>
       <r>     1.0859     1.1300    12.6917 </r>
       <r>     1.2174     1.0807    12.8346 </r>
       <r>     1.3489     1.1455    12.9802 </r>
       <r>     1.4804     1.2929    13.1391 </r>
       <r>     1.6119     1.7358    13.3306 </r>
       <r>     1.7434     2.1047    13.5984 </r>
       <r>     1.8748     1.9778    13.8714 </r>
       <r>     2.0063     1.8184    14.1196 </r>
       <r>     2.1378     1.7951    14.3548 </r>
       <r>     2.2693     2.0355    14.6044 </r>
       <r>     2.4008     2.2155    14.8867 </r>
       <r>     2.5323     2.1559    15.1748 </r>
       <r>     2.6638     1.8335    15.4395 </r>
       <r>     2.7953     1.4180    15.6519 </r>
       <r>     2.9267     1.2324    15.8226 </r>
       <r>     3.0582     1.5973    16.0027 </r>
       <r>     3.1897     1.9143    16.2370 </r>
       <r>     3.3212     2.0562    16.4989 </r>
       <r>     3.4527     2.1204    16.7721 </r>
       <r>     3.5842     2.1639    17.0519 </r>
       <r>     3.7157     2.2244    17.3415 </r>
       <r>     3.8472     2.3484    17.6393 </r>
       <r>     3.9786     2.9777    17.9640 </r>
       <r>     4.1101     2.9386    18.3352 </r>
       <r>     4.2416     2.4115    18.6760 </r>
       <r>     4.3731     2.4770    18.9829 </r>
       <r>     4.5046     2.4250    19.2948 </r>
       <r>     4.6361     2.6454    19.6317 </r>
       <r>     4.7676     2.5030    19.9755 </r>
       <r>     4.8991     2.7661    20.3141 </r>
       <r>     5.0305     3.1128    20.7051 </r>
       <r>     5.1620     3.3131    21.1303 </r>
       <r>     5.2935     3.0154    21.5493 </r>
       <r>     5.4250     3.1267    21.9324 </r>
       <r>     5.5565     2.5219    22.3035 </r>
       <r>     5.6880     2.4147    22.6289 </r>
       <r>     5.8195     2.6285    22.9666 </r>
       <r>     5.9510     2.4625    23.3043 </r>
       <r>     6.0825     2.5191    23.6275 </r>
       <r>     6.2139     2.6207    23.9659 </r>
       <r>     6.3454     2.6917    24.3172 </r>
       <r>     6.4769     2.6614    24.6702 </r>
       <r>     6.6084     2.7301    25.0235 </r>
       <r>     6.7399     2.8321    25.3891 </r>
       <r>     6.8714     2.5765    25.7475 </r>
       <r>     7.0029     2.2798    26.0658 </r>
       <r>     7.1344     2.1398    26.3593 </r>
       <r>     7.2658     2.0997    26.6366 </r>
       <r>     7.3973     2.1650    26.9194 </r>
       <r>     7.5288     2.6514    27.2268 </r>
       <r>     7.6603     2.4897    27.5663 </r>
       <r>     7.7918     2.4035    27.8876 </r>
       <r>     7.9233     2.4506    28.2093 </r>
       <r>     8.0548     2.1700    28.5136 </r>
       <r>     8.1863     2.1418    28.7974 </r>
       <r>     8.3177     2.1663    29.0745 </r>
       <r>     8.4492     2.8069    29.4250 </r>
       <r>     8.5807     1.7197    29.7048 </r>
       <r>     8.7122     1.5555    29.9196 </r>
       <r>     8.8437     1.4625    30.1164 </r>
       <r>     8.9752     1.3093    30.2973 </r>
       <r>     9.1067     1.2239    30.4624 </r>
       <r>     9.2382     1.1707    30.6198 </r>
       <r>     9.3696     1.1008    30.7694 </r>
       <r>     9.5011     1.0328    30.9102 </r>
       <r>     9.6326     0.9181    31.0383 </r>
       <r>     9.7641     0.8323    31.1533 </r>
       <r>     9.8956     0.7898    31.2591 </r>
       <r>    10.0271     0.7511    31.3603 </r>
       <r>    10.1586     0.7172    31.4572 </r>
       <r>    10.2901     0.6466    31.5467 </r>
       <r>    10.4215     0.5713    31.6269 </r>
       <r>    10.5530     0.5017    31.6975 </r>
       <r>    10.6845     0.4936    31.7619 </r>
       <r>    10.8160     0.4170    31.8230 </r>
       <r>    10.9475     0.3292    31.8713 </r>
       <r>    11.0790     0.3488    31.9148 </r>
       <r>    11.2105     0.2395    31.9593 </r>
       <r>    11.3420     0.1303    31.9826 </r>
       <r>    11.4735     0.0896    31.9982 </r>
       <r>    11.6049     0.0000    32.0000 </r>
       <r>    11.7364     0.0000    32.0000 </r>
       <r>    11.8679     0.0000    32.0000 </r>
       <r>    11.9994     0.0000    32.0000 </r>
       <r>    12.1309     0.0000    32.0000 </r>
       <r>    12.2624     0.0000    32.0000 </r>
       <r>    12.3939     0.0000    32.0000 </r>
       <r>    12.5254     0.0000    32.0000 </r>
       <r>    12.6568     0.0000    32.0000 </r>
       <r>    12.7883     0.0000    32.0000 </r>
       <r>    12.9198     0.0000    32.0000 </r>
       <r>    13.0513     0.0000    32.0000 </r>
       <r>    13.1828     0.0000    32.0000 </r>
       <r>    13.3143     0.0000    32.0000 </r>
       <r>    13.4458     0.0000    32.0000 </r>
       <r>    13.5773     0.0000    32.0000 </r>
       <r>    13.7087     0.0000    32.0000 </r>
       <r>    13.8402     0.0000    32.0000 </r>
       <r>    13.9717     0.0000    32.0000 </r>
       <r>    14.1032     0.0000    32.0000 </r>
       <r>    14.2347     0.0000    32.0000 </r>
       <r>    14.3662     0.0000    32.0000 </r>
       <r>    14.4977     0.0000    32.0000 </r>
       <r>    14.6292     0.0000    32.0000 </r>
       <r>    14.7606     0.0000    32.0000 </r>
       <r>    14.8921     0.0000    32.0000 </r>
       <r>    15.0236     0.0000    32.0000 </r>
       <r>    15.1551     0.0000    32.0000 </r>
       <r>    15.2866     0.0000    32.0000 </r>
       <r>    15.4181     0.0000    32.0000 </r>
       <r>    15.5496     0.0000    32.0000 </r>
       <r>    15.6811     0.0000    32.0000 </r>
       <r>    15.8125     0.0000    32.0000 </r>
       <r>    15.9440     0.0000    32.0000 </r>
       <r>    16.0755     0.0621    32.0025 </r>
       <r>    16.2070     0.2197    32.0203 </r>
       <r>    16.3385     0.4561    32.0647 </r>
       <r>    16.4700     0.5668    32.1339 </r>
       <r>    16.6015     0.5586    32.2073 </r>
       <r>    16.7330     0.7395    32.2933 </r>
       <r>    16.8645     0.8038    32.3956 </r>
       <r>    16.9959     0.9371    32.5099 </r>
       <r>    17.1274     1.3440    32.6765 </r>
       <r>    17.2589     1.3632    32.8552 </r>
       <r>    17.3904     1.3794    33.0350 </r>
       <r>    17.5219     1.4403    33.2204 </r>
       <r>    17.6534     1.4012    33.4067 </r>
       <r>    17.7849     1.5221    33.5992 </r>
       <r>    17.9164     1.6288    33.8052 </r>
       <r>    18.0478     1.7596    34.0264 </r>
       <r>    18.1793     2.0409    34.2744 </r>
       <r>    18.3108     2.1064    34.5497 </r>
       <r>    18.4423     1.9725    34.8229 </r>
       <r>    18.5738     1.9172    35.0769 </r>
       <r>    18.7053     1.9672    35.3321 </r>
       <r>    18.8368     2.0275    35.5948 </r>
       <r>    18.9683     2.1387    35.8672 </r>
       <r>    19.0997     2.2975    36.1591 </r>
       <r>    19.2312     2.4281    36.4703 </r>
       <r>    19.3627     2.6003    36.8007 </r>
       <r>    19.4942     2.5747    37.1377 </r>
       <r>    19.6257     2.6954    37.4834 </r>
       <r>    19.7572     2.9070    37.8503 </r>
       <r>    19.8887     3.3133    38.2591 </r>
       <r>    20.0202     3.7654    38.7058 </r>
       <r>    20.1516     4.1439    39.2484 </r>
       <r>    20.2831     3.7541    39.7671 </r>
       <r>    20.4146     3.6582    40.2661 </r>
       <r>    20.5461     2.5030    40.6822 </r>
       <r>    20.6776     2.6302    41.0029 </r>
       <r>    20.8091     2.3244    41.3265 </r>
       <r>    20.9406     2.5023    41.6380 </r>
       <r>    21.0721     3.0267    41.9997 </r>
       <r>    21.2036     3.0090    42.3900 </r>
       <r>    21.3350     2.8367    42.7642 </r>
       <r>    21.4665     3.1233    43.1559 </r>
       <r>    21.5980     3.3646    43.5877 </r>
       <r>    21.7295     3.2576    44.0246 </r>
       <r>    21.8610     3.0030    44.4342 </r>
       <r>    21.9925     2.8788    44.8224 </r>
       <r>    22.1240     2.5295    45.1713 </r>
       <r>    22.2555     2.4416    45.4973 </r>
       <r>    22.3869     2.6279    45.8322 </r>
       <r>    22.5184     2.6034    46.1789 </r>
       <r>    22.6499     2.5577    46.5160 </r>
       <r>    22.7814     2.6385    46.8621 </r>
       <r>    22.9129     2.5195    47.2078 </r>
       <r>    23.0444     1.9267    47.5015 </r>
       <r>    23.1759     1.3034    47.7190 </r>
       <r>    23.3074     0.5975    47.8366 </r>
       <r>    23.4388     0.2548    47.9047 </r>
       <r>    23.5703     0.2009    47.9339 </r>
       <r>    23.7018     0.1590    47.9576 </r>
       <r>    23.8333     0.1178    47.9758 </r>
       <r>    23.9648     0.0779    47.9886 </r>
       <r>    24.0963     0.0418    47.9965 </r>
       <r>    24.2278     0.0096    47.9998 </r>
       <r>    24.3593     0.0000    48.0000 </r>
       <r>    24.4907     0.0000    48.0000 </r>
       <r>    24.6222     0.0000    48.0000 </r>
       <r>    24.7537     0.0000    48.0000 </r>
       <r>    24.8852     0.0000    48.0000 </r>
       <r>    25.0167     0.0000    48.0000 </r>
       <r>    25.1482     0.0000    48.0000 </r>
       <r>    25.2797     0.0000    48.0000 </r>
       <r>    25.4112     0.0000    48.0000 </r>
       <r>    25.5426     0.0000    48.0000 </r>
       <r>    25.6741     0.0000    48.0000 </r>
       <r>    25.8056     0.0000    48.0000 </r>
       <r>    25.9371     0.0000    48.0000 </r>
       <r>    26.0686     0.0000    48.0000 </r>
      </set>
     </set>
    </array>
   </total>
  </dos>
 </calculation>
 <structure name="finalpos" >
  <crystal>
   <varray name="basis" >
    <v>       3.42778200       0.00000000       0.00000000 </v>
    <v>       0.00000000       3.42778200       0.00000000 </v>
    <v>       0.00000000       0.00000000       3.42778200 </v>
   </varray>
   <i name="volume">     40.27537397 </i>
   <varray name="rec_basis" >
    <v>       0.29173384       0.00000000       0.00000000 </v>
    <v>       0.00000000       0.29173384       0.00000000 </v>
    <v>       0.00000000       0.00000000       0.29173384 </v>
   </varray>
  </crystal>
  <varray name="positions" >
   <v>       0.25000000       0.75000000       0.25000000 </v>
   <v>       0.00000000       0.00000000       0.50000000 </v>
   <v>       0.25000000       0.25000000       0.75000000 </v>
   <v>       0.00000000       0.50000000       0.00000000 </v>
   <v>       0.75000000       0.75000000       0.75000000 </v>
   <v>       0.50000000       0.00000000       0.00000000 </v>
   <v>       0.75000000       0.25000000       0.25000000 </v>
   <v>       0.50000000       0.50000000       0.50000000 </v>
  </varray>
 </structure>
</modeling>
